Title
81310
    1CHL1    C3    1   1.375   6.645  10.331 -0.1112 -0.0128 -0.4552
    1CHL1    H3    2   1.470   6.701  10.347  0.1723 -0.9901  1.3740
    1CHL1    O3    3   1.320   6.580  10.440  0.0375  0.2153 -0.4064
    1CHL1   H3'    4   1.259   6.643  10.480  0.2013 -0.2194  0.5167
    1CHL1    C4    5   1.278   6.753  10.272 -0.0132 -0.3664  0.3910
    1CHL1   H4A    6   1.179   6.708  10.248 -0.6314 -0.0939  2.3704
    1CHL1   H4B    7   1.268   6.842  10.337 -3.1138  0.0930 -0.6251
    1CHL1    C5    8   1.317   6.813  10.141 -0.2677  0.4314 -0.8479
    1CHL1    C6    9   1.328   6.946  10.120 -0.4275 -0.1674  0.9597
    1CHL1    H6   10   1.323   7.013  10.207  0.8906  0.7135  0.3650
    1CHL1    C7   11   1.370   7.002   9.986 -0.4828 -0.3104 -0.3411
    1CHL1   H7A   12   1.324   7.102   9.969  0.9662  0.2404 -1.1855
    1CHL1   H7B   13   1.477   7.031   9.993 -1.2942  3.4934 -2.0480
    1CHL1    C8   14   1.359   6.905   9.863 -0.2324 -0.3080 -0.7731
    1CHL1    H8   15   1.249   6.892   9.854 -0.1271 -1.2308 -0.8060
    1CHL1   C14   16   1.421   6.957   9.736  0.1400  0.4259  0.1517
    1CHL1   H14   17   1.530   6.966   9.753  0.6879 -2.5403 -1.3930
    1CHL1   C15   18   1.369   7.091   9.683 -0.2469 -0.2083 -0.2892
    1CHL1  H15A   19   1.259   7.097   9.695 -0.4753  0.7234 -2.6671
    1CHL1  H15B   20   1.413   7.169   9.749 -1.7340 -0.8260  1.5007
    1CHL1   C16   21   1.414   7.085   9.536 -0.2473 -0.5185 -0.3601
    1CHL1  H16A   22   1.327   7.095   9.467 -0.7032 -2.8159 -0.1432
    1CHL1  H16B   23   1.484   7.170   9.517  1.6950 -2.0023  0.0697
    1CHL1   C17   24   1.483   6.953   9.503  0.4571 -0.3911 -0.1202
    1CHL1   H17   25   1.592   6.965   9.517  0.5313  1.0646 -1.6624
    1CHL1   C13   26   1.435   6.863   9.621  0.1995  0.3256 -0.5823
    1CHL1   C18   27   1.283   6.818   9.584  0.7248  0.6605  0.1114
    1CHL1  H18A   28   1.277   6.757   9.491 -0.3058  0.8971  0.0169
    1CHL1  H18B   29   1.230   6.765   9.666 -2.0599  0.0053 -2.0346
    1CHL1  H18C   30   1.218   6.904   9.558 -0.3895 -0.4532 -0.7960
    1CHL1   C12   31   1.510   6.739   9.664  0.3783  1.0223 -0.4504
    1CHL1  H12A   32   1.499   6.661   9.586  2.6098  0.6033 -0.3874
    1CHL1  H12B   33   1.620   6.757   9.670  0.5984 -0.7918  1.5277
    1CHL1   C11   34   1.463   6.674   9.794  0.1755 -0.3169 -0.4775
    1CHL1  H11A   35   1.369   6.625   9.760 -1.3030 -0.0772  3.0372
    1CHL1  H11B   36   1.531   6.589   9.817 -1.5875 -2.0045 -1.3307
    1CHL1    C9   37   1.430   6.771   9.908  0.3669  0.1373 -0.5563
    1CHL1    H9   38   1.528   6.809   9.945 -1.3379  2.7122  1.5327
    1CHL1   C10   39   1.356   6.711  10.032  0.2940 -0.2654  0.4196
    1CHL1   C19   40   1.220   6.649   9.987 -0.2224 -0.2717  0.3340
    1CHL1  H19A   41   1.237   6.579   9.902 -0.7715  0.6719 -0.5723
    1CHL1  H19B   42   1.176   6.588  10.068 -0.2419  0.2401  0.7123
    1CHL1  H19C   43   1.149   6.723   9.944  1.0821 -0.4534 -2.2666
    1CHL1    C1   44   1.448   6.597  10.097 -0.8937  0.2410  0.0439
    1CHL1   H1A   45   1.445   6.510  10.027 -0.7899  0.7662 -0.6183
    1CHL1   H1B   46   1.551   6.636  10.113  0.3524 -0.6732 -4.8473
    1CHL1    C2   47   1.409   6.539  10.234  0.5763 -0.6625 -0.9354
    1CHL1   H2A   48   1.490   6.472  10.271  0.4487 -1.0769 -1.4107
    1CHL1   H2B   49   1.325   6.471  10.208  0.8023 -1.8688  1.2996
    1CHL1   C20   50   1.465   6.909   9.361 -0.5640  0.1711  0.0993
    1CHL1   H20   51   1.360   6.879   9.343 -0.3437 -0.4433 -0.1681
    1CHL1   C21   52   1.558   6.785   9.337  0.2303 -0.4136  0.3884
    1CHL1  H21A   53   1.533   6.694   9.395 -1.7511  1.1936  2.1134
    1CHL1  H21B   54   1.663   6.817   9.351  0.2548 -0.2311 -0.1829
    1CHL1  H21C   55   1.541   6.755   9.231 -0.7312 -1.6796  0.8887
    1CHL1   C22   56   1.496   7.020   9.262  0.8498 -0.1736 -0.4450
    1CHL1  H22A   57   1.439   7.113   9.284  0.6259 -0.6250  0.9524
    1CHL1  H22B   58   1.604   7.046   9.270  1.3186 -1.5231 -2.1720
    1CHL1   C23   59   1.471   6.983   9.111  0.2158 -0.0491 -0.4998
    1CHL1  H23A   60   1.551   6.913   9.078  1.3686  2.0679 -2.3397
    1CHL1  H23B   61   1.372   6.934   9.112  0.6291 -0.8788 -0.2222
    1CHL1   C24   62   1.452   7.112   9.027 -0.9772  0.1786 -1.2916
    1CHL1  H24A   63   1.442   7.202   9.092  1.4577 -0.8942  0.6540
    1CHL1  H24B   64   1.550   7.121   8.975  0.0943 -1.2990  0.4184
    1CHL1   C25   65   1.347   7.120   8.915  0.4178 -0.4703 -1.1812
    1CHL1   H25   66   1.344   7.016   8.874 -1.8471 -2.1856  2.9558
    1CHL1   C26   67   1.204   7.136   8.972 -0.1864 -0.1644 -0.0240
    1CHL1  H26A   68   1.199   7.221   9.043  1.4844  0.3618 -0.4997
    1CHL1  H26B   69   1.132   7.149   8.888  0.9317  0.9358 -0.8439
    1CHL1  H26C   70   1.185   7.045   9.032 -1.3917  1.1737  1.6553
    1CHL1   C27   71   1.378   7.230   8.820 -0.4050  0.2350 -0.1025
    1CHL1  H27A   72   1.297   7.227   8.743 -0.2469  0.0961 -0.2660
    1CHL1  H27B   73   1.385   7.334   8.858  4.6067  1.0639 -2.7607
    1CHL1  H27C   74   1.474   7.211   8.767 -1.1301  1.0696 -1.7435
    2CHL1    C3   75   2.421   4.945  10.083 -0.9438 -1.0830 -0.1737
    2CHL1    H3   76   2.501   4.870  10.065  2.2483  2.0645  0.1766
    2CHL1    O3   77   2.417   4.955  10.225  0.3868 -0.7062 -0.0767
    2CHL1   H3'   78   2.344   5.015  10.240  0.1909 -0.9485 -0.0507
    2CHL1    C4   79   2.492   5.070  10.035 -0.8386  0.0787  0.6340
    2CHL1   H4A   80   2.439   5.166  10.050 -0.5314  0.5347 -1.0802
    2CHL1   H4B   81   2.588   5.096  10.084 -0.7589  0.0166  0.5093
    2CHL1    C5   82   2.507   5.045   9.880  0.5296 -0.5116 -0.7424
    2CHL1    C6   83   2.633   5.049   9.831  0.1778 -0.1964 -0.0829
    2CHL1    H6   84   2.729   5.056   9.884  0.1964  0.4401 -0.2015
    2CHL1    C7   85   2.657   5.055   9.684 -0.1350  0.3351  0.0390
    2CHL1   H7A   86   2.723   5.142   9.662 -0.9816  0.5679 -1.6357
    2CHL1   H7B   87   2.706   4.965   9.641  1.9835  0.9952  1.0034
    2CHL1    C8   88   2.526   5.065   9.606 -0.6348  0.2267  0.1831
    2CHL1    H8   89   2.494   5.172   9.605 -0.7723  0.1838 -0.6851
    2CHL1   C14   90   2.546   5.034   9.451  0.6575  0.0516 -0.6050
    2CHL1   H14   91   2.576   4.927   9.442  1.4098  0.1620  0.5483
    2CHL1   C15   92   2.654   5.105   9.372  0.2333 -0.0374  0.0276
    2CHL1  H15A   93   2.660   5.212   9.400 -1.7413 -0.2773  1.4394
    2CHL1  H15B   94   2.760   5.075   9.388  0.1128  0.3286  1.6037
    2CHL1   C16   95   2.612   5.081   9.224  0.0496 -0.3269  0.4604
    2CHL1  H16A   96   2.616   5.180   9.173  0.2159 -0.1585  0.7930
    2CHL1  H16B   97   2.690   5.021   9.174 -0.7741 -2.3039  1.5127
    2CHL1   C17   98   2.476   5.010   9.227  0.0639 -0.5182 -0.4240
    2CHL1   H17   99   2.491   4.901   9.235  0.2873 -0.3483  1.6199
    2CHL1   C13  100   2.416   5.043   9.369 -0.1361  0.1330 -0.6065
    2CHL1   C18  101   2.351   5.182   9.374 -0.5717  0.1896  0.1399
    2CHL1  H18A  102   2.259   5.190   9.313 -0.7314 -1.5207  0.1130
    2CHL1  H18B  103   2.330   5.220   9.476  0.8969  0.3320  0.4004
    2CHL1  H18C  104   2.426   5.248   9.325 -0.2005  0.1879  0.7067
    2CHL1   C12  105   2.321   4.937   9.418  0.1011 -0.7624  0.1162
    2CHL1  H12A  106   2.227   4.939   9.360  0.7428  1.7838 -0.9103
    2CHL1  H12B  107   2.372   4.839   9.435 -0.2425 -0.5646  2.4429
    2CHL1   C11  108   2.282   4.971   9.568 -0.7885  0.3078 -0.0883
    2CHL1  H11A  109   2.224   5.066   9.565 -1.4413 -0.1269 -1.3192
    2CHL1  H11B  110   2.219   4.889   9.609 -0.9905 -0.6993 -2.3580
    2CHL1    C9  111   2.413   4.977   9.664  0.2056 -0.1039 -0.0813
    2CHL1    H9  112   2.456   4.875   9.663  0.2398 -0.0909  0.0898
    2CHL1   C10  113   2.378   5.014   9.807  0.2000  0.8134  0.6522
    2CHL1   C19  114   2.297   5.143   9.828 -0.0626  0.4010  0.1029
    2CHL1  H19A  115   2.200   5.137   9.775 -0.2176  2.0294  0.1702
    2CHL1  H19B  116   2.283   5.181   9.931  0.6248 -0.3638  0.4832
    2CHL1  H19C  117   2.349   5.226   9.774  0.8203 -1.7021 -2.3937
    2CHL1    C1  118   2.294   4.903   9.875 -0.3228  0.1212  0.2924
    2CHL1   H1A  119   2.198   4.894   9.820 -0.2200  2.3965 -0.3480
    2CHL1   H1B  120   2.343   4.806   9.856  0.1782  0.1946  1.2101
    2CHL1    C2  121   2.283   4.914  10.034 -1.0207  1.4569  0.0509
    2CHL1   H2A  122   2.246   4.815  10.066  2.1792  1.2920  3.7004
    2CHL1   H2B  123   2.201   4.986  10.054 -0.0869  2.1216  1.5788
    2CHL1   C20  124   2.394   5.024   9.095  0.0241  0.3305 -0.0038
    2CHL1   H20  125   2.290   4.995   9.121  0.6620 -1.6649  0.4420
    2CHL1   C21  126   2.456   4.921   8.998  0.1207 -0.0254  0.2770
    2CHL1  H21A  127   2.398   4.937   8.905  0.8904  2.8734  0.2635
    2CHL1  H21B  128   2.443   4.816   9.032  0.8238 -0.2553 -0.1498
    2CHL1  H21C  129   2.560   4.948   8.968 -0.1456  1.1358  0.3983
    2CHL1   C22  130   2.381   5.170   9.033 -0.0197  0.7713  0.7131
    2CHL1  H22A  131   2.337   5.237   9.111 -1.0705 -0.5681  1.3027
    2CHL1  H22B  132   2.476   5.217   8.999 -1.1183  2.2541 -0.3742
    2CHL1   C23  133   2.270   5.175   8.922  0.0270 -0.1157  0.5754
    2CHL1  H23A  134   2.314   5.141   8.825 -1.2925  1.2918 -0.5419
    2CHL1  H23B  135   2.178   5.122   8.957  1.6596 -1.7440  2.4760
    2CHL1   C24  136   2.231   5.322   8.886  0.2158  0.7179  0.5265
    2CHL1  H24A  137   2.177   5.380   8.964  0.2972 -1.6662  2.4228
    2CHL1  H24B  138   2.327   5.376   8.877 -0.4762  1.6898 -1.2074
    2CHL1   C25  139   2.153   5.338   8.761  0.1562  0.1966  0.0387
    2CHL1   H25  140   2.216   5.300   8.678 -2.7420  0.5011 -2.3834
    2CHL1   C26  141   2.019   5.254   8.761 -0.1170 -0.4915  0.0287
    2CHL1  H26A  142   2.042   5.145   8.760 -1.8878 -0.8813 -0.1883
    2CHL1  H26B  143   1.959   5.282   8.850 -0.4155 -0.2459 -0.2473
    2CHL1  H26C  144   1.954   5.272   8.672 -0.5971 -0.2502  0.4294
    2CHL1   C27  145   2.116   5.484   8.737 -0.1106 -0.7620  0.3225
    2CHL1  H27A  146   2.199   5.558   8.744  0.0696 -0.9700  0.3586
    2CHL1  H27B  147   2.077   5.492   8.633  0.5824 -0.1009  0.1050
    2CHL1  H27C  148   2.030   5.523   8.795 -1.4981 -2.7209 -0.3901
    3CHL1    C3  149   3.433   4.713  10.147  0.1102  0.3038 -0.6869
    3CHL1    H3  150   3.520   4.657  10.107  0.0943  0.3948 -0.8458
    3CHL1    O3  151   3.465   4.712  10.287 -0.3424  0.4354 -0.1055
    3CHL1   H3'  152   3.394   4.757  10.332  0.5585  0.8753  0.9030
    3CHL1    C4  153   3.433   4.860  10.111 -0.2983  0.1441  0.8222
    3CHL1   H4A  154   3.359   4.912  10.175  0.6054  0.6836  1.4417
    3CHL1   H4B  155   3.524   4.915  10.143 -0.2927 -1.0465  2.9994
    3CHL1    C5  156   3.402   4.866   9.963 -0.5397 -0.0698  0.7254
    3CHL1    C6  157   3.484   4.924   9.869  0.0721  0.1082  0.0331
    3CHL1    H6  158   3.577   4.969   9.906 -0.3346 -1.0688  2.5771
    3CHL1    C7  159   3.443   4.933   9.723 -0.5307 -1.0643  0.1227
    3CHL1   H7A  160   3.469   5.029   9.672 -0.6099 -0.5348  1.0586
    3CHL1   H7B  161   3.502   4.858   9.666  2.0043  0.3857  0.7802
    3CHL1    C8  162   3.288   4.913   9.695 -0.3066 -0.2532  0.0787
    3CHL1    H8  163   3.246   5.008   9.735  0.8361  0.8138 -1.1905
    3CHL1   C14  164   3.259   4.908   9.545  0.4740 -0.3846  0.1013
    3CHL1   H14  165   3.328   4.831   9.506  1.4043  0.7652 -0.5467
    3CHL1   C15  166   3.294   5.040   9.463  0.1779 -1.0591  0.1719
    3CHL1  H15A  167   3.260   5.131   9.518  1.1991 -1.3133  1.2582
    3CHL1  H15B  168   3.403   5.038   9.442  0.2154  3.1079 -0.3313
    3CHL1   C16  169   3.228   5.018   9.330  0.6275  0.6971  0.8176
    3CHL1  H16A  170   3.169   5.106   9.297 -0.7286  0.0419  1.4418
    3CHL1  H16B  171   3.308   4.997   9.255  0.9983 -0.5761  1.5609
    3CHL1   C17  172   3.127   4.894   9.348 -0.0208 -0.1188  0.6998
    3CHL1   H17  173   3.177   4.800   9.316 -1.3660 -0.3406 -0.8261
    3CHL1   C13  174   3.120   4.878   9.501  0.0777  0.8909  0.2353
    3CHL1   C18  175   3.026   4.989   9.561  0.1285  0.8491 -0.1249
    3CHL1  H18A  176   3.044   5.012   9.668  2.4154  0.5754 -0.4435
    3CHL1  H18B  177   3.015   5.081   9.500 -1.2343  1.2562  0.6952
    3CHL1  H18C  178   2.920   4.967   9.588 -0.6940  2.8900 -1.5312
    3CHL1   C12  179   3.084   4.735   9.564 -0.3679 -0.0434  0.2938
    3CHL1  H12A  180   2.979   4.712   9.535 -0.2840 -0.2691  0.1590
    3CHL1  H12B  181   3.144   4.651   9.521 -0.8050 -0.8044  1.1552
    3CHL1   C11  182   3.115   4.729   9.720 -0.0982  0.6330 -0.2815
    3CHL1  H11A  183   3.026   4.776   9.768 -1.3490 -2.5655  0.6662
    3CHL1  H11B  184   3.108   4.626   9.761  0.9325  2.0215  3.7004
    3CHL1    C9  185   3.253   4.780   9.764  0.2219  0.2171  0.5116
    3CHL1    H9  186   3.322   4.701   9.727  0.1626 -0.4177  1.7335
    3CHL1   C10  187   3.268   4.801   9.919 -0.2790 -0.2706  0.6295
    3CHL1   C19  188   3.152   4.886   9.974 -0.3962  0.2425  0.3433
    3CHL1  H19A  189   3.051   4.841   9.966  0.5719 -2.0244  0.6666
    3CHL1  H19B  190   3.160   4.898  10.084  1.1279  1.0750  0.1682
    3CHL1  H19C  191   3.142   4.988   9.929 -2.2782 -0.4942 -0.9434
    3CHL1    C1  192   3.244   4.660   9.983  0.3503  0.8046  0.9210
    3CHL1   H1A  193   3.141   4.618   9.979  1.3368 -1.4702 -1.3469
    3CHL1   H1B  194   3.314   4.600   9.921  0.1597  3.0378 -1.5232
    3CHL1    C2  195   3.292   4.657  10.130  0.3464  0.3384 -0.2086
    3CHL1   H2A  196   3.293   4.550  10.163 -1.3562  0.4372  0.2283
    3CHL1   H2B  197   3.221   4.706  10.200  0.6261  0.9154 -0.3370
    3CHL1   C20  198   3.001   4.925   9.270 -0.7071  0.1750  0.2951
    3CHL1   H20  199   2.945   5.011   9.310 -1.7382  0.1499 -1.0502
    3CHL1   C21  200   2.895   4.809   9.271 -0.0362  0.1260 -0.0838
    3CHL1  H21A  201   2.865   4.783   9.375  1.1400 -0.4805  0.1028
    3CHL1  H21B  202   2.949   4.722   9.227  1.4166 -0.4792  2.7990
    3CHL1  H21C  203   2.811   4.838   9.203 -0.1478  2.6399  1.0581
    3CHL1   C22  204   3.031   4.964   9.125  0.1016 -0.2523  0.0165
    3CHL1  H22A  205   2.930   4.958   9.077 -0.2720 -1.8591  0.9629
    3CHL1  H22B  206   3.066   5.068   9.114  0.7516 -0.3835  0.8116
    3CHL1   C23  207   3.131   4.877   9.041  0.7974 -0.8901  0.2855
    3CHL1  H23A  208   3.234   4.911   9.066  0.4907 -1.6492  2.6793
    3CHL1  H23B  209   3.106   4.772   9.067  1.2396 -1.2370 -0.6807
    3CHL1   C24  210   3.120   4.904   8.899 -0.3696 -0.4165  0.5357
    3CHL1  H24A  211   3.014   4.878   8.876 -0.2444  0.8904 -1.6949
    3CHL1  H24B  212   3.139   5.007   8.862  0.0927 -0.8870 -0.5764
    3CHL1   C25  213   3.189   4.801   8.812 -0.6469  0.3415 -0.2013
    3CHL1   H25  214   3.149   4.702   8.842 -0.4290 -0.7346 -3.2857
    3CHL1   C26  215   3.164   4.811   8.658  0.0961  0.6982  0.0871
    3CHL1  H26A  216   3.238   4.881   8.614 -0.4727 -0.3326 -2.5686
    3CHL1  H26B  217   3.185   4.714   8.608 -0.9238  0.6684 -0.2945
    3CHL1  H26C  218   3.058   4.821   8.626 -0.4446  0.0023  1.6341
    3CHL1   C27  219   3.338   4.812   8.838 -0.0840  0.5468 -0.3382
    3CHL1  H27A  220   3.356   4.780   8.943  1.0383  1.0939 -0.3575
    3CHL1  H27B  221   3.396   4.741   8.774 -1.4261 -0.0495 -0.9097
    3CHL1  H27C  222   3.372   4.917   8.827  1.2417  0.1442 -0.2510
    4CHL1    C3  223   2.565   0.172  10.538 -0.2161  0.3937 -0.3790
    4CHL1    H3  224   2.471   0.180  10.479  0.3996 -1.1258 -1.5785
    4CHL1    O3  225   2.529   0.166  10.676 -0.0038  0.3872  1.0063
    4CHL1   H3'  226   2.616   0.165  10.717  0.0730  1.1265  0.8657
    4CHL1    C4  227   2.633   0.042  10.496  0.1197  0.1767 -0.0096
    4CHL1   H4A  228   2.733   0.027  10.542  0.3395  3.5104  0.6950
    4CHL1   H4B  229   2.576  -0.040  10.544 -1.3392  1.6192  0.7464
    4CHL1    C5  230   2.660   0.029  10.347  0.8628  0.0609  0.5175
    4CHL1    C6  231   2.605  -0.070  10.279 -0.2548  0.3377  0.0975
    4CHL1    H6  232   2.549  -0.149  10.330 -0.2282  0.0943 -0.2447
    4CHL1    C7  233   2.623  -0.072  10.128 -0.3084 -0.0392  0.3915
    4CHL1   H7A  234   2.635  -0.180  10.104  0.8045 -0.4126  2.5536
    4CHL1   H7B  235   2.527  -0.046  10.079 -0.0312  1.9635  0.8709
    4CHL1    C8  236   2.743   0.010  10.068  0.5876 -0.1547  0.6389
    4CHL1    H8  237   2.824  -0.056  10.105 -0.4279 -0.9768  1.4078
    4CHL1   C14  238   2.747   0.024   9.918 -0.2537 -0.2786  0.2276
    4CHL1   H14  239   2.653   0.077   9.891  0.2165 -0.2993 -1.5303
    4CHL1   C15  240   2.731  -0.097   9.826 -0.3687 -0.2615 -0.6244
    4CHL1  H15A  241   2.804  -0.171   9.865  0.0594  1.6062  2.2737
    4CHL1  H15B  242   2.623  -0.123   9.832 -0.2706 -1.0172 -1.8263
    4CHL1   C16  243   2.765  -0.040   9.688 -0.2129  0.1327  0.6627
    4CHL1  H16A  244   2.840  -0.113   9.649  0.1680  1.1451 -0.5319
    4CHL1  H16B  245   2.678  -0.030   9.620  2.2874  5.7883 -2.0716
    4CHL1   C17  246   2.813   0.108   9.705 -0.1658  0.2753 -0.8921
    4CHL1   H17  247   2.721   0.170   9.710  0.3210  0.9002  0.8048
    4CHL1   C13  248   2.859   0.113   9.857  0.1420  0.6013 -0.0673
    4CHL1   C18  249   3.000   0.051   9.877  0.5145  0.2837  0.4845
    4CHL1  H18A  250   3.073   0.135   9.884  0.2494  0.6541 -1.0693
    4CHL1  H18B  251   3.008  -0.015   9.966  0.2928  0.1938  0.4373
    4CHL1  H18C  252   3.019  -0.014   9.790  1.3761  0.7639  0.3100
    4CHL1   C12  253   2.845   0.251   9.926  0.2012 -0.1928 -0.2260
    4CHL1  H12A  254   2.924   0.322   9.893 -0.5822  0.1896 -1.3300
    4CHL1  H12B  255   2.740   0.278   9.899  0.0796 -2.4427 -2.2312
    4CHL1   C11  256   2.854   0.242  10.078 -0.0679 -0.0543 -0.5197
    4CHL1  H11A  257   2.954   0.203  10.103  0.2158  0.9986  0.0203
    4CHL1  H11B  258   2.858   0.343  10.125  0.9762  0.3483 -1.4672
    4CHL1    C9  259   2.744   0.148  10.136  0.2095 -0.5836  0.8276
    4CHL1    H9  260   2.644   0.192  10.115  1.8629  3.6160  1.3127
    4CHL1   C10  261   2.743   0.149  10.290 -0.3897  0.1941 -0.5909
    4CHL1   C19  262   2.892   0.130  10.342  0.0457 -0.0528 -0.1049
    4CHL1  H19A  263   2.926   0.025  10.330  0.9113  0.0165  1.6979
    4CHL1  H19B  264   2.960   0.211  10.308 -1.6317  0.9634 -1.1630
    4CHL1  H19C  265   2.883   0.139  10.452 -0.5231  1.8828 -0.2952
    4CHL1    C1  266   2.692   0.288  10.338 -0.9234 -0.5136 -0.0384
    4CHL1   H1A  267   2.777   0.355  10.315 -2.5133  1.1923 -1.1120
    4CHL1   H1B  268   2.600   0.325  10.287 -0.7104 -1.1408 -0.8802
    4CHL1    C2  269   2.652   0.286  10.493 -0.5287 -0.4973  0.0958
    4CHL1   H2A  270   2.604   0.383  10.520 -0.0726 -0.3152  0.2641
    4CHL1   H2B  271   2.743   0.279  10.557 -0.0690 -0.3911 -0.5339
    4CHL1   C20  272   2.903   0.148   9.586 -0.5376 -0.3117  0.2066
    4CHL1   H20  273   2.985   0.073   9.587 -0.1881  0.0714  0.9107
    4CHL1   C21  274   2.956   0.293   9.599  0.2130 -0.4087  0.5945
    4CHL1  H21A  275   3.035   0.308   9.676 -1.0758  1.2592  1.6334
    4CHL1  H21B  276   2.866   0.347   9.636 -0.2808 -1.1275  0.4465
    4CHL1  H21C  277   2.991   0.332   9.501 -1.8338  1.7984  0.6853
    4CHL1   C22  278   2.832   0.135   9.443 -0.3836 -0.1839 -0.1341
    4CHL1  H22A  279   2.758   0.052   9.445 -0.3166 -0.2368  3.1365
    4CHL1  H22B  280   2.782   0.232   9.426  0.4482 -0.0586 -1.9584
    4CHL1   C23  281   2.934   0.124   9.324 -0.3813 -0.2562  1.1928
    4CHL1  H23A  282   3.001   0.212   9.312  1.0376 -1.4334  0.3376
    4CHL1  H23B  283   2.988   0.028   9.339  0.4583 -0.3634 -2.2278
    4CHL1   C24  284   2.863   0.108   9.191 -0.1538 -0.0592 -0.3579
    4CHL1  H24A  285   2.779   0.035   9.199  1.4306 -1.7349  1.7286
    4CHL1  H24B  286   2.822   0.198   9.140  0.2141  0.3134  0.0052
    4CHL1   C25  287   2.960   0.051   9.078 -0.0287  0.2193  0.1408
    4CHL1   H25  288   2.995  -0.050   9.108 -0.1486  0.2233  0.2918
    4CHL1   C26  289   2.881   0.029   8.944  0.0040  0.2956  0.1421
    4CHL1  H26A  290   2.929  -0.043   8.873  0.9486 -0.6941  1.7603
    4CHL1  H26B  291   2.780  -0.012   8.965  0.3983 -1.3699 -1.0498
    4CHL1  H26C  292   2.866   0.127   8.895 -0.9866  0.8944  1.6396
    4CHL1   C27  293   3.079   0.143   9.055 -0.2105  0.1732 -0.0026
    4CHL1  H27A  294   3.147   0.106   8.976 -2.1073 -2.1914 -0.5936
    4CHL1  H27B  295   3.041   0.239   9.014  0.3694 -0.1235 -1.2599
    4CHL1  H27C  296   3.139   0.154   9.148  0.1788  0.4091 -0.2843
    5CHL1    C3  297   3.812   4.259  10.112 -0.1413 -0.1659  0.6614
    5CHL1    H3  298   3.781   4.153  10.102 -0.8961  0.1864 -0.9055
    5CHL1    O3  299   3.889   4.268  10.237  0.3038  0.1319 -0.2771
    5CHL1   H3'  300   3.871   4.360  10.257 -1.0479  0.5975 -3.2810
    5CHL1    C4  301   3.907   4.302  10.002  0.0431  0.7774 -0.3328
    5CHL1   H4A  302   3.954   4.399  10.028 -1.9985  2.4465 -2.6087
    5CHL1   H4B  303   3.981   4.219  10.003  0.6563  1.3339  0.7134
    5CHL1    C5  304   3.847   4.321   9.869 -0.1408  0.4792 -0.0709
    5CHL1    C6  305   3.898   4.253   9.767  0.1297  0.2227  0.5848
    5CHL1    H6  306   3.972   4.173   9.785 -0.1863 -0.0152  0.8234
    5CHL1    C7  307   3.847   4.262   9.625  0.3447 -0.3547  0.3365
    5CHL1   H7A  308   3.925   4.295   9.554 -0.4216  2.3235  0.7009
    5CHL1   H7B  309   3.810   4.162   9.594  1.6233 -0.5699 -0.5267
    5CHL1    C8  310   3.745   4.372   9.608  0.0365  0.0478 -0.4322
    5CHL1    H8  311   3.803   4.466   9.596  1.6129 -0.7831  0.4203
    5CHL1   C14  312   3.661   4.339   9.485 -0.5144 -0.1809 -0.8692
    5CHL1   H14  313   3.614   4.241   9.506  0.1806 -0.1149  1.1444
    5CHL1   C15  314   3.744   4.318   9.361  0.7872 -0.0618 -0.6869
    5CHL1  H15A  315   3.814   4.403   9.349  0.0508  0.7887  0.7793
    5CHL1  H15B  316   3.788   4.216   9.368 -0.3163 -0.5528 -0.8514
    5CHL1   C16  317   3.632   4.325   9.248 -0.3171  0.0072  0.5062
    5CHL1  H16A  318   3.678   4.387   9.169  0.8315 -2.3172 -0.7067
    5CHL1  H16B  319   3.601   4.228   9.202  1.2824 -2.1365  3.7187
    5CHL1   C17  320   3.499   4.378   9.310  0.4631 -0.5835  0.3458
    5CHL1   H17  321   3.438   4.288   9.330  0.1925 -0.4222  0.2503
    5CHL1   C13  322   3.543   4.428   9.451  0.8892 -0.1898  0.2829
    5CHL1   C18  323   3.598   4.573   9.431 -0.2090 -0.0619 -0.7719
    5CHL1  H18A  324   3.644   4.611   9.525  1.8328 -1.0405 -1.3535
    5CHL1  H18B  325   3.686   4.570   9.363  0.6189  2.9990  0.1272
    5CHL1  H18C  326   3.517   4.641   9.396 -1.5070 -0.4619  1.3037
    5CHL1   C12  327   3.447   4.412   9.561 -0.5855 -1.4130 -0.5875
    5CHL1  H12A  328   3.353   4.466   9.539  1.1568  1.7803 -0.3631
    5CHL1  H12B  329   3.421   4.305   9.580  0.3162 -1.7453 -1.2058
    5CHL1   C11  330   3.508   4.452   9.700 -0.1817 -0.0148  0.1915
    5CHL1  H11A  331   3.526   4.561   9.710 -0.9392  0.5053 -3.3699
    5CHL1  H11B  332   3.442   4.423   9.785 -2.0268  0.7004 -0.9855
    5CHL1    C9  333   3.648   4.379   9.727  0.0860 -0.1706 -0.1132
    5CHL1    H9  334   3.616   4.272   9.735 -1.1178  0.2678  1.3131
    5CHL1   C10  335   3.720   4.411   9.863  0.3104 -0.7718 -0.7567
    5CHL1   C19  336   3.758   4.561   9.869 -0.3642 -0.5455  0.4518
    5CHL1  H19A  337   3.814   4.586   9.962 -2.3563  2.1089  0.9848
    5CHL1  H19B  338   3.814   4.590   9.778  2.3660  0.5738  2.4043
    5CHL1  H19C  339   3.662   4.616   9.877  0.4865  1.1826 -0.7927
    5CHL1    C1  340   3.628   4.373   9.978  0.2922 -0.1523 -0.1338
    5CHL1   H1A  341   3.554   4.455   9.991  0.6092  0.5348 -2.3855
    5CHL1   H1B  342   3.582   4.273   9.963 -2.5245  0.9251  1.0158
    5CHL1    C2  343   3.701   4.361  10.120  0.3505  1.2747  0.3228
    5CHL1   H2A  344   3.622   4.340  10.195  1.9440 -0.2856  1.6223
    5CHL1   H2B  345   3.744   4.460  10.146  4.6164 -1.1196  3.0599
    5CHL1   C20  346   3.416   4.457   9.214 -0.1539 -0.2768  0.0185
    5CHL1   H20  347   3.469   4.546   9.173 -0.9829 -0.5651 -1.7344
    5CHL1   C21  348   3.278   4.513   9.279  0.0524 -0.4228 -0.2160
    5CHL1  H21A  349   3.217   4.422   9.300  0.4865 -0.9849 -1.3257
    5CHL1  H21B  350   3.209   4.569   9.212 -0.3818 -0.8112 -0.1046
    5CHL1  H21C  351   3.306   4.562   9.374 -3.3844  2.2035 -0.4585
    5CHL1   C22  352   3.383   4.365   9.091  0.2681 -0.0440 -0.1108
    5CHL1  H22A  353   3.483   4.326   9.062  0.0011 -0.1394 -0.9252
    5CHL1  H22B  354   3.325   4.276   9.121  0.3497 -0.1356 -0.2247
    5CHL1   C23  355   3.321   4.429   8.968  0.1577 -0.4364 -0.2309
    5CHL1  H23A  356   3.234   4.485   9.008 -0.1888 -0.1957 -1.3181
    5CHL1  H23B  357   3.392   4.490   8.909  1.8960 -2.5943 -0.4367
    5CHL1   C24  358   3.261   4.326   8.867  0.4162 -0.3728  0.2589
    5CHL1  H24A  359   3.350   4.268   8.833 -0.4916 -1.4448 -0.2988
    5CHL1  H24B  360   3.187   4.268   8.925  0.8061  1.7198  2.9809
    5CHL1   C25  361   3.189   4.396   8.751  0.3281 -0.3741 -0.1005
    5CHL1   H25  362   3.139   4.487   8.790  1.7343  0.6977 -0.7558
    5CHL1   C26  363   3.298   4.441   8.651  0.0186 -0.5001  0.4214
    5CHL1  H26A  364   3.354   4.524   8.701 -1.1507  0.3164  0.3907
    5CHL1  H26B  365   3.366   4.356   8.629  0.2272  0.4152 -2.6117
    5CHL1  H26C  366   3.252   4.478   8.557 -0.3291 -1.9435  0.0173
    5CHL1   C27  367   3.089   4.308   8.688 -0.2088  0.3632  1.0319
    5CHL1  H27A  368   3.049   4.356   8.596  0.7990 -0.3017  0.2332
    5CHL1  H27B  369   3.125   4.209   8.652  0.3785  0.8745  0.2132
    5CHL1  H27C  370   3.003   4.291   8.756 -1.9486  2.0833 -0.6698
    6CHL1    C3  371   1.757   1.637  10.231 -0.2605  0.2645  0.4771
    6CHL1    H3  372   1.858   1.592  10.221 -0.3766 -0.1704  1.2217
    6CHL1    O3  373   1.721   1.639  10.365  0.0673 -0.1270  0.0064
    6CHL1   H3'  374   1.646   1.699  10.374  1.0037  1.3166 -1.3495
    6CHL1    C4  375   1.766   1.782  10.175 -0.7578 -1.0215 -0.6139
    6CHL1   H4A  376   1.673   1.838  10.201 -0.1627 -0.0669 -0.5253
    6CHL1   H4B  377   1.856   1.827  10.222 -0.1925  0.8918 -3.4370
    6CHL1    C5  378   1.775   1.791  10.021 -0.4843  0.3420  0.4691
    6CHL1    C6  379   1.883   1.859   9.967  0.3246 -0.6025  0.0176
    6CHL1    H6  380   1.947   1.920  10.033  0.3102  0.3757 -0.8614
    6CHL1    C7  381   1.915   1.867   9.819  0.0229 -0.0557  0.2147
    6CHL1   H7A  382   1.923   1.976   9.796  0.6986 -0.5196 -1.7906
    6CHL1   H7B  383   2.013   1.820   9.798 -0.7793 -1.2875 -0.8330
    6CHL1    C8  384   1.804   1.805   9.729  0.0569 -0.5253 -0.6041
    6CHL1    H8  385   1.715   1.873   9.729  0.1704 -0.3727 -1.2342
    6CHL1   C14  386   1.871   1.783   9.604 -1.4508  0.3004  0.5277
    6CHL1   H14  387   1.946   1.710   9.639 -3.4798 -0.9121  2.4359
    6CHL1   C15  388   1.950   1.897   9.540 -0.0840 -0.4469 -0.2130
    6CHL1  H15A  389   1.888   1.985   9.566  0.4848 -0.0246 -0.2690
    6CHL1  H15B  390   2.055   1.917   9.571 -0.4800 -1.9296  2.1651
    6CHL1   C16  391   1.953   1.862   9.388  0.5156 -0.3294  0.1892
    6CHL1  H16A  392   1.906   1.949   9.337  1.8015 -0.0534 -0.5461
    6CHL1  H16B  393   2.056   1.845   9.350  0.4639  2.6503 -1.4401
    6CHL1   C17  394   1.870   1.732   9.370  0.2410  0.2630  0.6771
    6CHL1   H17  395   1.945   1.651   9.385 -0.8327 -0.7671  0.5071
    6CHL1   C13  396   1.785   1.720   9.498 -0.3772  0.3322 -0.1722
    6CHL1   C18  397   1.664   1.818   9.467 -0.3889  0.0526 -0.1813
    6CHL1  H18A  398   1.604   1.828   9.560  1.0725  0.1147  0.7719
    6CHL1  H18B  399   1.683   1.924   9.438 -0.6955 -0.2588 -1.5679
    6CHL1  H18C  400   1.596   1.764   9.397  0.5588 -0.1338 -0.9671
    6CHL1   C12  401   1.744   1.583   9.549  0.4841 -0.3413  0.0463
    6CHL1  H12A  402   1.691   1.512   9.482  0.6400 -0.9959  0.6042
    6CHL1  H12B  403   1.839   1.528   9.568 -0.2721 -0.5310  3.7662
    6CHL1   C11  404   1.673   1.592   9.686  0.1272  0.0767  0.5345
    6CHL1  H11A  405   1.576   1.644   9.670  0.8452  2.0536  2.4193
    6CHL1  H11B  406   1.651   1.491   9.725 -0.1586  1.9931  5.7241
    6CHL1    C9  407   1.755   1.673   9.787 -0.4762  0.0039  0.4133
    6CHL1    H9  408   1.843   1.608   9.810  0.6175  0.3935 -2.4375
    6CHL1   C10  409   1.693   1.692   9.933  0.3446 -0.5546 -0.3875
    6CHL1   C19  410   1.541   1.727   9.921  0.2143  0.0916  0.0926
    6CHL1  H19A  411   1.483   1.639   9.887 -1.9378  2.2479 -2.0903
    6CHL1  H19B  412   1.504   1.765  10.019 -0.8199  1.1777 -0.6883
    6CHL1  H19C  413   1.518   1.809   9.848 -1.1822 -1.5230 -1.3279
    6CHL1    C1  414   1.702   1.554  10.000  0.3550  0.1502  0.0523
    6CHL1   H1A  415   1.638   1.479   9.949  1.7249 -1.5645  0.8029
    6CHL1   H1B  416   1.807   1.519  10.004 -0.0353 -0.9065  1.0157
    6CHL1    C2  417   1.655   1.552  10.152  0.0356 -0.0543  1.3770
    6CHL1   H2A  418   1.661   1.447  10.188 -0.6415 -0.0305  1.5491
    6CHL1   H2B  419   1.552   1.592  10.154 -0.4946 -1.4489  2.8036
    6CHL1   C20  420   1.815   1.716   9.230 -0.3510  0.3294  0.0346
    6CHL1   H20  421   1.741   1.795   9.205 -0.7781 -0.2465 -0.5615
    6CHL1   C21  422   1.726   1.586   9.213 -0.1457 -0.2981 -0.1545
    6CHL1  H21A  423   1.767   1.489   9.250  0.6770 -1.6061 -4.2418
    6CHL1  H21B  424   1.707   1.566   9.105 -2.3850 -0.7177  0.2769
    6CHL1  H21C  425   1.623   1.598   9.252 -0.5262 -0.3782 -1.1075
    6CHL1   C22  426   1.919   1.727   9.120  0.2379  0.3097 -0.2685
    6CHL1  H22A  427   1.871   1.731   9.020  2.7045 -1.0834 -1.5468
    6CHL1  H22B  428   1.973   1.824   9.124  0.5357  0.1249  0.2785
    6CHL1   C23  429   2.015   1.607   9.115 -0.1622 -0.1157  0.2820
    6CHL1  H23A  430   2.061   1.595   9.216  1.7309  0.4033 -0.5089
    6CHL1  H23B  431   1.951   1.520   9.091  0.2435 -0.1951 -0.5377
    6CHL1   C24  432   2.133   1.626   9.021  0.3761 -0.1689 -0.0664
    6CHL1  H24A  433   2.100   1.608   8.916  0.4100  3.0349 -0.6925
    6CHL1  H24B  434   2.161   1.734   9.024 -1.8921  0.3990  1.8788
    6CHL1   C25  435   2.258   1.538   9.046 -0.1487  0.3040 -0.8907
    6CHL1   H25  436   2.299   1.579   9.141  1.4568  0.9687 -1.8332
    6CHL1   C26  437   2.235   1.384   9.049 -0.4935 -0.4336 -0.0614
    6CHL1  H26A  438   2.168   1.366   9.135 -1.3497  0.8030 -0.4579
    6CHL1  H26B  439   2.202   1.351   8.948  0.5418  0.1830 -0.6139
    6CHL1  H26C  440   2.335   1.340   9.069  0.0421  0.0453 -1.5386
    6CHL1   C27  441   2.377   1.571   8.954 -0.5280  0.4994  0.1334
    6CHL1  H27A  442   2.355   1.546   8.848  2.0692  0.6093 -0.4487
    6CHL1  H27B  443   2.405   1.678   8.959 -0.3809  0.4950 -0.5282
    6CHL1  H27C  444   2.458   1.501   8.984  0.3542  1.8692  0.9733
    7CHL1    C3  445   4.617   5.531  10.387  0.7960 -0.7721  0.5072
    7CHL1    H3  446   4.632   5.639  10.362  1.7345 -0.4739  2.2997
    7CHL1    O3  447   4.612   5.523  10.527 -0.3239  0.1737  0.6382
    7CHL1   H3'  448   4.530   5.474  10.532  1.3325 -2.8222 -0.1716
    7CHL1    C4  449   4.484   5.480  10.313 -0.2620 -0.2437 -0.6560
    7CHL1   H4A  450   4.457   5.379  10.350  0.2400 -0.2201 -0.2178
    7CHL1   H4B  451   4.401   5.549  10.340 -0.0793 -0.2660 -0.0293
    7CHL1    C5  452   4.504   5.488  10.169 -0.7695 -0.3469 -0.3605
    7CHL1    C6  453   4.419   5.560  10.090  0.1982 -0.1456 -0.4165
    7CHL1    H6  454   4.332   5.610  10.134 -1.4230 -4.6407  1.7955
    7CHL1    C7  455   4.421   5.543   9.940 -0.8364 -0.1659  0.2210
    7CHL1   H7A  456   4.321   5.512   9.904 -0.9555  0.9677 -0.4306
    7CHL1   H7B  457   4.453   5.641   9.899  0.1727  0.2174  1.8678
    7CHL1    C8  458   4.522   5.443   9.881  0.9408  0.0276 -0.9027
    7CHL1    H8  459   4.476   5.342   9.891 -3.0677  2.0028  1.4634
    7CHL1   C14  460   4.549   5.471   9.732  0.3934 -1.0061  0.5353
    7CHL1   H14  461   4.605   5.567   9.738  0.0797 -0.7946  0.0707
    7CHL1   C15  462   4.426   5.499   9.646  0.2207 -0.1395  0.6075
    7CHL1  H15A  463   4.349   5.424   9.674  0.9128 -1.0119  0.2325
    7CHL1  H15B  464   4.381   5.597   9.670  0.6719  0.3027 -0.3307
    7CHL1   C16  465   4.475   5.475   9.498  0.2547  0.1486 -0.4881
    7CHL1  H16A  466   4.406   5.407   9.445 -2.8319  1.3302  1.8534
    7CHL1  H16B  467   4.479   5.573   9.444  2.2489  0.3692 -0.0104
    7CHL1   C17  468   4.617   5.427   9.510 -0.8667  0.0096 -0.2393
    7CHL1   H17  469   4.672   5.522   9.493  0.7601 -0.3686  2.5517
    7CHL1   C13  470   4.640   5.377   9.658 -0.5082 -0.5428 -0.1158
    7CHL1   C18  471   4.593   5.234   9.658  0.1891 -0.3248 -0.2839
    7CHL1  H18A  472   4.669   5.171   9.607 -0.9108 -0.0595 -2.3053
    7CHL1  H18B  473   4.585   5.199   9.763 -1.1696  1.1648  0.1267
    7CHL1  H18C  474   4.492   5.226   9.612 -0.1002 -2.6357  0.6750
    7CHL1   C12  475   4.776   5.379   9.733  0.1882  0.1268  0.6338
    7CHL1  H12A  476   4.846   5.307   9.685  0.1308  0.1432  0.5237
    7CHL1  H12B  477   4.818   5.482   9.721  2.5053 -0.9728 -1.0962
    7CHL1   C11  478   4.761   5.356   9.883 -0.2012 -0.4800 -1.0781
    7CHL1  H11A  479   4.732   5.249   9.893 -0.8727 -0.0417  2.2984
    7CHL1  H11B  480   4.863   5.382   9.918 -1.3982  3.5262 -0.2605
    7CHL1    C9  481   4.654   5.447   9.957 -0.1640  0.5672 -0.5907
    7CHL1    H9  482   4.694   5.550   9.942 -1.4164  1.1638  0.1640
    7CHL1   C10  483   4.632   5.415  10.110  0.0821 -0.4308  0.3589
    7CHL1   C19  484   4.607   5.259  10.120 -0.6675  0.3117 -0.0281
    7CHL1  H19A  485   4.703   5.209  10.096  0.6482  2.3186  1.0132
    7CHL1  H19B  486   4.580   5.220  10.220  1.5444  0.2248  0.5454
    7CHL1  H19C  487   4.531   5.226  10.045 -1.5549  0.4479  0.7967
    7CHL1    C1  488   4.756   5.458  10.184  0.1966 -1.2147  0.6056
    7CHL1   H1A  489   4.837   5.397  10.139  0.4842 -0.2165 -0.2376
    7CHL1   H1B  490   4.776   5.564  10.159  0.0678 -1.4863 -0.6539
    7CHL1    C2  491   4.742   5.457  10.334  0.6435  0.2280 -0.6226
    7CHL1   H2A  492   4.830   5.497  10.390 -0.0185  1.5025 -0.4730
    7CHL1   H2B  493   4.734   5.353  10.370 -0.9715  0.9211  1.1164
    7CHL1   C20  494   4.672   5.331   9.392 -0.1286  0.0397 -0.1545
    7CHL1   H20  495   4.659   5.224   9.417  1.1960  0.1332  0.9445
    7CHL1   C21  496   4.819   5.354   9.383 -0.3909 -0.8072  0.2772
    7CHL1  H21A  497   4.870   5.298   9.302  1.8681 -1.7090  2.2986
    7CHL1  H21B  498   4.864   5.316   9.477  0.8439  1.2523  0.5523
    7CHL1  H21C  499   4.833   5.464   9.372  0.1904 -1.1776 -3.4909
    7CHL1   C22  500   4.609   5.362   9.262  0.4902  0.6910 -0.1196
    7CHL1  H22A  501   4.499   5.377   9.259  0.4869  0.9194  0.9199
    7CHL1  H22B  502   4.650   5.461   9.232 -0.9612  0.6665 -2.2692
    7CHL1   C23  503   4.655   5.265   9.155  0.7467 -0.7281 -0.6531
    7CHL1  H23A  504   4.761   5.280   9.124  0.7754  0.6073  0.0605
    7CHL1  H23B  505   4.656   5.159   9.189  1.4284 -0.8382 -0.9945
    7CHL1   C24  506   4.568   5.291   9.029  0.5690  0.0683 -0.2259
    7CHL1  H24A  507   4.573   5.198   8.968 -0.3120 -0.5704  0.6496
    7CHL1  H24B  508   4.465   5.289   9.069  0.3367 -1.3241 -0.8662
    7CHL1   C25  509   4.599   5.416   8.956  0.6120 -0.1107 -0.0330
    7CHL1   H25  510   4.600   5.500   9.029  2.5100  0.7728 -1.0390
    7CHL1   C26  511   4.732   5.410   8.877  0.2317  0.8847 -0.4870
    7CHL1  H26A  512   4.823   5.415   8.940 -0.7428  1.7125  0.8891
    7CHL1  H26B  513   4.725   5.314   8.821 -0.7699 -0.0165  1.1455
    7CHL1  H26C  514   4.730   5.488   8.798  0.0865 -1.3008 -2.7196
    7CHL1   C27  515   4.484   5.453   8.851 -0.1012  0.2572  0.4216
    7CHL1  H27A  516   4.503   5.554   8.810  2.1108 -0.1893  0.2895
    7CHL1  H27B  517   4.490   5.381   8.766  0.7792  1.0555 -0.2019
    7CHL1  H27C  518   4.381   5.450   8.891 -0.8271 -0.6230 -1.4221
    8CHL1    C3  519   4.497   0.065  10.401 -0.0305 -0.6361 -0.2984
    8CHL1    H3  520   4.395   0.108  10.413  0.9079  1.4058  0.6596
    8CHL1    O3  521   4.548   0.053  10.532  0.0681  0.4359 -0.8421
    8CHL1   H3'  522   4.475   0.074  10.592  1.3809  1.2474  0.5119
    8CHL1    C4  523   4.494  -0.078  10.344  0.0466 -0.2647 -0.2497
    8CHL1   H4A  524   4.590  -0.124  10.374 -0.7184 -1.5010  0.3305
    8CHL1   H4B  525   4.415  -0.124  10.407  0.0590 -3.2674 -2.3679
    8CHL1    C5  526   4.465  -0.087  10.191 -0.6556 -0.0406  0.2285
    8CHL1    C6  527   4.359  -0.163  10.147  0.3656  0.1630  0.1448
    8CHL1    H6  528   4.297  -0.211  10.225 -0.5402  1.1285  0.0272
    8CHL1    C7  529   4.317  -0.172   9.999 -0.2372 -0.4376 -0.3129
    8CHL1   H7A  530   4.294  -0.276   9.967  2.4499 -0.9899 -0.5778
    8CHL1   H7B  531   4.221  -0.120   9.979 -0.4468 -0.3654  0.8219
    8CHL1    C8  532   4.437  -0.122   9.904  0.2853  0.6916 -0.5154
    8CHL1    H8  533   4.523  -0.192   9.912  0.5911  1.0150 -0.9286
    8CHL1   C14  534   4.387  -0.106   9.764 -0.0640  0.2557 -0.1956
    8CHL1   H14  535   4.310  -0.026   9.764  0.1265  0.4428 -0.5053
    8CHL1   C15  536   4.330  -0.231   9.706  0.0796  0.3892  0.2250
    8CHL1  H15A  537   4.408  -0.310   9.703 -0.3572  0.0003 -2.9306
    8CHL1  H15B  538   4.239  -0.270   9.757  1.2300 -3.6773 -0.6338
    8CHL1   C16  539   4.302  -0.193   9.560  0.2709 -0.1580  0.2554
    8CHL1  H16A  540   4.324  -0.277   9.490 -0.0741  1.1681 -1.4676
    8CHL1  H16B  541   4.199  -0.156   9.540 -0.0807 -0.7808  0.8797
    8CHL1   C17  542   4.405  -0.079   9.529 -0.3352 -0.5812  0.5942
    8CHL1   H17  543   4.333   0.006   9.531  0.0571 -0.2420  0.3624
    8CHL1   C13  544   4.493  -0.062   9.654 -0.0399 -1.1311 -0.4849
    8CHL1   C18  545   4.608  -0.165   9.645  0.0929 -0.1972  0.2560
    8CHL1  H18A  546   4.585  -0.262   9.595 -0.5463  0.1407 -0.1025
    8CHL1  H18B  547   4.693  -0.114   9.595 -0.0288 -2.2581 -2.1405
    8CHL1  H18C  548   4.647  -0.198   9.744 -0.8257  1.0647  1.0510
    8CHL1   C12  549   4.544   0.079   9.701  0.6518 -0.3116 -0.2487
    8CHL1  H12A  550   4.624   0.136   9.648  1.8556  0.1072  1.9423
    8CHL1  H12B  551   4.454   0.143   9.707  0.0158 -0.9754 -2.5790
    8CHL1   C11  552   4.596   0.070   9.850  0.1180 -0.4365  0.0353
    8CHL1  H11A  553   4.698   0.027   9.842  0.0892 -0.6016  0.5078
    8CHL1  H11B  554   4.601   0.176   9.881  1.6192 -0.5395  0.1440
    8CHL1    C9  555   4.494   0.010   9.955  0.2908  0.9845  0.4132
    8CHL1    H9  556   4.408   0.080   9.963  1.3077  2.3866 -0.6002
    8CHL1   C10  557   4.545   0.002  10.102  0.5771  0.1209 -0.0133
    8CHL1   C19  558   4.688  -0.056  10.105  0.2076 -0.1945 -0.0029
    8CHL1  H19A  559   4.754   0.021  10.060 -1.5830  0.5760 -1.4229
    8CHL1  H19B  560   4.728  -0.079  10.205  0.5251  0.7422  0.0890
    8CHL1  H19C  561   4.697  -0.142  10.034  2.0844  0.1788 -0.2320
    8CHL1    C1  562   4.547   0.149  10.163 -0.4684 -0.2456  0.1873
    8CHL1   H1A  563   4.613   0.217  10.106  0.4420  0.8674  2.5154
    8CHL1   H1B  564   4.442   0.186  10.161 -0.1110  0.7383 -0.7905
    8CHL1    C2  565   4.585   0.151  10.313 -0.2020  0.1745 -0.0966
    8CHL1   H2A  566   4.578   0.257  10.344  1.8904  0.8329 -1.7345
    8CHL1   H2B  567   4.689   0.117  10.331 -0.2465 -1.6880 -2.9352
    8CHL1   C20  568   4.464  -0.083   9.387 -0.1805 -0.2134  0.2486
    8CHL1   H20  569   4.532  -0.171   9.382  1.6346  1.2177 -0.8140
    8CHL1   C21  570   4.542   0.056   9.377  0.6396  0.3132  0.1515
    8CHL1  H21A  571   4.480   0.144   9.406  3.1506  2.0511  0.3911
    8CHL1  H21B  572   4.575   0.068   9.271 -2.0217  0.5799 -0.6965
    8CHL1  H21C  573   4.627   0.049   9.448  1.2245 -1.7315 -0.6985
    8CHL1   C22  574   4.353  -0.102   9.283 -0.0150 -0.4123  1.1385
    8CHL1  H22A  575   4.286  -0.189   9.303 -0.7564 -0.1607 -0.2328
    8CHL1  H22B  576   4.295  -0.007   9.284 -0.3320 -0.6046  1.6340
    8CHL1   C23  577   4.413  -0.116   9.145  0.2197  0.0651  0.5097
    8CHL1  H23A  578   4.442  -0.010   9.128  0.5166  0.0214  0.7393
    8CHL1  H23B  579   4.500  -0.183   9.141 -0.0934 -0.2999 -0.3183
    8CHL1   C24  580   4.314  -0.160   9.040  1.3023  0.5391 -0.4310
    8CHL1  H24A  581   4.269  -0.258   9.066  1.6619  0.4762 -0.0462
    8CHL1  H24B  582   4.219  -0.102   9.041 -0.3120 -2.0587  2.3830
    8CHL1   C25  583   4.376  -0.181   8.900 -0.5167  0.8033 -0.1401
    8CHL1   H25  584   4.476  -0.223   8.923 -0.2676  1.2774 -0.3481
    8CHL1   C26  585   4.302  -0.293   8.829  0.9163 -0.4571  0.6524
    8CHL1  H26A  586   4.297  -0.385   8.890 -2.5630 -1.3365 -0.8050
    8CHL1  H26B  587   4.196  -0.264   8.810  0.5487  0.2345  3.5779
    8CHL1  H26C  588   4.355  -0.319   8.734  3.1834  1.2698  1.3885
    8CHL1   C27  589   4.380  -0.054   8.811 -0.2484  0.3262 -0.8959
    8CHL1  H27A  590   4.443   0.026   8.854 -2.1172  0.4230  1.7610
    8CHL1  H27B  591   4.403  -0.084   8.706 -1.5666 -0.4097 -0.9923
    8CHL1  H27C  592   4.276  -0.014   8.815 -0.2203  0.7921 -3.4741
    9CHL1    C3  593   0.978   3.211  10.150  0.0695  0.2470 -0.2355
    9CHL1    H3  594   1.061   3.259  10.095 -1.4364  2.0904 -0.9448
    9CHL1    O3  595   0.986   3.231  10.288 -0.4432 -0.2775  0.0634
    9CHL1   H3'  596   0.995   3.143  10.327  2.1081 -0.0294  0.1598
    9CHL1    C4  597   0.849   3.262  10.092  0.3926  0.2301 -0.6152
    9CHL1   H4A  598   0.766   3.210  10.146  0.7558 -1.6084 -1.7761
    9CHL1   H4B  599   0.838   3.366  10.128 -0.6600 -0.2468  0.4858
    9CHL1    C5  600   0.826   3.239   9.943  0.1932  0.2505  0.0625
    9CHL1    C6  601   0.826   3.351   9.864 -0.0221 -0.4260  0.1028
    9CHL1    H6  602   0.831   3.449   9.914 -2.6249 -0.8872  1.3538
    9CHL1    C7  603   0.827   3.345   9.713  0.0375 -0.3797 -0.4700
    9CHL1   H7A  604   0.736   3.397   9.676  0.2353 -0.3016 -0.8475
    9CHL1   H7B  605   0.921   3.391   9.677 -0.0130  1.2488  1.4049
    9CHL1    C8  606   0.807   3.198   9.660  0.4983  0.5963 -0.7678
    9CHL1    H8  607   0.701   3.175   9.684  0.9088 -0.1268  0.3900
    9CHL1   C14  608   0.847   3.198   9.507  0.6267  0.7492 -0.0954
    9CHL1   H14  609   0.955   3.223   9.502  1.1142 -0.9696  1.4777
    9CHL1   C15  610   0.786   3.304   9.412 -0.4259  0.2420 -0.6377
    9CHL1  H15A  611   0.676   3.302   9.433 -0.0720 -1.1263  1.2029
    9CHL1  H15B  612   0.831   3.405   9.423  0.0895 -0.0959  0.4577
    9CHL1   C16  613   0.823   3.252   9.272  0.2647  0.5308  0.3197
    9CHL1  H16A  614   0.744   3.265   9.195 -0.9356 -0.5983  1.3440
    9CHL1  H16B  615   0.912   3.315   9.249  1.1883 -0.4063  1.2531
    9CHL1   C17  616   0.867   3.110   9.292 -0.1094 -0.3317  0.0799
    9CHL1   H17  617   0.978   3.122   9.298  0.2890 -3.8133  0.8879
    9CHL1   C13  618   0.827   3.064   9.435 -0.0203 -0.3859  0.5708
    9CHL1   C18  619   0.678   3.022   9.431  0.2382  0.3035  0.0276
    9CHL1  H18A  620   0.667   2.921   9.386  1.4874 -0.6214  1.7287
    9CHL1  H18B  621   0.633   3.020   9.532 -2.1285  0.5670 -0.9987
    9CHL1  H18C  622   0.617   3.085   9.363 -0.3422 -0.1160  0.1580
    9CHL1   C12  623   0.913   2.967   9.513  0.1338  1.0945  0.4454
    9CHL1  H12A  624   0.895   2.864   9.475  0.6361  0.8925  0.7559
    9CHL1  H12B  625   1.016   3.006   9.496 -0.0153  0.4279 -2.3018
    9CHL1   C11  626   0.893   2.957   9.666 -0.6082  0.1950  0.7959
    9CHL1  H11A  627   0.795   2.906   9.680 -2.0166  2.3380 -0.8323
    9CHL1  H11B  628   0.969   2.885   9.703  0.6899  1.5493  0.8078
    9CHL1    C9  629   0.892   3.098   9.742  0.0613 -0.0635 -0.2231
    9CHL1    H9  630   0.996   3.136   9.731  0.8060 -2.3789 -1.4556
    9CHL1   C10  631   0.858   3.098   9.894  0.7777  0.1909  0.4052
    9CHL1   C19  632   0.734   3.009   9.909 -0.2081 -0.4984  0.2376
    9CHL1  H19A  633   0.645   3.047   9.853  0.6110  1.0602 -0.0371
    9CHL1  H19B  634   0.743   2.900   9.890 -0.4527 -0.3800 -0.6132
    9CHL1  H19C  635   0.705   2.997  10.015 -1.5198 -1.0564 -0.1672
    9CHL1    C1  636   0.974   3.036   9.975  0.7721 -1.1121  0.2712
    9CHL1   H1A  637   0.961   2.926   9.962 -1.5061 -0.6950 -1.4104
    9CHL1   H1B  638   1.073   3.071   9.938 -0.1964  0.8678 -0.5415
    9CHL1    C2  639   0.969   3.054  10.125 -0.0339 -0.0259  0.2191
    9CHL1   H2A  640   1.048   3.005  10.185 -1.0747 -2.8317 -0.6447
    9CHL1   H2B  641   0.874   3.019  10.170  0.3896  0.0633  1.1727
    9CHL1   C20  642   0.847   3.017   9.172  0.3298 -0.2987  0.1735
    9CHL1   H20  643   0.737   3.000   9.161 -0.1907  1.8365  1.6834
    9CHL1   C21  644   0.914   2.882   9.193 -0.4528  0.2574 -0.0646
    9CHL1  H21A  645   0.840   2.809   9.233 -0.3124 -1.0368 -2.0749
    9CHL1  H21B  646   1.002   2.886   9.262 -0.5715 -0.8426  0.1732
    9CHL1  H21C  647   0.956   2.830   9.104  0.2735 -1.5139  1.2660
    9CHL1   C22  648   0.903   3.078   9.041 -0.1362  0.4088  0.0912
    9CHL1  H22A  649   0.884   3.007   8.957  1.1381  2.6049 -2.0956
    9CHL1  H22B  650   0.844   3.168   9.014  1.3250  1.3157 -0.0829
    9CHL1   C23  651   1.052   3.111   9.033 -0.2372  0.3959 -0.3950
    9CHL1  H23A  652   1.091   3.171   9.118 -0.8865  3.0751 -1.9026
    9CHL1  H23B  653   1.111   3.018   9.022 -0.8132 -0.0968  0.6639
    9CHL1   C24  654   1.085   3.204   8.910  0.4583  0.6456 -0.1495
    9CHL1  H24A  655   1.036   3.303   8.917 -0.7384 -0.1009  2.4714
    9CHL1  H24B  656   1.192   3.233   8.915  1.5910 -3.3375  0.2902
    9CHL1   C25  657   1.046   3.161   8.768  0.3956  0.0601  0.2549
    9CHL1   H25  658   0.936   3.163   8.755  0.6958 -1.0599 -3.0956
    9CHL1   C26  659   1.107   3.259   8.670  0.1280 -0.2273 -0.0602
    9CHL1  H26A  660   1.213   3.284   8.691  0.0143 -0.0611  0.3123
    9CHL1  H26B  661   1.106   3.222   8.565  3.4840 -0.4813 -0.0411
    9CHL1  H26C  662   1.039   3.347   8.675  0.9887  0.5128 -1.1890
    9CHL1   C27  663   1.070   3.008   8.737  0.2759 -0.0145 -0.3656
    9CHL1  H27A  664   1.014   2.981   8.645  1.2269  0.8988 -1.2175
    9CHL1  H27B  665   1.180   2.997   8.726  0.4463 -0.4948  1.5634
    9CHL1  H27C  666   1.026   2.945   8.817  1.9333 -0.0157  0.5634
   10CHL1    C3  667   6.548   0.133  10.115  0.0068 -0.3940 -0.0890
   10CHL1    H3  668   6.541   0.022  10.109 -0.1342 -0.4945  1.5034
   10CHL1    O3  669   6.605   0.170  10.243 -0.5643 -0.0591  0.4293
   10CHL1   H3'  670   6.623   0.264  10.237  1.8658 -0.4901  0.5364
   10CHL1    C4  671   6.645   0.184  10.011 -0.1712  0.2479  0.2681
   10CHL1   H4A  672   6.668   0.292  10.014 -0.5887  0.3785 -0.8983
   10CHL1   H4B  673   6.739   0.127  10.027  0.2846  0.4115 -1.6657
   10CHL1    C5  674   6.591   0.151   9.871 -0.4594 -0.0477  0.0637
   10CHL1    C6  675   6.657   0.076   9.781 -0.1090 -0.3710  0.1491
   10CHL1    H6  676   6.756   0.036   9.805 -0.4303 -0.7910  0.8126
   10CHL1    C7  677   6.612   0.045   9.644 -0.2101  0.2141 -0.1770
   10CHL1   H7A  678   6.702   0.065   9.582  0.3300  1.3746  0.9534
   10CHL1   H7B  679   6.591  -0.063   9.628  0.2424  0.4979 -2.9275
   10CHL1    C8  680   6.501   0.142   9.606  0.2862 -0.1578  0.1893
   10CHL1    H8  681   6.540   0.242   9.577  1.1346 -0.8108 -0.9611
   10CHL1   C14  682   6.435   0.086   9.477 -0.0450 -0.0884  0.1642
   10CHL1   H14  683   6.390  -0.012   9.503 -2.5867  0.4472 -1.9413
   10CHL1   C15  684   6.533   0.071   9.362 -0.4416 -0.1920 -0.7966
   10CHL1  H15A  685   6.609   0.152   9.355 -1.8599  1.0551 -2.3421
   10CHL1  H15B  686   6.592  -0.023   9.357 -0.7948 -0.4192 -0.6416
   10CHL1   C16  687   6.437   0.071   9.240  0.5445  0.1698 -0.3803
   10CHL1  H16A  688   6.457   0.162   9.180  2.6803 -0.2683 -0.3643
   10CHL1  H16B  689   6.451  -0.022   9.181  0.7661 -0.7701  1.1186
   10CHL1   C17  690   6.297   0.085   9.297  0.2469 -0.2325 -0.2399
   10CHL1   H17  691   6.260  -0.015   9.328 -0.8370  0.7732  1.8265
   10CHL1   C13  692   6.318   0.167   9.428  0.2687 -1.2202  0.3689
   10CHL1   C18  693   6.352   0.322   9.397  0.8641  0.2895 -0.4716
   10CHL1  H18A  694   6.255   0.375   9.407  0.8169  0.0385  0.4809
   10CHL1  H18B  695   6.429   0.371   9.461  1.2091 -0.1001 -0.5824
   10CHL1  H18C  696   6.390   0.319   9.293 -1.5514 -1.4734 -1.3457
   10CHL1   C12  697   6.205   0.170   9.536 -0.6037  0.2557  0.0247
   10CHL1  H12A  698   6.115   0.231   9.511 -1.5433 -0.3096  1.8900
   10CHL1  H12B  699   6.163   0.069   9.553 -1.9951  0.7803 -0.1760
   10CHL1   C11  700   6.263   0.227   9.666 -0.1461 -0.2537  0.7659
   10CHL1  H11A  701   6.277   0.336   9.653  0.6949 -0.4531 -0.0469
   10CHL1  H11B  702   6.187   0.216   9.747 -0.5382 -0.6940  0.3429
   10CHL1    C9  703   6.394   0.161   9.718  0.6765 -0.9116  0.1947
   10CHL1    H9  704   6.360   0.057   9.736  0.6960 -1.1199 -0.9284
   10CHL1   C10  705   6.449   0.208   9.849  0.2760  0.1588  0.6370
   10CHL1   C19  706   6.463   0.365   9.840 -0.3311  0.2021  0.6080
   10CHL1  H19A  707   6.370   0.408   9.796 -2.2045 -3.0548  1.2074
   10CHL1  H19B  708   6.479   0.415   9.938 -2.9788 -0.8820  1.6633
   10CHL1  H19C  709   6.532   0.398   9.759 -1.4969 -1.2647 -1.0201
   10CHL1    C1  710   6.350   0.171   9.959  0.4590  0.3941  0.4132
   10CHL1   H1A  711   6.252   0.224   9.952 -0.0813 -0.7328 -0.8575
   10CHL1   H1B  712   6.331   0.062   9.946  1.6889  0.0093  1.7625
   10CHL1    C2  713   6.407   0.190  10.097 -0.4152 -0.9589  0.0916
   10CHL1   H2A  714   6.345   0.150  10.180  0.3389  1.0581  1.6717
   10CHL1   H2B  715   6.411   0.299  10.117 -1.0703 -0.6379 -1.4311
   10CHL1   C20  716   6.198   0.134   9.184  0.4341 -0.0784  0.9009
   10CHL1   H20  717   6.207   0.244   9.171  0.2328 -0.1929 -0.2690
   10CHL1   C21  718   6.051   0.100   9.230 -0.2646  0.2581 -0.0915
   10CHL1  H21A  719   5.979   0.154   9.165 -0.8002  0.0118  0.2910
   10CHL1  H21B  720   6.033   0.117   9.339  1.9261  0.1851  0.3131
   10CHL1  H21C  721   6.034  -0.009   9.234 -2.2567  0.5083 -1.2265
   10CHL1   C22  722   6.224   0.075   9.049 -0.1222 -0.3042 -0.0224
   10CHL1  H22A  723   6.330   0.066   9.017  0.2281 -0.2445  1.1064
   10CHL1  H22B  724   6.174  -0.023   9.034 -0.0362 -0.1389 -1.4642
   10CHL1   C23  725   6.160   0.165   8.937  0.0695  0.3139 -0.1286
   10CHL1  H23A  726   6.050   0.159   8.947  0.3642 -2.5607  2.2655
   10CHL1  H23B  727   6.198   0.268   8.954  0.4605  0.3425 -1.1499
   10CHL1   C24  728   6.198   0.135   8.797  0.5122  0.3061  0.1737
   10CHL1  H24A  729   6.308   0.142   8.782  1.2050 -3.6720  2.6799
   10CHL1  H24B  730   6.187   0.027   8.775  0.3296  0.6012 -1.3150
   10CHL1   C25  731   6.113   0.218   8.703  1.0379  0.1187  0.4261
   10CHL1   H25  732   6.018   0.248   8.752  0.8663  2.8225 -1.4696
   10CHL1   C26  733   6.162   0.357   8.663  0.6798 -0.6084  0.2608
   10CHL1  H26A  734   6.175   0.418   8.755  0.5092  0.0300 -0.1329
   10CHL1  H26B  735   6.259   0.346   8.610  1.0165  3.7348 -0.1740
   10CHL1  H26C  736   6.076   0.403   8.610  0.7653 -1.4376 -0.6076
   10CHL1   C27  737   6.080   0.140   8.572  0.1828 -0.3155 -0.1854
   10CHL1  H27A  738   6.011   0.200   8.508 -0.9859 -2.8261 -1.3427
   10CHL1  H27B  739   6.166   0.095   8.520 -0.5498 -1.4179 -0.4594
   10CHL1  H27C  740   6.020   0.054   8.609  1.5552 -0.1681  2.4975
   11CHL1    C3  741   2.251   3.571  10.018  0.7453 -0.9753  0.2943
   11CHL1    H3  742   2.164   3.503  10.009 -0.1044  0.2612 -1.1228
   11CHL1    O3  743   2.270   3.585  10.154  0.6251 -0.5131 -0.2724
   11CHL1   H3'  744   2.364   3.604  10.165  0.0958  0.8498  2.2225
   11CHL1    C4  745   2.372   3.528   9.940 -0.2763 -0.2397  0.0750
   11CHL1   H4A  746   2.455   3.602   9.939 -0.0224 -0.5056  1.0239
   11CHL1   H4B  747   2.411   3.437   9.990  0.9930 -0.8732 -1.9954
   11CHL1    C5  748   2.335   3.513   9.792  0.2652 -0.3266 -0.1505
   11CHL1    C6  749   2.349   3.400   9.720 -0.3247 -0.0788  0.6056
   11CHL1    H6  750   2.381   3.310   9.775 -1.1776 -0.6416  0.1971
   11CHL1    C7  751   2.330   3.388   9.571 -1.3067  0.4459 -0.1395
   11CHL1   H7A  752   2.423   3.342   9.533 -0.4484  1.0423  1.1914
   11CHL1   H7B  753   2.248   3.316   9.548 -0.8301 -0.0516 -0.2763
   11CHL1    C8  754   2.314   3.522   9.507  0.5016 -0.9758  0.2881
   11CHL1    H8  755   2.414   3.564   9.483  1.1654 -1.1852  2.5356
   11CHL1   C14  756   2.239   3.499   9.379  0.3720 -0.3765  0.1111
   11CHL1   H14  757   2.141   3.457   9.411 -1.3332  1.3377 -2.6501
   11CHL1   C15  758   2.299   3.406   9.273 -0.0513  0.2011 -0.3681
   11CHL1  H15A  759   2.405   3.434   9.260 -0.0161 -0.2898 -1.1411
   11CHL1  H15B  760   2.306   3.296   9.291 -1.2333  0.5708  2.6629
   11CHL1   C16  761   2.231   3.441   9.138 -0.0778 -0.2883 -0.1249
   11CHL1  H16A  762   2.312   3.465   9.065 -2.3118  1.9535 -1.9534
   11CHL1  H16B  763   2.172   3.356   9.098 -0.1890 -0.0696 -0.4269
   11CHL1   C17  764   2.139   3.560   9.181 -1.0236  0.3089  0.3497
   11CHL1   H17  765   2.050   3.512   9.226 -0.1393 -1.6389  0.0726
   11CHL1   C13  766   2.208   3.628   9.300  0.1351 -0.0410 -0.0611
   11CHL1   C18  767   2.336   3.698   9.248 -0.2632 -0.0735  0.4725
   11CHL1  H18A  768   2.308   3.768   9.166 -1.1863 -1.5542 -0.4862
   11CHL1  H18B  769   2.391   3.742   9.334 -0.5832 -0.6662  0.9826
   11CHL1  H18C  770   2.401   3.623   9.198 -0.5262  0.1829 -0.2637
   11CHL1   C12  771   2.115   3.715   9.388  0.3965 -0.1963  0.1019
   11CHL1  H12A  772   2.087   3.802   9.326 -2.0299  0.2767  1.7890
   11CHL1  H12B  773   2.020   3.658   9.402 -0.3444  0.2284 -2.7644
   11CHL1   C11  774   2.187   3.746   9.517 -0.1106 -0.0672  0.1468
   11CHL1  H11A  775   2.282   3.803   9.501  0.8649 -1.2958  1.4042
   11CHL1  H11B  776   2.118   3.810   9.577  1.5675  0.0264  2.0736
   11CHL1    C9  777   2.230   3.613   9.591  0.1679  0.1538 -0.1841
   11CHL1    H9  778   2.138   3.554   9.610 -0.0157  0.1869 -0.9563
   11CHL1   C10  779   2.283   3.641   9.733 -0.0720 -0.1496 -0.3148
   11CHL1   C19  780   2.393   3.742   9.723  0.0945  0.4090 -0.3424
   11CHL1  H19A  781   2.471   3.698   9.658  1.0332  0.5711  0.6551
   11CHL1  H19B  782   2.360   3.837   9.677 -1.7907  0.0647  0.2468
   11CHL1  H19C  783   2.439   3.777   9.818  0.8136  0.1523 -0.5958
   11CHL1    C1  784   2.156   3.686   9.820 -0.7163 -0.6749 -0.5519
   11CHL1   H1A  785   2.128   3.784   9.777 -0.7811 -1.5127 -2.5059
   11CHL1   H1B  786   2.065   3.625   9.799 -1.1851 -0.4324  0.7582
   11CHL1    C2  787   2.191   3.702   9.966  0.4985  0.6755  0.0784
   11CHL1   H2A  788   2.106   3.733  10.030  1.6340  2.0904  0.9253
   11CHL1   H2B  789   2.266   3.782   9.987  1.4826  0.2633 -1.7196
   11CHL1   C20  790   2.088   3.655   9.070  0.3636  0.2527  0.0626
   11CHL1   H20  791   2.142   3.752   9.077  2.2469 -0.7242 -0.6196
   11CHL1   C21  792   1.939   3.674   9.108  0.4424  0.5438  0.0824
   11CHL1  H21A  793   1.888   3.750   9.044  0.2733  0.0008 -0.4330
   11CHL1  H21B  794   1.913   3.709   9.210 -1.4849 -2.0460  0.5364
   11CHL1  H21C  795   1.882   3.581   9.087  1.0108 -0.2720  2.0345
   11CHL1   C22  796   2.116   3.616   8.923  0.2244 -0.2142 -0.0592
   11CHL1  H22A  797   2.226   3.620   8.904  0.3689 -1.7660  0.3895
   11CHL1  H22B  798   2.106   3.507   8.905 -0.0014 -0.6085  2.3616
   11CHL1   C23  799   2.044   3.691   8.810  0.4133  1.2348  0.4864
   11CHL1  H23A  800   1.936   3.668   8.823  0.7388 -0.2517  0.6885
   11CHL1  H23B  801   2.057   3.799   8.830 -1.6085  1.5412  0.2784
   11CHL1   C24  802   2.095   3.658   8.678 -0.2320  0.0599 -0.0247
   11CHL1  H24A  803   2.190   3.702   8.643  0.4270  0.1161  1.7858
   11CHL1  H24B  804   2.107   3.550   8.657 -0.6163 -0.0638  0.3891
   11CHL1   C25  805   1.992   3.693   8.567  0.1874 -0.0390  0.4599
   11CHL1   H25  806   1.898   3.636   8.586  0.3848 -0.0306  1.5297
   11CHL1   C26  807   1.950   3.845   8.556 -0.0206  0.3504  0.3488
   11CHL1  H26A  808   2.032   3.919   8.542 -2.2316  3.2138  1.8725
   11CHL1  H26B  809   1.878   3.873   8.476 -1.0301 -0.2002  1.0625
   11CHL1  H26C  810   1.914   3.865   8.660 -0.1664  2.0279 -0.0035
   11CHL1   C27  811   2.045   3.645   8.436 -0.1041  0.1435 -0.0557
   11CHL1  H27A  812   2.080   3.541   8.449 -1.1719 -0.0637  1.3541
   11CHL1  H27B  813   1.972   3.649   8.353 -0.1627 -0.6380 -0.0448
   11CHL1  H27C  814   2.128   3.713   8.408  1.5268 -0.8153  2.2751
   12CHL1    C3  815   5.586   6.673  10.265  0.1888  0.6160 -0.2009
   12CHL1    H3  816   5.608   6.782  10.259  2.7819  0.1097 -0.8833
   12CHL1    O3  817   5.653   6.613  10.377 -1.0362  0.4723 -0.3134
   12CHL1   H3'  818   5.623   6.522  10.385  0.6525 -0.0688 -0.1034
   12CHL1    C4  819   5.440   6.645  10.279 -0.7901 -0.4206  0.3753
   12CHL1   H4A  820   5.425   6.536  10.289  0.3381 -0.5733  0.5072
   12CHL1   H4B  821   5.406   6.695  10.372  2.1198  1.4884  0.4886
   12CHL1    C5  822   5.365   6.689  10.156  0.2614  0.1148 -0.0656
   12CHL1    C6  823   5.261   6.770  10.169 -0.7496 -1.3535 -0.0425
   12CHL1    H6  824   5.245   6.817  10.267  1.0299  1.6276 -1.1178
   12CHL1    C7  825   5.172   6.816  10.050 -0.3790  0.0785 -0.3808
   12CHL1   H7A  826   5.065   6.824  10.080 -0.0433  0.2103  0.8127
   12CHL1   H7B  827   5.206   6.919  10.025 -0.9104  0.2313 -0.4819
   12CHL1    C8  828   5.206   6.740   9.917  0.1837 -0.6193 -0.0923
   12CHL1    H8  829   5.151   6.644   9.926 -0.9793  0.0624  0.1675
   12CHL1   C14  830   5.149   6.808   9.798  0.4677  0.2498  0.3198
   12CHL1   H14  831   5.199   6.906   9.782 -0.1360  0.4915 -0.1204
   12CHL1   C15  832   4.993   6.843   9.803 -0.2597  0.4750 -0.4753
   12CHL1  H15A  833   4.932   6.762   9.847 -2.9413  1.8723 -1.4962
   12CHL1  H15B  834   4.976   6.937   9.859  1.5287 -0.5975  1.9619
   12CHL1   C16  835   4.968   6.871   9.651 -0.0563  0.0802  0.5310
   12CHL1  H16A  836   4.879   6.809   9.630  1.0535 -1.1950 -0.5108
   12CHL1  H16B  837   4.951   6.979   9.635 -1.5215  0.0911  2.0524
   12CHL1   C17  838   5.087   6.816   9.566 -0.1810  0.0514 -0.1030
   12CHL1   H17  839   5.154   6.903   9.548  0.0746 -0.1385 -0.0750
   12CHL1   C13  840   5.174   6.732   9.667 -0.0361 -0.2530 -0.2545
   12CHL1   C18  841   5.104   6.596   9.675  0.1126 -0.3275 -0.3713
   12CHL1  H18A  842   5.133   6.545   9.580 -0.0943 -3.3692  1.1380
   12CHL1  H18B  843   5.139   6.528   9.755 -0.3882 -1.8547 -1.4234
   12CHL1  H18C  844   4.993   6.599   9.675  0.0545 -1.9008 -0.4588
   12CHL1   C12  845   5.328   6.736   9.648 -0.7723 -0.7426  0.6728
   12CHL1  H12A  846   5.351   6.682   9.554 -0.7642  0.7292 -0.1854
   12CHL1  H12B  847   5.366   6.841   9.653 -1.3258 -0.4087 -1.7472
   12CHL1   C11  848   5.381   6.649   9.763  0.5096  0.3761 -0.0509
   12CHL1  H11A  849   5.352   6.543   9.750  0.0897  0.6487 -1.3342
   12CHL1  H11B  850   5.491   6.651   9.746  0.4908  0.1370 -0.2019
   12CHL1    C9  851   5.351   6.710   9.905  0.9275  0.2055  0.5701
   12CHL1    H9  852   5.398   6.811   9.908 -1.6231  1.4026  1.3984
   12CHL1   C10  853   5.408   6.628  10.024 -1.0059 -0.1362  0.3589
   12CHL1   C19  854   5.355   6.489  10.024 -0.3134 -0.1804  0.3062
   12CHL1  H19A  855   5.246   6.475  10.009 -0.6410  0.0974  2.2295
   12CHL1  H19B  856   5.410   6.432   9.946  2.2205 -0.8656  2.5114
   12CHL1  H19C  857   5.382   6.433  10.117 -1.9333 -0.8393  0.4093
   12CHL1    C1  858   5.562   6.643  10.016 -0.2668 -0.3248  0.4968
   12CHL1   H1A  859   5.601   6.586   9.930  2.0611 -0.6607  1.7270
   12CHL1   H1B  860   5.587   6.750   9.999  0.2390 -0.7250 -1.3640
   12CHL1    C2  861   5.648   6.605  10.138  0.5303  0.5353 -0.0905
   12CHL1   H2A  862   5.757   6.623  10.127  0.5440 -0.5232 -1.9391
   12CHL1   H2B  863   5.641   6.497  10.161  0.3036  0.8873  1.5458
   12CHL1   C20  864   5.060   6.763   9.419 -0.6955  0.6668  0.2174
   12CHL1   H20  865   4.987   6.680   9.426 -3.2704  2.4901 -3.2844
   12CHL1   C21  866   5.192   6.721   9.347 -0.0873  0.4476 -0.5491
   12CHL1  H21A  867   5.231   6.626   9.390 -3.3488 -0.2723  1.0347
   12CHL1  H21B  868   5.259   6.808   9.366 -0.3422  0.1961  1.6494
   12CHL1  H21C  869   5.186   6.704   9.238  0.6349  1.0273 -0.6855
   12CHL1   C22  870   4.990   6.875   9.347  0.2720  0.0287  0.7021
   12CHL1  H22A  871   4.907   6.926   9.401  2.0374  2.6138  1.0424
   12CHL1  H22B  872   5.053   6.960   9.313 -0.0323  0.4298  1.1301
   12CHL1   C23  873   4.922   6.836   9.213 -0.0195  0.5396 -0.3610
   12CHL1  H23A  874   4.988   6.768   9.155 -2.0820 -2.9216  1.1608
   12CHL1  H23B  875   4.845   6.760   9.239  1.7148 -0.9013  0.7066
   12CHL1   C24  876   4.867   6.960   9.134  0.1867 -0.5321 -0.1176
   12CHL1  H24A  877   4.793   7.014   9.197  0.1764 -0.6145 -0.0577
   12CHL1  H24B  878   4.952   7.029   9.117 -0.1345  0.3189  1.6660
   12CHL1   C25  879   4.821   6.925   8.989  0.4499 -0.2066  0.6558
   12CHL1   H25  880   4.784   6.820   8.987  0.4186 -0.2930  3.7390
   12CHL1   C26  881   4.709   7.017   8.937  0.6859  0.7135  0.1391
   12CHL1  H26A  882   4.623   7.023   9.007  1.6843 -0.8185  1.5505
   12CHL1  H26B  883   4.744   7.116   8.901  1.9639  0.0607 -0.4411
   12CHL1  H26C  884   4.672   6.953   8.854  2.1641  1.5711 -1.1970
   12CHL1   C27  885   4.941   6.941   8.888  0.5613  1.2575  0.4244
   12CHL1  H27A  886   4.945   7.045   8.850  0.3766  0.4124 -1.9803
   12CHL1  H27B  887   5.042   6.906   8.921  2.2130  4.0058 -1.5288
   12CHL1  H27C  888   4.923   6.882   8.796  1.2427  0.2913  0.8982
   13CHL1    C3  889   4.965   1.381   9.885 -0.2740 -0.2097 -0.6304
   13CHL1    H3  890   5.017   1.480   9.890 -1.5862  0.4900 -0.7046
   13CHL1    O3  891   4.974   1.309  10.005 -0.1471  0.4518 -0.2159
   13CHL1   H3'  892   5.069   1.303  10.014 -0.3465 -0.1764  1.6303
   13CHL1    C4  893   4.813   1.397   9.846 -0.1121  0.2377  0.4578
   13CHL1   H4A  894   4.767   1.296   9.843  2.0419 -0.7635  0.1315
   13CHL1   H4B  895   4.762   1.443   9.933  0.1676 -1.3002  1.4523
   13CHL1    C5  896   4.794   1.473   9.718 -0.4226  0.1473  0.5444
   13CHL1    C6  897   4.727   1.586   9.704  0.5091  0.5907  0.0355
   13CHL1    H6  898   4.671   1.628   9.789  0.7904 -3.2713  2.2482
   13CHL1    C7  899   4.704   1.656   9.571 -0.4728 -0.2902  0.2052
   13CHL1   H7A  900   4.599   1.690   9.561 -0.0503  1.0973  0.4009
   13CHL1   H7B  901   4.767   1.748   9.574  0.8511 -1.1903  0.8888
   13CHL1    C8  902   4.736   1.571   9.446 -0.4350 -0.1463  0.1431
   13CHL1    H8  903   4.648   1.504   9.436  0.1053 -0.8006 -0.3142
   13CHL1   C14  904   4.750   1.660   9.329  0.5449 -0.6773  0.5197
   13CHL1   H14  905   4.838   1.723   9.353 -0.6386  1.0692  0.3532
   13CHL1   C15  906   4.639   1.759   9.301  0.0303  0.8233  0.2470
   13CHL1  H15A  907   4.540   1.711   9.319 -0.4797  2.5149  2.2375
   13CHL1  H15B  908   4.650   1.851   9.362  0.8291  2.7415 -2.6475
   13CHL1   C16  909   4.668   1.786   9.157 -0.0152  0.4275  0.5009
   13CHL1  H16A  910   4.576   1.765   9.099  0.7676  0.4467 -0.7719
   13CHL1  H16B  911   4.699   1.892   9.152 -2.3057  1.0614 -1.0194
   13CHL1   C17  912   4.792   1.711   9.105 -0.4349 -0.1421  0.1782
   13CHL1   H17  913   4.885   1.767   9.129  0.6068 -2.0829  0.7716
   13CHL1   C13  914   4.787   1.593   9.204 -0.0436 -0.0883  0.2325
   13CHL1   C18  915   4.682   1.489   9.152 -0.3603 -0.3582  0.0103
   13CHL1  H18A  916   4.685   1.410   9.231  1.1319 -0.7664 -0.4389
   13CHL1  H18B  917   4.581   1.533   9.141 -0.6337 -0.7922  0.7819
   13CHL1  H18C  918   4.706   1.426   9.064 -0.8662 -2.3502  1.2543
   13CHL1   C12  919   4.930   1.512   9.222  0.3853  0.2882 -0.2622
   13CHL1  H12A  920   4.970   1.455   9.135  1.0278 -1.0351  0.8685
   13CHL1  H12B  921   5.009   1.585   9.249  0.9796 -0.1336 -0.8477
   13CHL1   C11  922   4.917   1.417   9.344 -0.0730  0.2910 -0.6317
   13CHL1  H11A  923   4.851   1.331   9.319  1.6277 -1.3039  0.2248
   13CHL1  H11B  924   5.013   1.364   9.363 -0.0842  0.9977  1.5083
   13CHL1    C9  925   4.868   1.489   9.472  0.3758  0.5211 -0.2518
   13CHL1    H9  926   4.936   1.574   9.494  1.8514 -0.4686 -0.9378
   13CHL1   C10  927   4.862   1.402   9.602  0.4822  0.2473 -0.4536
   13CHL1   C19  928   4.798   1.263   9.572 -0.1615 -0.1650 -0.1953
   13CHL1  H19A  929   4.778   1.201   9.662  0.4529 -0.5046 -0.2909
   13CHL1  H19B  930   4.703   1.268   9.515 -0.3743 -0.7330  0.1020
   13CHL1  H19C  931   4.866   1.203   9.508 -0.9315  1.8008 -2.9485
   13CHL1    C1  932   5.016   1.376   9.649  0.2764  0.1295  0.3539
   13CHL1   H1A  933   5.053   1.313   9.565  1.7114 -0.8332  1.6751
   13CHL1   H1B  934   5.074   1.470   9.658 -2.6031  1.9061  0.7122
   13CHL1    C2  935   5.024   1.297   9.777  0.3589  0.1627 -0.3032
   13CHL1   H2A  936   5.131   1.273   9.795 -0.3386 -2.0537  1.0124
   13CHL1   H2B  937   4.984   1.194   9.769 -0.2497  0.2050  1.7570
   13CHL1   C20  938   4.803   1.679   8.954  1.1211  0.2824 -0.5936
   13CHL1   H20  939   4.731   1.599   8.927  0.6719 -0.0793  1.5948
   13CHL1   C21  940   4.944   1.645   8.913  0.3414  0.1756 -0.4704
   13CHL1  H21A  941   4.952   1.623   8.804  0.0915  0.0267 -0.4574
   13CHL1  H21B  942   4.972   1.559   8.977 -1.3704  1.7731  2.5186
   13CHL1  H21C  943   5.020   1.718   8.949 -0.3838  1.4238 -1.4334
   13CHL1   C22  944   4.749   1.793   8.868 -0.1587 -0.6007  0.1048
   13CHL1  H22A  945   4.649   1.834   8.894  0.0609 -1.2304  2.0449
   13CHL1  H22B  946   4.822   1.876   8.876  1.1347 -1.6716 -0.3842
   13CHL1   C23  947   4.732   1.759   8.715 -0.0089  0.8219 -0.0976
   13CHL1  H23A  948   4.725   1.860   8.669  1.5118 -0.1948 -2.6120
   13CHL1  H23B  949   4.824   1.714   8.674 -0.1850  1.0641 -0.7542
   13CHL1   C24  950   4.623   1.651   8.694 -0.2950  0.2981 -0.3044
   13CHL1  H24A  951   4.657   1.554   8.735  0.1864  0.1898 -0.9608
   13CHL1  H24B  952   4.527   1.684   8.740 -0.3810 -1.1412  0.5549
   13CHL1   C25  953   4.588   1.631   8.545 -0.3533  0.2009 -0.2174
   13CHL1   H25  954   4.587   1.723   8.483  2.5723  0.7027  0.4151
   13CHL1   C26  955   4.693   1.550   8.478 -0.4050  0.1354  0.2222
   13CHL1  H26A  956   4.794   1.597   8.481  0.0790 -0.9032  0.3622
   13CHL1  H26B  957   4.691   1.460   8.543  1.1023  0.4938  0.7876
   13CHL1  H26C  958   4.673   1.526   8.372 -0.5448  1.3784 -0.0412
   13CHL1   C27  959   4.449   1.567   8.532 -0.2636  0.0229 -0.5523
   13CHL1  H27A  960   4.430   1.526   8.431 -1.5807  2.1238 -1.1961
   13CHL1  H27B  961   4.434   1.490   8.610  1.7999  1.0531  0.9254
   13CHL1  H27C  962   4.365   1.639   8.546 -1.2251 -1.2652  0.3152
   14CHL1    C3  963   4.208   4.525  10.258 -0.0767  0.5017  1.0061
   14CHL1    H3  964   4.116   4.463  10.251 -0.2498  0.9343 -0.7037
   14CHL1    O3  965   4.240   4.532  10.400 -0.1256 -0.0318 -0.0177
   14CHL1   H3'  966   4.261   4.440  10.418  1.6417  0.7527  2.1528
   14CHL1    C4  967   4.318   4.452  10.181 -0.6273 -0.6015 -0.0736
   14CHL1   H4A  968   4.418   4.497  10.201 -1.3204  0.2737  1.4932
   14CHL1   H4B  969   4.305   4.351  10.226 -0.2050 -1.0055 -0.8414
   14CHL1    C5  970   4.303   4.437  10.027  0.7702 -0.4141  0.7261
   14CHL1    C6  971   4.318   4.319   9.965 -0.2887  0.6701  0.3026
   14CHL1    H6  972   4.335   4.233  10.032  0.2634  1.3381  1.0371
   14CHL1    C7  973   4.306   4.308   9.815 -0.9407  0.1532 -0.5188
   14CHL1   H7A  974   4.388   4.244   9.776 -0.1300 -0.5916  2.2318
   14CHL1   H7B  975   4.209   4.255   9.800 -0.4240 -0.3563 -2.1570
   14CHL1    C8  976   4.303   4.445   9.735  0.8090 -0.3379 -0.2391
   14CHL1    H8  977   4.406   4.485   9.735  0.7269 -0.1277 -0.2704
   14CHL1   C14  978   4.253   4.419   9.589  0.2269 -0.5424 -0.7544
   14CHL1   H14  979   4.149   4.383   9.605 -0.1401 -0.1414 -2.1450
   14CHL1   C15  980   4.324   4.309   9.510  0.1147 -0.1840 -0.1849
   14CHL1  H15A  981   4.434   4.299   9.525 -0.1693 -1.2373  1.3203
   14CHL1  H15B  982   4.269   4.215   9.532  0.1721 -0.3078 -0.5687
   14CHL1   C16  983   4.284   4.347   9.366 -0.4183  0.6765  0.0733
   14CHL1  H16A  984   4.375   4.351   9.303 -0.5902  0.5374 -0.1901
   14CHL1  H16B  985   4.215   4.269   9.325 -0.2660  0.3485  0.4472
   14CHL1   C17  986   4.195   4.485   9.368 -0.5448 -0.4727  0.0719
   14CHL1   H17  987   4.090   4.450   9.367 -0.8245  0.3758 -1.0790
   14CHL1   C13  988   4.233   4.549   9.509  0.0670  0.3800 -0.0512
   14CHL1   C18  989   4.373   4.626   9.500  0.5505  0.3802  0.4730
   14CHL1  H18A  990   4.454   4.573   9.445  0.3121  1.5154 -0.9892
   14CHL1  H18B  991   4.362   4.726   9.454  0.4089  0.8973  1.6356
   14CHL1  H18C  992   4.406   4.645   9.604 -1.5128 -1.4866  1.5159
   14CHL1   C12  993   4.120   4.628   9.581  0.1238 -0.2948 -0.4343
   14CHL1  H12A  994   4.092   4.719   9.524 -1.4339 -0.7455 -0.3995
   14CHL1  H12B  995   4.032   4.561   9.595  1.2762 -1.9212 -0.8264
   14CHL1   C11  996   4.167   4.661   9.726 -0.7075 -0.2471 -0.4815
   14CHL1  H11A  997   4.255   4.729   9.723 -0.3144 -0.6272  1.5791
   14CHL1  H11B  998   4.091   4.723   9.778 -1.4523 -2.5494  1.2522
   14CHL1    C9  999   4.214   4.542   9.812  0.4635 -0.2289  0.0966
   14CHL1    H9 1000   4.120   4.489   9.838  1.2291 -0.7340  1.8707
   14CHL1   C10 1001   4.268   4.571   9.959 -0.6961 -0.8346 -0.6174
   14CHL1   C19 1002   4.393   4.665   9.960 -0.0269 -0.4171  0.2010
   14CHL1  H19A 1003   4.480   4.612   9.916 -0.6613 -1.2381 -0.0884
   14CHL1  H19B 1004   4.366   4.755   9.902 -0.8832  0.3745  1.8164
   14CHL1  H19C 1005   4.415   4.699  10.063  0.7385 -2.7717  0.8591
   14CHL1    C1 1006   4.161   4.644  10.040 -1.1243  0.0931  0.1425
   14CHL1   H1A 1007   4.155   4.745   9.994 -0.7115 -0.7324 -1.7711
   14CHL1   H1B 1008   4.057   4.605  10.030 -2.2554  2.6754  1.3760
   14CHL1    C2 1009   4.193   4.659  10.195 -0.7675  0.2347 -0.2631
   14CHL1   H2A 1010   4.108   4.717  10.238 -0.8668  1.1687 -1.6611
   14CHL1   H2B 1011   4.288   4.710  10.223  0.1704 -1.8482  0.3719
   14CHL1   C20 1012   4.205   4.571   9.245  0.4341 -0.3447 -0.0085
   14CHL1   H20 1013   4.310   4.605   9.249  0.4112 -0.4877  4.1742
   14CHL1   C21 1014   4.120   4.702   9.260  0.5456 -0.1606 -0.4159
   14CHL1  H21A 1015   4.101   4.751   9.163 -1.6043 -1.0525 -0.4591
   14CHL1  H21B 1016   4.159   4.775   9.335  1.9296 -0.9835 -0.3226
   14CHL1  H21C 1017   4.017   4.679   9.296  0.7707 -1.3594 -0.5220
   14CHL1   C22 1018   4.178   4.499   9.112  0.3339  0.0296  0.3760
   14CHL1  H22A 1019   4.192   4.573   9.030 -3.5384 -1.0213 -1.3423
   14CHL1  H22B 1020   4.244   4.411   9.100  0.1775 -0.0126 -0.2181
   14CHL1   C23 1021   4.031   4.468   9.076 -0.8828  0.0027 -0.2031
   14CHL1  H23A 1022   3.995   4.403   9.158  0.1141  0.5107  0.6614
   14CHL1  H23B 1023   3.967   4.559   9.076 -0.5133  0.2624 -0.1377
   14CHL1   C24 1024   4.025   4.406   8.935  0.8836 -0.0841  0.5922
   14CHL1  H24A 1025   4.043   4.494   8.869 -0.4782 -1.5726 -1.8204
   14CHL1  H24B 1026   4.108   4.332   8.934  1.4180  0.4917  2.0256
   14CHL1   C25 1027   3.894   4.331   8.914  0.4407  0.5513 -0.4761
   14CHL1   H25 1028   3.813   4.394   8.958  1.7737  1.2791  1.0192
   14CHL1   C26 1029   3.875   4.295   8.769  0.0828 -0.3207 -0.5435
   14CHL1  H26A 1030   3.776   4.246   8.760  0.3299 -1.2368  1.2913
   14CHL1  H26B 1031   3.882   4.390   8.712  1.3403 -1.3033 -2.0506
   14CHL1  H26C 1032   3.952   4.221   8.737  1.2565  1.1680 -1.2313
   14CHL1   C27 1033   3.876   4.201   9.008  0.1512  0.1981 -0.1903
   14CHL1  H27A 1034   3.965   4.140   8.979 -1.0830 -2.4613  1.4469
   14CHL1  H27B 1035   3.872   4.223   9.116  0.3593 -4.4327  0.8500
   14CHL1  H27C 1036   3.780   4.151   8.985  0.4431  0.3769 -1.8831
   15CHL1    C3 1037   4.387   3.302  10.030  0.5693  0.9749 -0.1577
   15CHL1    H3 1038   4.359   3.195  10.027 -0.6743  1.2407  1.2412
   15CHL1    O3 1039   4.408   3.317  10.164 -0.0372 -0.1977 -0.1093
   15CHL1   H3' 1040   4.323   3.330  10.207  1.0966  0.8428  1.8578
   15CHL1    C4 1041   4.512   3.325   9.946 -0.5247 -0.0046  0.0953
   15CHL1   H4A 1042   4.559   3.421   9.977  2.4969 -0.2864 -3.2364
   15CHL1   H4B 1043   4.583   3.251   9.991  0.5501  1.7670  1.3952
   15CHL1    C5 1044   4.486   3.324   9.796  0.3129  0.4050 -0.4541
   15CHL1    C6 1045   4.538   3.240   9.707  0.0856  0.2643  0.2246
   15CHL1    H6 1046   4.615   3.165   9.734  0.0225 -0.2131 -0.8951
   15CHL1    C7 1047   4.516   3.240   9.558 -0.2898  0.8133 -0.2217
   15CHL1   H7A 1048   4.613   3.227   9.506  0.0541  1.0775  0.3483
   15CHL1   H7B 1049   4.450   3.155   9.530  0.2139 -0.0559  1.2187
   15CHL1    C8 1050   4.458   3.379   9.517 -0.4093  0.5397  0.2208
   15CHL1    H8 1051   4.542   3.447   9.538 -1.3038  1.3151  1.3381
   15CHL1   C14 1052   4.422   3.374   9.367 -0.1205  0.4434  0.1351
   15CHL1   H14 1053   4.326   3.318   9.364 -0.5420  1.1087  0.6746
   15CHL1   C15 1054   4.520   3.314   9.270  0.3445 -0.1951 -0.1386
   15CHL1  H15A 1055   4.626   3.339   9.293  0.2646 -0.0708  0.0877
   15CHL1  H15B 1056   4.515   3.203   9.273 -0.0569 -0.2233 -1.3102
   15CHL1   C16 1057   4.482   3.375   9.131 -0.1238 -0.4166  0.1270
   15CHL1  H16A 1058   4.567   3.432   9.087 -1.2531  0.0137 -1.5513
   15CHL1  H16B 1059   4.449   3.300   9.056  0.2828 -0.6430  0.1748
   15CHL1   C17 1060   4.362   3.475   9.163 -0.1692  0.0264  0.0987
   15CHL1   H17 1061   4.274   3.409   9.149 -0.1274  0.0929 -0.4606
   15CHL1   C13 1062   4.382   3.512   9.315 -0.2621 -0.0476 -0.9785
   15CHL1   C18 1063   4.506   3.613   9.328 -0.3345 -0.1227  0.1563
   15CHL1  H18A 1064   4.461   3.713   9.311 -0.5209 -0.0919  0.8340
   15CHL1  H18B 1065   4.547   3.608   9.431 -2.5694 -0.9936  1.0402
   15CHL1  H18C 1066   4.577   3.598   9.244 -1.5178 -1.1740 -0.6884
   15CHL1   C12 1067   4.255   3.548   9.390 -0.3863  0.0684  0.0765
   15CHL1  H12A 1068   4.226   3.645   9.345  1.2412  1.0052  1.0124
   15CHL1  H12B 1069   4.181   3.469   9.367  0.2331 -0.7808  0.9579
   15CHL1   C11 1070   4.273   3.550   9.545  0.3827 -0.2754  0.3939
   15CHL1  H11A 1071   4.339   3.637   9.564 -1.7089  1.8747 -1.7172
   15CHL1  H11B 1072   4.176   3.567   9.598  0.7470 -0.3349  1.0822
   15CHL1    C9 1073   4.340   3.425   9.602  0.7503 -0.3630 -0.3319
   15CHL1    H9 1074   4.258   3.353   9.583  1.1111 -0.6139 -0.9478
   15CHL1   C10 1075   4.376   3.432   9.761 -0.2133 -0.7536 -0.1975
   15CHL1   C19 1076   4.424   3.584   9.794 -0.4767  0.5590  0.6787
   15CHL1  H19A 1077   4.499   3.606   9.715  1.1073 -2.1242  1.3576
   15CHL1  H19B 1078   4.328   3.640   9.790 -0.3533  0.6510 -1.2324
   15CHL1  H19C 1079   4.466   3.596   9.896 -4.0595  0.7230  2.1954
   15CHL1    C1 1080   4.251   3.402   9.838  0.2012 -0.4144 -0.7223
   15CHL1   H1A 1081   4.174   3.482   9.827 -1.3324 -1.7524 -0.0305
   15CHL1   H1B 1082   4.213   3.308   9.793 -0.3450  0.0356 -1.2080
   15CHL1    C2 1083   4.281   3.396   9.987 -0.2654 -0.3890 -0.2062
   15CHL1   H2A 1084   4.189   3.370  10.044 -2.3188  2.8054 -1.9167
   15CHL1   H2B 1085   4.304   3.500  10.018 -1.7775  0.3725 -1.5252
   15CHL1   C20 1086   4.359   3.575   9.052  0.0537 -0.0062  0.3067
   15CHL1   H20 1087   4.446   3.644   9.049 -0.0375  0.1170  0.5184
   15CHL1   C21 1088   4.232   3.664   9.059  0.2405 -0.1169  0.6274
   15CHL1  H21A 1089   4.217   3.713   8.960  0.5409 -2.2183 -0.5041
   15CHL1  H21B 1090   4.237   3.740   9.139 -1.1034  2.0340 -1.2623
   15CHL1  H21C 1091   4.139   3.606   9.076  0.3418 -0.5906 -0.4055
   15CHL1   C22 1092   4.358   3.514   8.900  1.0147  0.5355  0.6635
   15CHL1  H22A 1093   4.359   3.603   8.835  1.8914 -0.4100 -0.6372
   15CHL1  H22B 1094   4.460   3.472   8.886  0.9741  1.0644 -1.2585
   15CHL1   C23 1095   4.256   3.400   8.872 -0.1544  0.5778  0.3008
   15CHL1  H23A 1096   4.264   3.316   8.945 -0.6124  0.4302  0.1771
   15CHL1  H23B 1097   4.157   3.448   8.860 -1.0893 -1.1074  1.1453
   15CHL1   C24 1098   4.277   3.342   8.733  0.4010  0.2176 -0.3840
   15CHL1  H24A 1099   4.243   3.422   8.664 -4.6701 -2.4435 -1.1845
   15CHL1  H24B 1100   4.382   3.336   8.697  0.0336 -1.3479 -1.2425
   15CHL1   C25 1101   4.198   3.212   8.704  0.1122 -0.5373 -0.8635
   15CHL1   H25 1102   4.264   3.130   8.741  2.0043  0.6736 -1.4687
   15CHL1   C26 1103   4.057   3.201   8.753  0.7746 -0.2733 -0.4400
   15CHL1  H26A 1104   4.007   3.103   8.738 -0.3315  0.4354 -1.4839
   15CHL1  H26B 1105   4.056   3.220   8.863 -1.7823 -1.2142 -0.2543
   15CHL1  H26C 1106   3.982   3.273   8.713 -0.9844 -0.9583  1.5336
   15CHL1   C27 1107   4.193   3.187   8.551  0.0784 -0.6133  0.5120
   15CHL1  H27A 1108   4.294   3.179   8.506 -0.8640 -0.3476 -1.7047
   15CHL1  H27B 1109   4.132   3.096   8.530  2.3065 -1.8614 -0.7159
   15CHL1  H27C 1110   4.148   3.277   8.504  0.9648  0.0126  0.8546
   16CHL1    C3 1111   4.892   4.537  10.196  0.1943 -0.5853  0.4714
   16CHL1    H3 1112   4.845   4.633  10.166  1.4519 -0.0219  0.2723
   16CHL1    O3 1113   4.871   4.530  10.337  0.1023  0.7270 -0.9799
   16CHL1   H3' 1114   4.902   4.444  10.369  1.6599  1.7737  0.4473
   16CHL1    C4 1115   4.803   4.429  10.127  0.1671  0.7297  0.1216
   16CHL1   H4A 1116   4.850   4.332  10.156 -0.8491 -0.3454 -1.7390
   16CHL1   H4B 1117   4.701   4.433  10.172  0.0502 -2.7038  0.3675
   16CHL1    C5 1118   4.817   4.430   9.979  0.3973 -0.1308  0.3830
   16CHL1    C6 1119   4.713   4.440   9.896  0.3488 -0.2378  0.2096
   16CHL1    H6 1120   4.613   4.470   9.931 -0.4682 -1.0046 -1.4341
   16CHL1    C7 1121   4.720   4.445   9.744 -0.7001 -0.3066 -0.2988
   16CHL1   H7A 1122   4.632   4.390   9.702  2.1859 -5.1010 -0.4798
   16CHL1   H7B 1123   4.718   4.552   9.715  0.3095 -0.0302  0.6008
   16CHL1    C8 1124   4.857   4.389   9.696 -0.3773 -0.2040  0.0844
   16CHL1    H8 1125   4.872   4.280   9.709  3.2310  0.2042 -0.3326
   16CHL1   C14 1126   4.867   4.430   9.547  0.1750 -0.2480 -0.4943
   16CHL1   H14 1127   4.849   4.540   9.551  3.2627  0.2985  0.3333
   16CHL1   C15 1128   4.760   4.362   9.446  0.2729 -0.1638  0.3191
   16CHL1  H15A 1129   4.750   4.258   9.484  0.7779 -0.0431  0.7821
   16CHL1  H15B 1130   4.664   4.419   9.450  0.2530 -0.1428 -0.3609
   16CHL1   C16 1131   4.826   4.374   9.301  0.6492 -0.0565 -0.2143
   16CHL1  H16A 1132   4.832   4.269   9.266  1.3380 -0.3135  0.6454
   16CHL1  H16B 1133   4.772   4.441   9.231  1.1470  0.0892 -0.4601
   16CHL1   C17 1134   4.971   4.437   9.333 -0.3859  0.3069  0.3648
   16CHL1   H17 1135   4.945   4.545   9.339 -2.7667 -0.2194  0.2903
   16CHL1   C13 1136   4.998   4.398   9.478 -0.4688 -0.7317 -0.3934
   16CHL1   C18 1137   5.025   4.246   9.481 -0.4859 -0.2259 -0.5897
   16CHL1  H18A 1138   5.110   4.204   9.423 -0.5638 -1.7567  0.3642
   16CHL1  H18B 1139   5.028   4.210   9.586  2.4430 -0.1441 -0.6090
   16CHL1  H18C 1140   4.939   4.190   9.439  0.4144 -0.4789 -2.1429
   16CHL1   C12 1141   5.109   4.465   9.561  0.2736  0.5711 -0.5983
   16CHL1  H12A 1142   5.206   4.427   9.520  1.7897  3.3500  0.2877
   16CHL1  H12B 1143   5.098   4.575   9.546 -0.2433  0.4254 -1.3286
   16CHL1   C11 1144   5.113   4.437   9.715  0.5863 -0.0112  1.1504
   16CHL1  H11A 1145   5.142   4.330   9.723  1.0942  0.1975  2.0824
   16CHL1  H11B 1146   5.198   4.491   9.762  0.9416  0.3821  0.0751
   16CHL1    C9 1147   4.972   4.452   9.780  0.0998 -0.1941 -0.5432
   16CHL1    H9 1148   4.973   4.563   9.767 -1.4430 -0.1377 -0.2748
   16CHL1   C10 1149   4.960   4.414   9.931  0.3502  0.3396 -0.1203
   16CHL1   C19 1150   5.007   4.274   9.952  0.4271 -0.3043  0.6853
   16CHL1  H19A 1151   5.011   4.260  10.063 -3.0444  2.2796  1.2068
   16CHL1  H19B 1152   4.945   4.193   9.908  0.5004  0.0271 -0.0254
   16CHL1  H19C 1153   5.113   4.256   9.926 -0.0279  1.2282 -2.4526
   16CHL1    C1 1154   5.052   4.506  10.005 -0.2654  0.7944 -0.4889
   16CHL1   H1A 1155   5.158   4.473  10.001 -0.2347  1.0790 -2.3884
   16CHL1   H1B 1156   5.042   4.607   9.959  1.0099  0.2312 -2.0363
   16CHL1    C2 1157   5.034   4.526  10.155 -0.8045 -0.5025  0.1966
   16CHL1   H2A 1158   5.109   4.601  10.189 -0.1786  0.2807 -2.8189
   16CHL1   H2B 1159   5.061   4.423  10.186  2.6035  0.8446  1.9905
   16CHL1   C20 1160   5.072   4.411   9.224  0.6627 -0.3164  0.0647
   16CHL1   H20 1161   5.097   4.303   9.227 -0.0638 -0.5094 -0.8628
   16CHL1   C21 1162   5.193   4.507   9.238 -0.4742  0.0872  0.2865
   16CHL1  H21A 1163   5.162   4.613   9.221  2.3844  1.0184  0.6254
   16CHL1  H21B 1164   5.265   4.479   9.159  0.1417 -0.5404  1.0685
   16CHL1  H21C 1165   5.243   4.497   9.337  0.5165  2.1253  0.0242
   16CHL1   C22 1166   5.012   4.415   9.080  0.1020  0.1952  0.3336
   16CHL1  H22A 1167   4.927   4.344   9.067  1.4223 -1.4744  0.8036
   16CHL1  H22B 1168   4.986   4.521   9.057 -0.3770  0.1132  0.4844
   16CHL1   C23 1169   5.112   4.361   8.971 -0.1399 -0.2241  0.2919
   16CHL1  H23A 1170   5.205   4.421   8.960  0.0942 -0.7241 -0.4787
   16CHL1  H23B 1171   5.132   4.257   9.007  0.3068  0.1217  1.0574
   16CHL1   C24 1172   5.053   4.346   8.825 -0.4216 -0.2306 -0.8574
   16CHL1  H24A 1173   4.963   4.281   8.834  1.0561 -2.0993  1.0138
   16CHL1  H24B 1174   5.022   4.446   8.787  0.3029  0.1786 -0.3811
   16CHL1   C25 1175   5.158   4.295   8.724  0.8618  0.1282 -0.0203
   16CHL1   H25 1176   5.248   4.356   8.749  1.1212  1.1613 -3.3043
   16CHL1   C26 1177   5.198   4.151   8.750 -0.2899  0.2717  0.2938
   16CHL1  H26A 1178   5.272   4.106   8.680  1.3111  1.8495  0.9305
   16CHL1  H26B 1179   5.235   4.130   8.852  0.8658  3.6937  0.6215
   16CHL1  H26C 1180   5.110   4.084   8.739  0.9529 -1.4104  0.4446
   16CHL1   C27 1181   5.109   4.329   8.582 -0.0964  0.2051 -0.1099
   16CHL1  H27A 1182   5.012   4.279   8.564  0.8216 -2.1173  1.0473
   16CHL1  H27B 1183   5.099   4.438   8.564  3.6490  1.0426  2.1825
   16CHL1  H27C 1184   5.185   4.293   8.510  2.0716  3.0182  0.6661
   17CHL1    C3 1185   0.630   0.840  10.303 -0.2490 -0.2281 -0.1958
   17CHL1    H3 1186   0.726   0.889  10.274  0.7284 -2.0078 -0.0672
   17CHL1    O3 1187   0.621   0.837  10.444  0.2336 -0.2163  0.0779
   17CHL1   H3' 1188   0.528   0.822  10.463  0.4118  1.7518  2.7528
   17CHL1    C4 1189   0.520   0.936  10.237  0.0974 -0.0746  0.2010
   17CHL1   H4A 1190   0.418   0.902  10.265 -0.0984  0.1373 -0.2635
   17CHL1   H4B 1191   0.532   1.040  10.273 -0.0496  0.0401 -0.0824
   17CHL1    C5 1192   0.524   0.924  10.084 -0.0574 -0.2994 -0.5213
   17CHL1    C6 1193   0.517   1.032  10.015 -0.5742  0.1884 -0.5972
   17CHL1    H6 1194   0.524   1.128  10.068  1.8387  0.1321 -0.7544
   17CHL1    C7 1195   0.515   1.038   9.862 -0.2232 -0.2313  0.1552
   17CHL1   H7A 1196   0.432   1.108   9.836 -1.2670 -0.7023  2.1312
   17CHL1   H7B 1197   0.614   1.076   9.830  0.5338 -0.0272  2.6051
   17CHL1    C8 1198   0.490   0.890   9.794  0.2165 -0.2353  0.5101
   17CHL1    H8 1199   0.381   0.873   9.809 -0.2389  0.9288 -1.2395
   17CHL1   C14 1200   0.532   0.891   9.646  0.1491 -0.8682 -0.3991
   17CHL1   H14 1201   0.642   0.906   9.650 -0.1841  1.6260  0.5265
   17CHL1   C15 1202   0.504   1.006   9.551 -0.1910 -0.5807  0.0969
   17CHL1  H15A 1203   0.398   1.037   9.566 -0.6331 -0.7951 -2.3705
   17CHL1  H15B 1204   0.566   1.093   9.580 -1.0361  0.0862 -0.0610
   17CHL1   C16 1205   0.528   0.951   9.413  0.5940 -1.3321 -0.1466
   17CHL1  H16A 1206   0.439   0.930   9.350  1.6148  0.6956 -2.3500
   17CHL1  H16B 1207   0.611   1.010   9.367  0.3489  0.8479  2.1501
   17CHL1   C17 1208   0.588   0.809   9.443  0.5389 -0.6809  0.3952
   17CHL1   H17 1209   0.697   0.822   9.459  0.8312 -1.4352 -0.9033
   17CHL1   C13 1210   0.522   0.760   9.568  0.1609  0.0147  0.9660
   17CHL1   C18 1211   0.373   0.723   9.545  0.1844 -0.1067 -0.1030
   17CHL1  H18A 1212   0.360   0.635   9.479 -2.6431 -1.0191  1.5853
   17CHL1  H18B 1213   0.314   0.698   9.636  0.2055 -2.4712 -0.7091
   17CHL1  H18C 1214   0.314   0.805   9.499 -1.7401  0.3223  2.9906
   17CHL1   C12 1215   0.614   0.661   9.649 -0.0307  0.0695  0.3356
   17CHL1  H12A 1216   0.614   0.563   9.596 -0.0637  0.3370 -0.1657
   17CHL1  H12B 1217   0.720   0.694   9.645  0.6009 -1.9585 -0.4547
   17CHL1   C11 1218   0.570   0.650   9.796 -0.3594  0.2090 -0.0480
   17CHL1  H11A 1219   0.468   0.609   9.808 -0.7226  1.3376  0.7629
   17CHL1  H11B 1220   0.636   0.576   9.847  1.3722  1.2137 -0.7684
   17CHL1    C9 1221   0.572   0.779   9.868  0.0592 -0.0008 -0.4979
   17CHL1    H9 1222   0.679   0.811   9.871  0.3150 -0.9404  1.0350
   17CHL1   C10 1223   0.534   0.778  10.026  0.0682 -0.1680  0.3192
   17CHL1   C19 1224   0.401   0.707  10.044 -0.0302 -0.4058 -0.0656
   17CHL1  H19A 1225   0.387   0.710  10.154  1.1967  0.2810  0.0837
   17CHL1  H19B 1226   0.322   0.769   9.997 -1.4193 -1.1476  1.2676
   17CHL1  H19C 1227   0.391   0.604  10.003 -0.6550 -0.2343 -0.3505
   17CHL1    C1 1228   0.639   0.696  10.098 -0.2578  0.0497  0.6807
   17CHL1   H1A 1229   0.628   0.590  10.066 -0.7059 -0.4704  2.5134
   17CHL1   H1B 1230   0.736   0.733  10.059 -0.2936 -2.2591 -1.7981
   17CHL1    C2 1231   0.630   0.696  10.248 -0.6544 -0.0618 -0.2656
   17CHL1   H2A 1232   0.723   0.650  10.288 -1.8213  2.1668  5.3447
   17CHL1   H2B 1233   0.541   0.642  10.285 -0.5910  0.0320  0.0260
   17CHL1   C20 1234   0.574   0.730   9.313 -0.9487  0.6621 -0.3246
   17CHL1   H20 1235   0.469   0.712   9.283 -0.9963  0.5473 -0.0835
   17CHL1   C21 1236   0.626   0.582   9.334 -0.3577 -0.4345  0.2328
   17CHL1  H21A 1237   0.623   0.524   9.239 -2.5094  1.1862 -0.7450
   17CHL1  H21B 1238   0.558   0.530   9.405 -0.5331 -1.8914 -0.9859
   17CHL1  H21C 1239   0.734   0.580   9.357 -0.3805 -1.2753  0.2943
   17CHL1   C22 1240   0.632   0.807   9.189 -0.0180  0.3509 -0.4204
   17CHL1  H22A 1241   0.584   0.907   9.176  0.7970  1.4655  4.4188
   17CHL1  H22B 1242   0.739   0.824   9.211 -0.6535  1.5489  1.8504
   17CHL1   C23 1243   0.623   0.744   9.052 -0.6212  0.1763  0.0480
   17CHL1  H23A 1244   0.654   0.638   9.065 -2.7206 -0.3924  0.6844
   17CHL1  H23B 1245   0.522   0.730   9.008 -0.9909 -0.3725  1.0564
   17CHL1   C24 1246   0.696   0.818   8.944  0.3482 -0.3691  0.5292
   17CHL1  H24A 1247   0.663   0.922   8.966 -0.8729 -0.8108  0.8219
   17CHL1  H24B 1248   0.807   0.817   8.942  0.4098  2.4181 -0.9451
   17CHL1   C25 1249   0.655   0.769   8.801  0.2287  0.7549 -0.5507
   17CHL1   H25 1250   0.546   0.784   8.787  0.4629  1.6852 -1.4334
   17CHL1   C26 1251   0.713   0.863   8.687  0.5006  0.2319  0.3189
   17CHL1  H26A 1252   0.659   0.960   8.694 -0.4023 -0.1953 -0.5339
   17CHL1  H26B 1253   0.822   0.880   8.693  0.6791 -1.1406  1.1951
   17CHL1  H26C 1254   0.691   0.812   8.591  2.6578 -0.5194  0.1988
   17CHL1   C27 1255   0.701   0.630   8.767 -0.4688  0.6535  0.0391
   17CHL1  H27A 1256   0.810   0.617   8.781 -0.0648  2.5645 -1.2228
   17CHL1  H27B 1257   0.654   0.547   8.824  3.1420 -0.6431  1.2638
   17CHL1  H27C 1258   0.666   0.617   8.662 -0.2981 -0.2099  0.0801
   18CHL1    C3 1259   6.304   6.618  10.189 -0.2456 -0.6174  0.3142
   18CHL1    H3 1260   6.313   6.723  10.156 -2.7786 -0.8977 -1.4106
   18CHL1    O3 1261   6.301   6.614  10.332 -0.4113 -0.3429  0.4261
   18CHL1   H3' 1262   6.215   6.647  10.357 -0.2674 -0.5916  1.2853
   18CHL1    C4 1263   6.168   6.572  10.134 -0.3341 -0.2726  0.0049
   18CHL1   H4A 1264   6.132   6.474  10.173 -2.9255  0.4271 -0.5653
   18CHL1   H4B 1265   6.089   6.638  10.176 -1.0430  0.3293 -2.2063
   18CHL1    C5 1266   6.174   6.569   9.986 -0.8451 -1.3427 -0.4302
   18CHL1    C6 1267   6.094   6.645   9.910  0.7716 -0.7362  0.6376
   18CHL1    H6 1268   6.017   6.702   9.964  0.2878  0.0419 -0.8695
   18CHL1    C7 1269   6.093   6.637   9.764 -0.0643 -0.4032  0.6523
   18CHL1   H7A 1270   5.990   6.649   9.724 -0.3558  1.0598  1.8041
   18CHL1   H7B 1271   6.152   6.713   9.709 -0.7228 -1.6931 -1.9345
   18CHL1    C8 1272   6.158   6.506   9.716  0.8273  0.1806  0.7182
   18CHL1    H8 1273   6.087   6.427   9.748 -0.0927  1.5236  2.0747
   18CHL1   C14 1274   6.172   6.505   9.562  0.3809 -0.4705 -0.3049
   18CHL1   H14 1275   6.244   6.584   9.530 -1.9099  0.2695 -3.8381
   18CHL1   C15 1276   6.047   6.543   9.480  0.0915 -0.8373  0.1701
   18CHL1  H15A 1277   5.964   6.506   9.544  0.8004  0.7197  2.0597
   18CHL1  H15B 1278   6.024   6.651   9.470 -1.3739 -1.1959 -0.4936
   18CHL1   C16 1279   6.060   6.478   9.348  0.2946  0.6313  0.3901
   18CHL1  H16A 1280   5.981   6.401   9.339 -0.6653  1.6381  0.1036
   18CHL1  H16B 1281   6.043   6.548   9.263 -0.3809 -0.8476 -0.7270
   18CHL1   C17 1282   6.194   6.394   9.345  0.0276  0.6869 -0.5725
   18CHL1   H17 1283   6.273   6.460   9.303  1.7406 -0.2051  1.1380
   18CHL1   C13 1284   6.226   6.370   9.502  1.3496  0.1767  0.1594
   18CHL1   C18 1285   6.138   6.256   9.556 -0.6015 -0.0528  0.0484
   18CHL1  H18A 1286   6.044   6.261   9.497  0.1580 -1.2435 -1.3085
   18CHL1  H18B 1287   6.195   6.162   9.538  1.3432  1.2762 -1.0263
   18CHL1  H18C 1288   6.125   6.248   9.666  1.1213 -0.0508  0.2723
   18CHL1   C12 1289   6.374   6.361   9.546 -0.9791  0.1733 -0.0958
   18CHL1  H12A 1290   6.418   6.264   9.516 -1.8779 -0.1299 -0.4611
   18CHL1  H12B 1291   6.423   6.454   9.511 -2.0774  1.1453  0.8735
   18CHL1   C11 1292   6.384   6.363   9.706  0.7718 -0.4645  0.4396
   18CHL1  H11A 1293   6.344   6.266   9.741 -0.9142 -0.9104 -2.5979
   18CHL1  H11B 1294   6.492   6.374   9.731  0.1987  2.2915  1.9027
   18CHL1    C9 1295   6.301   6.482   9.774  0.5458  0.6316 -0.1206
   18CHL1    H9 1296   6.356   6.573   9.742  0.3701  0.6904 -0.2547
   18CHL1   C10 1297   6.289   6.482   9.928  0.0210 -0.1076 -0.3641
   18CHL1   C19 1298   6.263   6.336   9.972 -0.6265 -0.3382  0.8834
   18CHL1  H19A 1299   6.351   6.281   9.934  0.3635  0.4786  1.9796
   18CHL1  H19B 1300   6.250   6.328  10.082 -0.1184 -1.8748  0.8356
   18CHL1  H19C 1301   6.172   6.290   9.929 -1.5211  1.2281  1.0527
   18CHL1    C1 1302   6.421   6.532   9.990 -0.1524 -0.1675 -0.8684
   18CHL1   H1A 1303   6.509   6.471   9.961 -0.4086 -1.2852  0.6782
   18CHL1   H1B 1304   6.441   6.630   9.941 -2.5038  1.5714  1.5236
   18CHL1    C2 1305   6.427   6.544  10.142  0.5070 -0.0299 -0.0758
   18CHL1   H2A 1306   6.514   6.602  10.178  1.1002 -0.0222 -1.5105
   18CHL1   H2B 1307   6.428   6.442  10.188  1.1282  0.0555  0.1076
   18CHL1   C20 1308   6.189   6.266   9.260 -0.5284 -0.0494 -0.5953
   18CHL1   H20 1309   6.111   6.199   9.303 -0.8214  1.5442  1.4463
   18CHL1   C21 1310   6.323   6.183   9.271  0.6333  0.0568 -0.1432
   18CHL1  H21A 1311   6.415   6.243   9.252  0.6035 -0.2197 -1.1877
   18CHL1  H21B 1312   6.324   6.098   9.199 -0.6007  0.4379 -0.6216
   18CHL1  H21C 1313   6.331   6.131   9.369  4.1971  0.1386 -0.3041
   18CHL1   C22 1314   6.150   6.295   9.111 -0.1274  0.2269 -0.3579
   18CHL1  H22A 1315   6.124   6.196   9.068 -0.2000 -0.6188  1.5773
   18CHL1  H22B 1316   6.054   6.351   9.110 -0.3723 -0.0955  1.8514
   18CHL1   C23 1317   6.234   6.380   9.021  0.3278 -0.0076 -0.0391
   18CHL1  H23A 1318   6.230   6.484   9.060  2.0921  0.3535 -0.7710
   18CHL1  H23B 1319   6.340   6.348   9.028  0.4728  0.7811  1.3586
   18CHL1   C24 1320   6.182   6.379   8.873 -0.1374 -0.1954  0.0188
   18CHL1  H24A 1321   6.191   6.276   8.833  0.7918 -0.4447  0.8413
   18CHL1  H24B 1322   6.075   6.407   8.869  0.4044  1.7188 -2.4811
   18CHL1   C25 1323   6.259   6.487   8.784  0.8502 -0.1276 -0.7993
   18CHL1   H25 1324   6.245   6.578   8.845  1.3517  0.6849 -1.8719
   18CHL1   C26 1325   6.411   6.468   8.778 -0.1076  0.1592 -0.8318
   18CHL1  H26A 1326   6.463   6.476   8.875  1.2040 -2.5861 -1.2389
   18CHL1  H26B 1327   6.433   6.366   8.739  2.7327  1.1072 -1.8060
   18CHL1  H26C 1328   6.447   6.539   8.701  0.8933  1.5416  0.8765
   18CHL1   C27 1329   6.202   6.479   8.641 -0.3298  0.0518 -0.2719
   18CHL1  H27A 1330   6.092   6.496   8.634 -0.7015 -0.1348  3.7766
   18CHL1  H27B 1331   6.248   6.553   8.572  1.3284 -0.4522  0.2714
   18CHL1  H27C 1332   6.216   6.377   8.598 -0.2669  0.3463 -0.9507
   19CHL1    C3 1333   3.156   3.172  10.242  0.0867  0.2667 -0.6206
   19CHL1    H3 1334   3.151   3.063  10.221  0.6985  0.0445  0.3286
   19CHL1    O3 1335   3.156   3.185  10.385 -0.2542  0.2497 -0.1877
   19CHL1   H3' 1336   3.098   3.261  10.397 -0.5341  0.2775 -1.6850
   19CHL1    C4 1337   3.294   3.211  10.188  0.1025 -0.1227 -0.2027
   19CHL1   H4A 1338   3.315   3.317  10.211  0.4546  0.2503 -2.1553
   19CHL1   H4B 1339   3.374   3.150  10.236  0.3743 -0.8764 -1.5837
   19CHL1    C5 1340   3.303   3.207  10.033 -0.2238 -0.5343 -0.0932
   19CHL1    C6 1341   3.406   3.141   9.972 -0.5673 -0.3631 -0.2102
   19CHL1    H6 1342   3.481   3.088  10.032 -0.8473 -0.7835 -0.2300
   19CHL1    C7 1343   3.424   3.128   9.822 -0.0843 -0.1143 -0.3149
   19CHL1   H7A 1344   3.534   3.144   9.810 -0.2318  0.1589 -1.3283
   19CHL1   H7B 1345   3.417   3.021   9.794 -0.2836 -1.2360  3.6352
   19CHL1    C8 1346   3.340   3.235   9.742  0.2136  0.0491 -0.4576
   19CHL1    H8 1347   3.397   3.331   9.747 -0.2064  0.3526 -1.3022
   19CHL1   C14 1348   3.341   3.188   9.598  0.1885 -0.5422 -0.0218
   19CHL1   H14 1349   3.296   3.087   9.611  1.4639 -0.9448  1.4476
   19CHL1   C15 1350   3.471   3.173   9.512  0.0448  0.2292  0.0497
   19CHL1  H15A 1351   3.529   3.268   9.505  1.0976 -0.4080  0.1033
   19CHL1  H15B 1352   3.535   3.087   9.540  2.6828  1.7366 -1.1682
   19CHL1   C16 1353   3.414   3.148   9.366 -0.0954 -0.6483  0.4084
   19CHL1  H16A 1354   3.473   3.204   9.290 -0.5934  0.0863  0.5585
   19CHL1  H16B 1355   3.417   3.038   9.346  0.3589 -0.6699  0.5975
   19CHL1   C17 1356   3.264   3.191   9.365  0.6169 -0.3561 -0.0914
   19CHL1   H17 1357   3.206   3.097   9.367  2.6797 -1.6527  0.6656
   19CHL1   C13 1358   3.243   3.268   9.507 -0.0630 -0.7417  0.4397
   19CHL1   C18 1359   3.296   3.414   9.496 -0.5930 -0.0192  0.0337
   19CHL1  H18A 1360   3.228   3.480   9.438 -1.0166 -0.4239  0.0704
   19CHL1  H18B 1361   3.297   3.448   9.601  0.8160 -0.8470  0.3107
   19CHL1  H18C 1362   3.399   3.409   9.453 -0.4170 -0.4713  0.5040
   19CHL1   C12 1363   3.100   3.272   9.575  0.5821  0.2982 -0.1324
   19CHL1  H12A 1364   3.029   3.332   9.514  0.9720  0.0203 -0.8701
   19CHL1  H12B 1365   3.052   3.172   9.575 -0.9054  0.9953 -0.9509
   19CHL1   C11 1366   3.102   3.335   9.712  0.2408 -0.1677 -0.5141
   19CHL1  H11A 1367   3.145   3.438   9.707  2.0354 -0.8102  1.2572
   19CHL1  H11B 1368   2.999   3.331   9.753 -0.5374 -2.0784 -2.5284
   19CHL1    C9 1369   3.199   3.248   9.801 -0.5079  0.2315  0.0883
   19CHL1    H9 1370   3.159   3.144   9.797 -1.2610  0.4095  2.4730
   19CHL1   C10 1371   3.192   3.276   9.955  0.1454 -0.4378 -0.1332
   19CHL1   C19 1372   3.211   3.425   9.973 -0.7125 -0.4553  0.7668
   19CHL1  H19A 1373   3.308   3.466   9.937 -2.1315  2.5402  0.2077
   19CHL1  H19B 1374   3.136   3.470   9.905  0.6345 -1.1680 -1.2332
   19CHL1  H19C 1375   3.186   3.464  10.074  1.5746  3.0046  0.0825
   19CHL1    C1 1376   3.052   3.231  10.011 -0.4369 -0.3051 -0.1486
   19CHL1   H1A 1377   2.968   3.292   9.971 -0.4032 -0.1138  0.0673
   19CHL1   H1B 1378   3.039   3.121   9.998 -0.1330 -0.5062  1.1805
   19CHL1    C2 1379   3.050   3.249  10.167 -0.6764  0.6800 -0.1694
   19CHL1   H2A 1380   2.945   3.233  10.199 -0.8164  0.7555 -0.5917
   19CHL1   H2B 1381   3.070   3.357  10.187  1.9594  0.7445 -2.7434
   19CHL1   C20 1382   3.228   3.259   9.233  0.4657 -0.2050  0.2160
   19CHL1   H20 1383   3.295   3.346   9.217  0.6464 -0.5696 -1.0117
   19CHL1   C21 1384   3.085   3.315   9.242 -1.0033  0.5122  0.0021
   19CHL1  H21A 1385   3.041   3.348   9.145 -1.5364  0.1010  0.1022
   19CHL1  H21B 1386   3.079   3.400   9.313 -0.0395 -0.3619  1.1497
   19CHL1  H21C 1387   3.022   3.232   9.279  1.1300 -0.6705  1.0851
   19CHL1   C22 1388   3.231   3.170   9.110 -0.2410 -0.7547 -0.5125
   19CHL1  H22A 1389   3.204   3.221   9.015  0.0865  0.6739  0.1421
   19CHL1  H22B 1390   3.336   3.137   9.096 -0.9316 -2.2656 -2.3274
   19CHL1   C23 1391   3.158   3.033   9.122  0.1409  0.1109  0.2012
   19CHL1  H23A 1392   3.206   2.967   9.197  0.3141 -0.7673 -0.6796
   19CHL1  H23B 1393   3.059   3.056   9.167 -0.1194  1.5805 -1.0759
   19CHL1   C24 1394   3.142   2.958   8.987 -0.2735  0.1082  0.2798
   19CHL1  H24A 1395   3.241   2.910   8.967 -0.1262  0.6918 -0.3755
   19CHL1  H24B 1396   3.073   2.871   9.000 -0.0388 -0.2160 -0.6220
   19CHL1   C25 1397   3.092   3.036   8.864 -0.6270  1.0477  0.0138
   19CHL1   H25 1398   3.169   3.113   8.840 -1.4411  1.3219 -1.7965
   19CHL1   C26 1399   3.061   2.944   8.748  0.1544  0.7893 -0.2332
   19CHL1  H26A 1400   3.043   2.998   8.652 -2.5322 -0.5255 -0.5293
   19CHL1  H26B 1401   3.137   2.864   8.737  0.0168  0.6555 -0.2191
   19CHL1  H26C 1402   2.975   2.874   8.756  0.3743  0.6449  0.9035
   19CHL1   C27 1403   2.967   3.112   8.897 -0.4894  0.4658 -0.4856
   19CHL1  H27A 1404   2.906   3.035   8.950  0.5199  1.1505  1.7475
   19CHL1  H27B 1405   2.982   3.200   8.963  0.2896 -0.9231  1.2337
   19CHL1  H27C 1406   2.921   3.149   8.803 -1.5473 -1.2311 -0.6616
   20CHL1    C3 1407   5.874   3.973  10.335 -0.2256 -0.7379  0.1362
   20CHL1    H3 1408   5.799   3.892  10.318 -0.9561  0.0989 -0.7411
   20CHL1    O3 1409   5.870   4.009  10.475 -0.2995  0.0288 -0.2489
   20CHL1   H3' 1410   5.946   4.066  10.488  0.4156 -0.9851  0.0440
   20CHL1    C4 1411   6.018   3.927  10.297  1.0308 -0.1327  0.6310
   20CHL1   H4A 1412   6.089   4.011  10.314  0.5039  0.5860 -0.6650
   20CHL1   H4B 1413   6.059   3.848  10.363  3.1108  0.8470  0.5660
   20CHL1    C5 1414   6.014   3.895  10.143  1.1786 -0.2046 -0.1131
   20CHL1    C6 1415   6.040   3.776  10.093 -0.8883  0.5010  0.1803
   20CHL1    H6 1416   6.055   3.694  10.165 -0.3227  0.5172  0.0813
   20CHL1    C7 1417   6.044   3.743   9.944 -0.2587  0.4263  0.2345
   20CHL1   H7A 1418   6.134   3.686   9.912 -0.3770  1.7917 -2.6349
   20CHL1   H7B 1419   5.953   3.687   9.910  1.6678 -2.0445 -1.0412
   20CHL1    C8 1420   6.038   3.861   9.849  0.1772  0.1340  0.1753
   20CHL1    H8 1421   6.135   3.916   9.842  1.5057 -2.1098  0.6779
   20CHL1   C14 1422   6.003   3.825   9.707 -0.2878  0.5928 -0.2080
   20CHL1   H14 1423   5.899   3.784   9.709  0.2561 -0.7701  3.6454
   20CHL1   C15 1424   6.096   3.722   9.637 -0.8526  0.0024  0.0590
   20CHL1  H15A 1425   6.198   3.754   9.665 -0.8974 -0.9574  1.3495
   20CHL1  H15B 1426   6.078   3.616   9.664 -0.9702  0.4362  1.7393
   20CHL1   C16 1427   6.079   3.739   9.487 -0.2832  0.2815 -0.2390
   20CHL1  H16A 1428   6.177   3.767   9.443  0.3141 -1.6114 -0.1580
   20CHL1  H16B 1429   6.037   3.646   9.442  1.2948 -0.2191 -0.7108
   20CHL1   C17 1430   5.974   3.855   9.467  0.2475 -0.3983 -0.1963
   20CHL1   H17 1431   5.870   3.817   9.471  0.0294  0.2100  0.0127
   20CHL1   C13 1432   5.987   3.933   9.604  0.1574  0.6280  0.6422
   20CHL1   C18 1433   6.117   4.020   9.601  0.7734  0.4338  0.7581
   20CHL1  H18A 1434   6.100   4.110   9.538 -2.0425 -1.0739 -0.7440
   20CHL1  H18B 1435   6.149   4.069   9.695 -1.6738  1.2861  1.1780
   20CHL1  H18C 1436   6.203   3.968   9.553 -1.1916 -2.4605  0.2042
   20CHL1   C12 1437   5.861   4.018   9.653 -0.4267 -0.2943  0.1546
   20CHL1  H12A 1438   5.851   4.112   9.593  1.4424  0.5838  1.1463
   20CHL1  H12B 1439   5.771   3.954   9.649  0.1201 -1.0002 -1.6710
   20CHL1   C11 1440   5.894   4.059   9.794 -0.2700  0.0488 -0.2864
   20CHL1  H11A 1441   5.979   4.131   9.786  1.1306 -1.4803  0.4179
   20CHL1  H11B 1442   5.808   4.115   9.834 -0.8200 -0.7151 -0.3851
   20CHL1    C9 1443   5.923   3.952   9.900  0.3687  0.2162  0.5558
   20CHL1    H9 1444   5.833   3.888   9.912 -0.4130  0.8890 -1.5333
   20CHL1   C10 1445   5.965   4.007  10.037  0.3152  0.4790  0.1735
   20CHL1   C19 1446   6.076   4.111  10.037 -0.4996 -0.2623 -0.1987
   20CHL1  H19A 1447   6.063   4.194   9.964 -0.7644 -1.1644 -1.1815
   20CHL1  H19B 1448   6.098   4.153  10.138 -1.1363  0.8884 -0.5307
   20CHL1  H19C 1449   6.169   4.066   9.997 -1.3538 -3.1668  0.9586
   20CHL1    C1 1450   5.835   4.069  10.105 -0.2078  0.3929 -0.1753
   20CHL1   H1A 1451   5.812   4.168  10.060  2.4314  0.7483 -0.7970
   20CHL1   H1B 1452   5.741   4.010  10.099  0.1538 -0.2991  0.7836
   20CHL1    C2 1453   5.847   4.095  10.251  0.0357 -0.9369  0.3634
   20CHL1   H2A 1454   5.752   4.139  10.289 -0.8700 -1.2914 -1.4093
   20CHL1   H2B 1455   5.931   4.164  10.271 -0.2784 -0.6777  0.7874
   20CHL1   C20 1456   6.002   3.931   9.339 -0.4805  0.5108  0.1127
   20CHL1   H20 1457   6.104   3.975   9.348 -0.2163 -0.4524  2.0891
   20CHL1   C21 1458   5.895   4.040   9.321 -0.0457 -0.0696 -0.4045
   20CHL1  H21A 1459   5.869   4.105   9.407  1.1014  0.3252 -0.3593
   20CHL1  H21B 1460   5.800   3.989   9.292 -0.2430 -0.2836  0.6062
   20CHL1  H21C 1461   5.931   4.110   9.243 -1.8165 -0.1739 -1.3478
   20CHL1   C22 1462   6.010   3.839   9.214 -0.0623 -0.1625 -1.2005
   20CHL1  H22A 1463   6.079   3.753   9.225 -2.8645 -2.3282 -0.1403
   20CHL1  H22B 1464   5.912   3.789   9.203 -0.7283  1.3948 -2.5502
   20CHL1   C23 1465   6.054   3.910   9.085 -0.0729  0.6272 -0.0114
   20CHL1  H23A 1466   5.985   3.995   9.066  0.5844  1.2170  0.2159
   20CHL1  H23B 1467   6.152   3.963   9.086 -1.7234  3.9009 -2.5332
   20CHL1   C24 1468   6.061   3.809   8.971  0.2665 -0.2957  0.4451
   20CHL1  H24A 1469   6.121   3.717   8.990 -0.7645 -1.2421 -0.7623
   20CHL1  H24B 1470   5.960   3.768   8.949 -0.7967  2.7945 -0.7186
   20CHL1   C25 1471   6.098   3.860   8.833 -0.4583  0.2390  0.7453
   20CHL1   H25 1472   6.142   3.778   8.773 -0.3768 -0.1878  1.3882
   20CHL1   C26 1473   5.977   3.928   8.766  0.0915  0.5261 -0.0983
   20CHL1  H26A 1474   6.016   3.980   8.676 -1.8208 -0.9690 -1.8383
   20CHL1  H26B 1475   5.903   3.856   8.727 -3.4205  2.1660  3.1810
   20CHL1  H26C 1476   5.931   3.999   8.838 -0.2825  0.4859 -0.2958
   20CHL1   C27 1477   6.196   3.979   8.846 -0.3911  0.3117 -0.0129
   20CHL1  H27A 1478   6.144   4.077   8.844  0.9194  1.0354  1.0143
   20CHL1  H27B 1479   6.268   3.970   8.930 -0.1493  0.8768 -0.1620
   20CHL1  H27C 1480   6.261   3.987   8.757  2.3558 -0.5772  1.8233
   21CHL1    C3 1481   5.548   0.425  10.086  0.0958  0.4414 -0.0360
   21CHL1    H3 1482   5.640   0.368  10.061 -1.0076 -0.2415 -2.7201
   21CHL1    O3 1483   5.544   0.447  10.229 -0.4089  0.2310 -0.4461
   21CHL1   H3' 1484   5.493   0.373  10.259 -0.1636 -0.4394 -1.6346
   21CHL1    C4 1485   5.544   0.562  10.021  0.0730 -0.1828  1.3863
   21CHL1   H4A 1486   5.470   0.627  10.073  0.4127  1.4272 -0.0915
   21CHL1   H4B 1487   5.643   0.601  10.050  0.1622  0.4486  0.2641
   21CHL1    C5 1488   5.530   0.552   9.869 -0.2511  0.5909  0.1562
   21CHL1    C6 1489   5.608   0.625   9.791 -0.3353  0.4451 -0.3674
   21CHL1    H6 1490   5.688   0.683   9.839  1.5697 -0.7118 -2.0411
   21CHL1    C7 1491   5.598   0.643   9.648  0.1548  0.0009  0.0372
   21CHL1   H7A 1492   5.624   0.744   9.609 -1.1221  1.1861  2.2049
   21CHL1   H7B 1493   5.680   0.586   9.598  1.3303  2.1285 -0.5485
   21CHL1    C8 1494   5.468   0.595   9.597 -1.0051 -0.1748  0.5718
   21CHL1    H8 1495   5.393   0.674   9.618 -2.1999 -0.9534 -0.6778
   21CHL1   C14 1496   5.479   0.573   9.448 -0.2869  0.4536  0.2311
   21CHL1   H14 1497   5.554   0.493   9.431 -1.2271 -0.3459 -0.2195
   21CHL1   C15 1498   5.537   0.696   9.364 -0.3446 -0.0266 -0.2908
   21CHL1  H15A 1499   5.492   0.789   9.406  0.9073  0.8581 -0.8831
   21CHL1  H15B 1500   5.646   0.707   9.378 -0.3993  0.1760 -0.0078
   21CHL1   C16 1501   5.485   0.673   9.224  0.1250  0.8190 -0.9682
   21CHL1  H16A 1502   5.420   0.759   9.195 -2.2128  0.7610  3.6292
   21CHL1  H16B 1503   5.568   0.676   9.151  1.5417 -0.3469  0.5747
   21CHL1   C17 1504   5.398   0.538   9.225 -0.1295  0.3941 -0.0105
   21CHL1   H17 1505   5.466   0.450   9.221  0.2035  0.7162 -2.0734
   21CHL1   C13 1506   5.356   0.527   9.372 -0.0991  0.1834 -0.1751
   21CHL1   C18 1507   5.240   0.624   9.403  0.1175  0.1064  0.7336
   21CHL1  H18A 1508   5.219   0.624   9.512  2.3244 -0.7916  1.1884
   21CHL1  H18B 1509   5.272   0.728   9.379  1.5066 -1.2826 -3.9590
   21CHL1  H18C 1510   5.147   0.604   9.347 -0.1325  0.4529  1.0263
   21CHL1   C12 1511   5.322   0.389   9.432 -0.5124  0.0913 -0.3991
   21CHL1  H12A 1512   5.226   0.348   9.394  1.3700 -1.9485 -3.1015
   21CHL1  H12B 1513   5.400   0.318   9.399 -0.4543 -0.3773  0.7340
   21CHL1   C11 1514   5.317   0.379   9.586 -0.3588  0.1206  0.1311
   21CHL1  H11A 1515   5.215   0.412   9.612 -0.4801 -0.1775  0.0356
   21CHL1  H11B 1516   5.325   0.273   9.618 -2.1690 -0.5673 -1.6285
   21CHL1    C9 1517   5.428   0.459   9.660  0.3519  0.3845  0.1529
   21CHL1    H9 1518   5.515   0.393   9.638  0.3185  0.4046 -0.0409
   21CHL1   C10 1519   5.414   0.467   9.816  0.4159 -0.2583 -0.1012
   21CHL1   C19 1520   5.277   0.530   9.846 -0.2523 -0.0370 -0.8391
   21CHL1  H19A 1521   5.197   0.457   9.819 -0.2509 -0.3568  0.0074
   21CHL1  H19B 1522   5.266   0.546   9.955 -1.2430 -0.0919 -0.9198
   21CHL1  H19C 1523   5.250   0.626   9.797 -0.8821  1.5251  2.4490
   21CHL1    C1 1524   5.419   0.329   9.882  0.8847  0.0954 -0.4803
   21CHL1   H1A 1525   5.331   0.264   9.862 -0.2160  0.7356  2.1515
   21CHL1   H1B 1526   5.508   0.275   9.843  1.8033  1.2146  0.0421
   21CHL1    C2 1527   5.426   0.343  10.043  0.1085  0.3264  0.4453
   21CHL1   H2A 1528   5.434   0.240  10.084  1.7521  0.0632 -0.4611
   21CHL1   H2B 1529   5.333   0.391  10.079 -0.8126 -2.4716  1.9741
   21CHL1   C20 1530   5.301   0.525   9.110  0.5590  0.4888  0.3689
   21CHL1   H20 1531   5.227   0.606   9.127  0.2227 -0.0931  1.7728
   21CHL1   C21 1532   5.231   0.388   9.100  0.5015 -0.0033 -0.1182
   21CHL1  H21A 1533   5.192   0.366   9.202  3.0413 -1.1662  0.6438
   21CHL1  H21B 1534   5.318   0.322   9.083  2.5741  1.9747  2.3861
   21CHL1  H21C 1535   5.152   0.374   9.023  0.2254 -1.4206  0.3957
   21CHL1   C22 1536   5.369   0.563   8.975 -0.4995  0.6262  0.0942
   21CHL1  H22A 1537   5.399   0.670   8.979  0.7022  0.3332 -0.6122
   21CHL1  H22B 1538   5.464   0.505   8.964 -1.0036  0.1850 -2.2258
   21CHL1   C23 1539   5.275   0.550   8.852  0.3923 -0.3785  0.1458
   21CHL1  H23A 1540   5.308   0.454   8.807  0.8259  0.1836 -0.7617
   21CHL1  H23B 1541   5.173   0.558   8.896  0.5201  0.4229  0.3009
   21CHL1   C24 1542   5.304   0.665   8.761  0.7199  0.0516 -0.0385
   21CHL1  H24A 1543   5.315   0.761   8.817 -3.0791  1.1253 -0.9294
   21CHL1  H24B 1544   5.399   0.646   8.708  1.2302 -2.0167  1.5632
   21CHL1   C25 1545   5.194   0.688   8.653 -0.5415  0.1716  0.4548
   21CHL1   H25 1546   5.094   0.708   8.697 -2.0213 -2.9443 -1.3565
   21CHL1   C26 1547   5.227   0.805   8.571 -0.2635 -0.2365 -0.1687
   21CHL1  H26A 1548   5.219   0.900   8.628 -1.6609  0.3111 -1.2359
   21CHL1  H26B 1549   5.330   0.793   8.533  1.1077 -0.0028  3.3417
   21CHL1  H26C 1550   5.173   0.817   8.474 -0.1712  2.3244  0.0559
   21CHL1   C27 1551   5.163   0.560   8.574  0.8577  0.2711  0.6612
   21CHL1  H27A 1552   5.255   0.526   8.523  2.0495  0.1119  2.8486
   21CHL1  H27B 1553   5.125   0.474   8.633  0.1846  0.6606  0.8129
   21CHL1  H27C 1554   5.084   0.578   8.498  2.9925  0.6077 -1.5263
   22CHL1    C3 1555   5.669   1.562  10.078 -0.2826 -0.4705  1.1666
   22CHL1    H3 1556   5.758   1.618  10.041 -0.0231 -1.5368  0.1535
   22CHL1    O3 1557   5.674   1.552  10.218  0.3105 -0.4325 -0.5447
   22CHL1   H3' 1558   5.597   1.504  10.249 -0.3981 -0.0355 -1.6572
   22CHL1    C4 1559   5.545   1.654  10.043  0.1013  0.6078  0.0765
   22CHL1   H4A 1560   5.451   1.611  10.083 -1.5134  1.0817 -3.0806
   22CHL1   H4B 1561   5.568   1.752  10.090 -1.5680 -0.7215  3.8546
   22CHL1    C5 1562   5.531   1.660   9.897 -0.6355  0.0594  0.2580
   22CHL1    C6 1563   5.546   1.780   9.836  0.2657 -0.0733 -0.2832
   22CHL1    H6 1564   5.561   1.870   9.896  1.2568 -1.7452  2.0571
   22CHL1    C7 1565   5.537   1.806   9.691  0.2802  0.9488  0.4154
   22CHL1   H7A 1566   5.482   1.894   9.652  0.5739  0.6990 -0.5756
   22CHL1   H7B 1567   5.637   1.830   9.649  0.3222 -0.0961 -0.1159
   22CHL1    C8 1568   5.477   1.677   9.612  0.3939  0.5207  0.6273
   22CHL1    H8 1569   5.368   1.681   9.629  0.4349 -0.4672  1.2000
   22CHL1   C14 1570   5.497   1.682   9.455 -0.2146  0.3948 -0.2515
   22CHL1   H14 1571   5.608   1.683   9.452 -0.2058 -1.0260 -0.6811
   22CHL1   C15 1572   5.452   1.813   9.389 -0.2720  0.2656 -1.1638
   22CHL1  H15A 1573   5.350   1.845   9.416  1.3706  3.1791  1.9031
   22CHL1  H15B 1574   5.512   1.896   9.432  2.0235 -1.8306 -0.1882
   22CHL1   C16 1575   5.456   1.787   9.240 -0.1652 -0.2295  0.3753
   22CHL1  H16A 1576   5.360   1.821   9.196 -0.1000  0.7847  0.9929
   22CHL1  H16B 1577   5.546   1.837   9.200  0.5571 -0.9426  1.1014
   22CHL1   C17 1578   5.475   1.631   9.232  0.3867 -0.2238  0.2167
   22CHL1   H17 1579   5.583   1.620   9.209  0.1447  2.3394 -2.3879
   22CHL1   C13 1580   5.450   1.568   9.371  0.2339  0.1267 -0.1117
   22CHL1   C18 1581   5.295   1.545   9.402  0.5868 -0.1249  0.6836
   22CHL1  H18A 1582   5.273   1.461   9.333  1.4753  0.7022 -0.6464
   22CHL1  H18B 1583   5.284   1.501   9.503 -1.5720 -4.4472 -1.3162
   22CHL1  H18C 1584   5.230   1.631   9.374 -1.7660 -1.7010  1.1598
   22CHL1   C12 1585   5.529   1.438   9.416 -0.2966  0.3797  0.1767
   22CHL1  H12A 1586   5.495   1.348   9.361 -3.7353  0.3596  2.1512
   22CHL1  H12B 1587   5.633   1.463   9.387  0.0392 -0.9800  0.1962
   22CHL1   C11 1588   5.516   1.423   9.569 -0.0667  0.0342  0.3110
   22CHL1  H11A 1589   5.411   1.390   9.584 -0.2170  0.1065 -0.5573
   22CHL1  H11B 1590   5.584   1.342   9.602  0.4972  1.3373  2.4503
   22CHL1    C9 1591   5.540   1.551   9.661  0.0217  0.6394  0.7719
   22CHL1    H9 1592   5.649   1.565   9.645 -0.1582  2.0487  0.6861
   22CHL1   C10 1593   5.534   1.529   9.819  0.3404  0.4547  1.0898
   22CHL1   C19 1594   5.407   1.443   9.844  0.2915 -0.7662 -0.5493
   22CHL1  H19A 1595   5.324   1.467   9.774 -0.8163  3.6691  2.0700
   22CHL1  H19B 1596   5.426   1.335   9.829  1.1360 -0.6705 -0.1976
   22CHL1  H19C 1597   5.368   1.465   9.946 -0.0454  3.3779 -1.4697
   22CHL1    C1 1598   5.659   1.446   9.863 -0.4440 -0.5054  0.3661
   22CHL1   H1A 1599   5.661   1.354   9.801 -1.8652  0.0069 -0.4449
   22CHL1   H1B 1600   5.748   1.503   9.830 -0.8543 -0.7119 -1.1155
   22CHL1    C2 1601   5.671   1.424  10.012 -0.0619 -0.1479 -0.0491
   22CHL1   H2A 1602   5.767   1.372  10.030 -0.1510 -0.3305 -0.1086
   22CHL1   H2B 1603   5.589   1.366  10.060  1.0581  0.0913  2.2352
   22CHL1   C20 1604   5.393   1.568   9.116  0.6647  0.1452  0.4536
   22CHL1   H20 1605   5.285   1.586   9.131  0.8309  0.8646  0.8561
   22CHL1   C21 1606   5.413   1.416   9.088 -0.6138 -0.1000  0.3060
   22CHL1  H21A 1607   5.349   1.369   9.011  0.7412  0.7904 -1.3811
   22CHL1  H21B 1608   5.383   1.359   9.179  1.2652 -2.2219 -0.3362
   22CHL1  H21C 1609   5.521   1.396   9.067 -1.0427 -1.3503 -0.7590
   22CHL1   C22 1610   5.408   1.647   8.987  0.2240 -0.8086  0.6957
   22CHL1  H22A 1611   5.378   1.753   8.993  1.1628 -0.4395 -0.8563
   22CHL1  H22B 1612   5.515   1.642   8.957 -0.2435  1.0036 -1.3995
   22CHL1   C23 1613   5.320   1.588   8.869  0.3869  0.5135 -0.0696
   22CHL1  H23A 1614   5.348   1.483   8.843  0.2795  0.1483  1.2465
   22CHL1  H23B 1615   5.214   1.576   8.900  0.2819 -2.2615 -1.3706
   22CHL1   C24 1616   5.326   1.666   8.743 -0.0265 -0.6492 -0.1817
   22CHL1  H24A 1617   5.250   1.617   8.678 -1.6726 -0.4210  1.5237
   22CHL1  H24B 1618   5.287   1.766   8.771  0.1819 -1.1147  1.8662
   22CHL1   C25 1619   5.451   1.677   8.664  0.5378  0.3273  0.1579
   22CHL1   H25 1620   5.538   1.726   8.713  0.7356  1.8425 -1.6565
   22CHL1   C26 1621   5.511   1.542   8.619 -0.8561  0.1182 -0.3517
   22CHL1  H26A 1622   5.426   1.475   8.597  0.7048 -0.7399 -4.0736
   22CHL1  H26B 1623   5.593   1.544   8.544 -0.5105 -2.0588 -0.0786
   22CHL1  H26C 1624   5.553   1.497   8.712  1.2930 -3.8655 -3.1131
   22CHL1   C27 1625   5.420   1.775   8.544  0.4416 -0.5873 -0.1850
   22CHL1  H27A 1626   5.507   1.771   8.474  1.9302  3.1782  1.3278
   22CHL1  H27B 1627   5.329   1.744   8.488  0.1818 -1.3687  0.6651
   22CHL1  H27C 1628   5.388   1.870   8.590 -0.9288 -1.0673 -0.1307
   23CHL1    C3 1629   1.509   2.186  10.074  1.0674 -0.6679 -0.5774
   23CHL1    H3 1630   1.560   2.088  10.062  1.5871 -0.4645 -0.0618
   23CHL1    O3 1631   1.509   2.214  10.210  0.3287  0.0787 -0.1862
   23CHL1   H3' 1632   1.571   2.285  10.225 -0.5584  1.3489 -2.2787
   23CHL1    C4 1633   1.593   2.286   9.991  0.7818 -0.4358 -0.4837
   23CHL1   H4A 1634   1.576   2.393  10.016  1.0734 -0.2512 -1.0513
   23CHL1   H4B 1635   1.696   2.261  10.025  0.2086 -1.3418  0.5960
   23CHL1    C5 1636   1.581   2.265   9.845  0.1996  0.3699  0.1257
   23CHL1    C6 1637   1.682   2.240   9.767  0.4549  1.3077 -0.0173
   23CHL1    H6 1638   1.785   2.245   9.806  1.3309 -0.4760 -1.9720
   23CHL1    C7 1639   1.671   2.207   9.622 -0.5151 -0.3315 -0.8849
   23CHL1   H7A 1640   1.748   2.267   9.568 -1.1520  1.1160 -0.1985
   23CHL1   H7B 1641   1.666   2.098   9.602  0.1908 -0.6895  0.8104
   23CHL1    C8 1642   1.538   2.254   9.560 -0.0971 -1.3209  0.1629
   23CHL1    H8 1643   1.530   2.363   9.541  0.0447 -1.1875  0.8525
   23CHL1   C14 1644   1.522   2.185   9.426 -0.4092  0.1228  0.0537
   23CHL1   H14 1645   1.517   2.077   9.451  1.4152 -0.0933 -0.3963
   23CHL1   C15 1646   1.642   2.198   9.330  0.2717 -0.1161 -0.6633
   23CHL1  H15A 1647   1.673   2.305   9.325  0.6660 -0.3001 -3.4555
   23CHL1  H15B 1648   1.735   2.141   9.350 -0.9869 -1.1264  2.6172
   23CHL1   C16 1649   1.581   2.157   9.193  0.0005 -0.1160  0.4048
   23CHL1  H16A 1650   1.608   2.235   9.119 -2.0363 -0.8513 -1.1700
   23CHL1  H16B 1651   1.627   2.062   9.161 -1.3978 -0.3588 -0.9428
   23CHL1   C17 1652   1.428   2.132   9.222 -0.3438  0.0415 -1.3475
   23CHL1   H17 1653   1.422   2.027   9.258 -1.2798  0.6930  0.4571
   23CHL1   C13 1654   1.394   2.215   9.354 -0.2400 -0.1467  0.0785
   23CHL1   C18 1655   1.380   2.361   9.325 -0.0342 -0.1880 -0.1799
   23CHL1  H18A 1656   1.272   2.379   9.307  0.1124  0.2807 -0.6121
   23CHL1  H18B 1657   1.400   2.435   9.405 -0.1823  0.2505 -0.5495
   23CHL1  H18C 1658   1.440   2.395   9.238  1.1382 -0.1463  0.6338
   23CHL1   C12 1659   1.276   2.161   9.440  0.0920  0.4349 -0.0333
   23CHL1  H12A 1660   1.179   2.186   9.392 -0.4859 -2.5601 -0.5003
   23CHL1  H12B 1661   1.276   2.054   9.470  0.7071  1.2375  3.0713
   23CHL1   C11 1662   1.281   2.225   9.573  0.9083  0.4524  0.6858
   23CHL1  H11A 1663   1.251   2.332   9.568 -2.2639 -0.4520 -1.8105
   23CHL1  H11B 1664   1.207   2.169   9.635  2.7387  0.3035  2.7891
   23CHL1    C9 1665   1.422   2.209   9.646 -0.1716 -0.5862 -0.6959
   23CHL1    H9 1666   1.427   2.100   9.666 -0.5305 -0.6865 -1.1482
   23CHL1   C10 1667   1.435   2.260   9.792  0.9038  0.2237  0.5322
   23CHL1   C19 1668   1.370   2.399   9.802 -0.1088  0.8673 -0.2260
   23CHL1  H19A 1669   1.410   2.469   9.725 -3.4887  0.2473 -2.6995
   23CHL1  H19B 1670   1.259   2.386   9.805 -0.0707  0.9028  1.5549
   23CHL1  H19C 1671   1.377   2.454   9.898  1.4121  0.0271  0.1595
   23CHL1    C1 1672   1.359   2.151   9.882  0.5315  0.5607  0.1581
   23CHL1   H1A 1673   1.251   2.145   9.857  0.5783  0.4278 -0.0055
   23CHL1   H1B 1674   1.405   2.051   9.874 -1.8263 -0.3505 -2.8925
   23CHL1    C2 1675   1.360   2.194  10.031  0.2876  0.2405  0.1470
   23CHL1   H2A 1676   1.305   2.116  10.088  1.0091 -0.9642 -0.7832
   23CHL1   H2B 1677   1.307   2.290  10.049 -0.8716 -0.5040  0.7317
   23CHL1   C20 1678   1.346   2.147   9.097 -0.4164 -0.2403  0.4562
   23CHL1   H20 1679   1.334   2.255   9.076 -1.9535 -0.3361  0.7720
   23CHL1   C21 1680   1.199   2.099   9.124 -0.7226 -0.3428 -0.2738
   23CHL1  H21A 1681   1.192   1.999   9.170  0.4100 -0.1493  0.3345
   23CHL1  H21B 1682   1.141   2.116   9.031  2.0517 -2.3115 -2.4734
   23CHL1  H21C 1683   1.148   2.160   9.202  1.4343  0.0273  0.8961
   23CHL1   C22 1684   1.409   2.080   8.976 -0.4468 -0.3720 -0.0274
   23CHL1  H22A 1685   1.349   2.091   8.884 -2.0405  1.7886  1.2370
   23CHL1  H22B 1686   1.509   2.126   8.958  0.1869 -2.3982 -1.8645
   23CHL1   C23 1687   1.433   1.931   8.998  1.0498 -0.1818  0.4647
   23CHL1  H23A 1688   1.508   1.910   9.077  0.4296 -0.5283  0.9707
   23CHL1  H23B 1689   1.337   1.886   9.031  0.1101  0.4986 -1.2920
   23CHL1   C24 1690   1.488   1.860   8.879  0.2350  0.2330 -0.1095
   23CHL1  H24A 1691   1.417   1.856   8.794  0.3626  1.8882 -0.2963
   23CHL1  H24B 1692   1.571   1.927   8.849  0.8454  0.2959  1.6559
   23CHL1   C25 1693   1.528   1.712   8.893 -1.0010  0.2659 -0.7273
   23CHL1   H25 1694   1.619   1.698   8.956 -1.0027 -1.0231 -1.0094
   23CHL1   C26 1695   1.414   1.632   8.953 -0.0336  0.0414 -0.1662
   23CHL1  H26A 1696   1.437   1.526   8.978  1.2132  0.1138 -0.9715
   23CHL1  H26B 1697   1.379   1.676   9.049  1.9041  0.7450  0.2455
   23CHL1  H26C 1698   1.323   1.650   8.891 -0.9562  0.3188  1.2524
   23CHL1   C27 1699   1.547   1.651   8.758 -0.8211 -0.6513  0.0663
   23CHL1  H27A 1700   1.454   1.641   8.698 -2.3110  3.1198  1.6097
   23CHL1  H27B 1701   1.620   1.720   8.710 -1.6037  1.1342  1.3693
   23CHL1  H27C 1702   1.585   1.550   8.784  1.8892  0.0083 -1.1726
   24CHL1    C3 1703   3.661   3.888   9.990  0.0495  0.6576 -0.0719
   24CHL1    H3 1704   3.597   3.975  10.016 -3.8279 -2.4339  1.2455
   24CHL1    O3 1705   3.742   3.857  10.104 -0.1499  0.6213  0.0213
   24CHL1   H3' 1706   3.777   3.769  10.088  0.4950  0.8761  0.0341
   24CHL1    C4 1707   3.564   3.770   9.960  0.0704 -0.2632  0.1993
   24CHL1   H4A 1708   3.621   3.675   9.954 -0.1713 -0.3398 -1.0370
   24CHL1   H4B 1709   3.499   3.760  10.050  2.7648  1.0014  2.3561
   24CHL1    C5 1710   3.478   3.778   9.835  0.0957 -0.3975  1.1177
   24CHL1    C6 1711   3.346   3.759   9.840  0.1920  0.3712  0.3806
   24CHL1    H6 1712   3.303   3.724   9.935  0.1706  0.3798  0.3747
   24CHL1    C7 1713   3.255   3.778   9.715  0.4223  0.0744 -0.0538
   24CHL1   H7A 1714   3.193   3.687   9.700  1.6910 -1.1670  1.9749
   24CHL1   H7B 1715   3.191   3.867   9.733  1.8248  0.4343  3.6527
   24CHL1    C8 1716   3.337   3.791   9.582 -0.0873  0.3434  0.0332
   24CHL1    H8 1717   3.370   3.689   9.555 -0.3113  0.6632 -1.4626
   24CHL1   C14 1718   3.246   3.844   9.470  0.4683 -0.0264  0.5899
   24CHL1   H14 1719   3.206   3.945   9.495 -1.1407 -0.7294  0.8951
   24CHL1   C15 1720   3.109   3.774   9.435 -0.6074  0.1233 -0.6918
   24CHL1  H15A 1721   3.121   3.664   9.441  0.7569  0.3981  3.3570
   24CHL1  H15B 1722   3.039   3.819   9.510 -0.4149 -0.0977 -0.3781
   24CHL1   C16 1723   3.082   3.823   9.300 -0.6811  0.0196  0.2812
   24CHL1  H16A 1724   3.079   3.729   9.242 -6.6202  0.1153  0.0791
   24CHL1  H16B 1725   2.986   3.880   9.292  0.2506  1.5417 -0.3931
   24CHL1   C17 1726   3.203   3.904   9.249  0.4630  0.3980  0.4511
   24CHL1   H17 1727   3.171   4.009   9.270  1.2818  0.5092  1.1554
   24CHL1   C13 1728   3.321   3.868   9.336 -0.2916  0.2580  0.3101
   24CHL1   C18 1729   3.377   3.729   9.286  0.3235 -0.5056 -0.1631
   24CHL1  H18A 1730   3.291   3.676   9.239  0.3534  0.2392 -1.0654
   24CHL1  H18B 1731   3.465   3.744   9.219  1.7503 -0.6673  1.6560
   24CHL1  H18C 1732   3.425   3.672   9.368  0.6955  0.7348  0.4876
   24CHL1   C12 1733   3.430   3.977   9.363  0.2398  0.4067 -0.2182
   24CHL1  H12A 1734   3.491   3.994   9.271  0.9390 -1.3732 -0.1061
   24CHL1  H12B 1735   3.390   4.074   9.400 -0.8818  0.0923 -0.5958
   24CHL1   C11 1736   3.534   3.917   9.467  0.1666  0.7323  0.1582
   24CHL1  H11A 1737   3.578   3.824   9.423 -0.7332  0.5062 -0.2915
   24CHL1  H11B 1738   3.610   3.994   9.491  0.4971  0.4263  0.1020
   24CHL1    C9 1739   3.463   3.880   9.605  0.9972  0.1454 -0.0214
   24CHL1    H9 1740   3.416   3.977   9.632 -1.2755 -0.2092 -2.4350
   24CHL1   C10 1741   3.553   3.831   9.718 -0.2012  0.0426 -0.1678
   24CHL1   C19 1742   3.636   3.716   9.657 -0.3291 -0.1634  0.4790
   24CHL1  H19A 1743   3.571   3.638   9.611  1.5677 -1.2278 -0.4735
   24CHL1  H19B 1744   3.694   3.748   9.568 -1.5472  1.8162  0.3471
   24CHL1  H19C 1745   3.695   3.650   9.723 -0.3818 -0.5467  0.1439
   24CHL1    C1 1746   3.666   3.934   9.747 -0.4330  0.1713 -0.2081
   24CHL1   H1A 1747   3.737   3.932   9.662 -2.4175 -0.6821 -1.9022
   24CHL1   H1B 1748   3.608   4.027   9.763 -1.7921 -0.5436 -0.8256
   24CHL1    C2 1749   3.748   3.918   9.871 -0.2747  0.4858 -0.6600
   24CHL1   H2A 1750   3.815   4.000   9.905 -0.2468 -0.5412  1.8800
   24CHL1   H2B 1751   3.815   3.830   9.860  3.7879  3.4826 -0.9339
   24CHL1   C20 1752   3.226   3.888   9.098 -0.5647  0.0709  0.3726
   24CHL1   H20 1753   3.235   3.780   9.077 -1.1386 -0.0104  0.5552
   24CHL1   C21 1754   3.343   3.965   9.045  0.2575  0.0095  0.1376
   24CHL1  H21A 1755   3.351   4.060   9.102  1.5102  0.1359 -0.2385
   24CHL1  H21B 1756   3.333   3.977   8.935  1.5066 -1.7205 -0.1887
   24CHL1  H21C 1757   3.440   3.913   9.062 -0.4349 -1.8329 -1.2937
   24CHL1   C22 1758   3.102   3.938   9.022 -0.5146  0.1198 -0.6646
   24CHL1  H22A 1759   3.011   3.905   9.075  0.2695 -1.1198 -0.0597
   24CHL1  H22B 1760   3.104   4.049   9.023  0.5860  0.1090 -0.9201
   24CHL1   C23 1761   3.094   3.858   8.886 -0.3933  0.4948  0.5737
   24CHL1  H23A 1762   3.195   3.870   8.841 -0.2478  1.6768  1.1997
   24CHL1  H23B 1763   3.095   3.749   8.908  2.0316  0.5791  1.1127
   24CHL1   C24 1764   2.987   3.906   8.791 -0.2922  0.0167  0.3268
   24CHL1  H24A 1765   2.885   3.884   8.831 -0.0278  2.2605  2.3452
   24CHL1  H24B 1766   3.004   4.014   8.772  1.4912 -0.5851 -1.6889
   24CHL1   C25 1767   2.997   3.827   8.654  1.0500 -0.1591 -0.2758
   24CHL1   H25 1768   3.020   3.722   8.680  1.7115  0.0765  0.1341
   24CHL1   C26 1769   2.858   3.838   8.587  0.0698 -0.3628  0.7633
   24CHL1  H26A 1770   2.855   3.778   8.493 -1.2281 -1.1819  1.3103
   24CHL1  H26B 1771   2.777   3.796   8.650 -2.1966  3.4188  0.5381
   24CHL1  H26C 1772   2.846   3.943   8.553  1.4699  0.3566  2.4604
   24CHL1   C27 1773   3.089   3.897   8.560 -0.3370  0.1610 -0.0753
   24CHL1  H27A 1774   3.184   3.926   8.611 -1.5309  0.4320  2.0558
   24CHL1  H27B 1775   3.113   3.830   8.475  0.0895 -1.6301  1.4124
   24CHL1  H27C 1776   3.047   3.994   8.526  0.2877  0.6827  0.5938
   25CHL1    C3 1777   4.884   5.073  10.356  0.7068 -0.8411 -0.5944
   25CHL1    H3 1778   4.811   5.154  10.334  0.1618 -1.5290 -1.3604
   25CHL1    O3 1779   4.911   5.051  10.494 -0.3355 -0.2305 -0.5394
   25CHL1   H3' 1780   4.952   5.131  10.528  0.5782 -1.1361  0.5010
   25CHL1    C4 1781   4.827   4.942  10.293 -0.3925 -0.2623  0.2748
   25CHL1   H4A 1782   4.894   4.859  10.325  1.4181  1.3441  0.7834
   25CHL1   H4B 1783   4.729   4.908  10.332 -1.0881 -0.5553 -1.7132
   25CHL1    C5 1784   4.814   4.946  10.146  0.6544 -0.2281 -0.1634
   25CHL1    C6 1785   4.704   4.927  10.074 -0.5371 -0.4592 -0.3418
   25CHL1    H6 1786   4.602   4.905  10.110 -0.3537  1.5112  1.4287
   25CHL1    C7 1787   4.713   4.911   9.928 -0.4045  0.1695 -0.3471
   25CHL1   H7A 1788   4.672   4.813   9.895  1.0976 -0.9542  1.0562
   25CHL1   H7B 1789   4.663   4.991   9.869  0.1300  2.6946  2.4624
   25CHL1    C8 1790   4.852   4.905   9.865  0.1327 -0.2825 -0.4929
   25CHL1    H8 1791   4.888   4.801   9.873  0.8135 -0.0244 -0.1537
   25CHL1   C14 1792   4.843   4.948   9.716 -0.2669  1.4560  0.2676
   25CHL1   H14 1793   4.819   5.057   9.720 -0.0401  1.4620  2.4316
   25CHL1   C15 1794   4.736   4.891   9.631 -0.2505  0.1400  0.4732
   25CHL1  H15A 1795   4.733   4.782   9.654  0.7430 -0.0189 -0.1202
   25CHL1  H15B 1796   4.634   4.933   9.646  0.1059  2.0897 -2.0700
   25CHL1   C16 1797   4.771   4.909   9.490 -0.2913 -0.0853  0.1800
   25CHL1  H16A 1798   4.774   4.811   9.438  1.4204 -1.4020  2.6787
   25CHL1  H16B 1799   4.705   4.982   9.437  1.5218  2.8551  1.8421
   25CHL1   C17 1800   4.916   4.968   9.492 -0.3760  0.0300 -0.9476
   25CHL1   H17 1801   4.902   5.078   9.494 -0.8409  0.0592 -3.7590
   25CHL1   C13 1802   4.970   4.941   9.640  0.4246 -0.1398  0.5054
   25CHL1   C18 1803   5.028   4.798   9.637  0.9713  0.3299 -0.5171
   25CHL1  H18A 1804   4.964   4.734   9.573 -1.8719 -0.1194  2.6295
   25CHL1  H18B 1805   5.133   4.788   9.602 -0.1190 -3.5146 -2.9006
   25CHL1  H18C 1806   5.038   4.759   9.741  0.5028 -0.7638 -0.8787
   25CHL1   C12 1807   5.060   5.044   9.707 -0.1333  0.0182 -0.2566
   25CHL1  H12A 1808   5.159   5.036   9.656 -0.0539 -1.9541  0.1323
   25CHL1  H12B 1809   5.022   5.148   9.702 -0.7171 -0.1912 -0.2406
   25CHL1   C11 1810   5.077   5.009   9.852 -0.3803  0.5698 -0.0733
   25CHL1  H11A 1811   5.125   4.909   9.847 -0.1310  0.6700  0.3367
   25CHL1  H11B 1812   5.148   5.070   9.911  0.6819  1.2353 -1.9827
   25CHL1    C9 1813   4.943   5.006   9.932  0.0574  0.0146 -0.2568
   25CHL1    H9 1814   4.902   5.108   9.919  1.3633  0.5705  0.0117
   25CHL1   C10 1815   4.950   4.980  10.086 -0.5378  0.0829 -0.0742
   25CHL1   C19 1816   5.060   4.868  10.105 -0.6918 -0.1482 -0.0228
   25CHL1  H19A 1817   5.160   4.913  10.090 -1.2015  0.7043 -0.9674
   25CHL1  H19B 1818   5.054   4.816  10.203 -2.7014 -0.9274 -0.5247
   25CHL1  H19C 1819   5.048   4.788  10.029  0.6915 -1.3885  1.0516
   25CHL1    C1 1820   5.012   5.111  10.144 -0.2766  0.8389  0.1744
   25CHL1   H1A 1821   5.110   5.136  10.100  1.0188 -1.4435  1.6948
   25CHL1   H1B 1822   4.952   5.197  10.108 -0.1482  0.5504 -0.7453
   25CHL1    C2 1823   5.016   5.107  10.294  0.2793 -0.1086  0.5515
   25CHL1   H2A 1824   5.054   5.205  10.331  0.6307  0.8962 -2.2896
   25CHL1   H2B 1825   5.092   5.031  10.321 -0.0300 -0.0680  1.5445
   25CHL1   C20 1826   5.006   4.936   9.375  0.0357  0.0135  0.5301
   25CHL1   H20 1827   5.028   4.827   9.382 -2.0610 -0.3703  1.5284
   25CHL1   C21 1828   5.136   5.021   9.373  0.8538  0.0021 -0.3215
   25CHL1  H21A 1829   5.101   5.126   9.374  0.3898 -0.1541  0.5275
   25CHL1  H21B 1830   5.190   5.001   9.278 -2.9901 -2.0064 -2.2030
   25CHL1  H21C 1831   5.194   4.983   9.460 -2.3098 -1.6078  1.1884
   25CHL1   C22 1832   4.920   4.941   9.249 -0.0386 -0.1643  0.2613
   25CHL1  H22A 1833   4.836   4.868   9.260 -0.6396  0.6977  1.4814
   25CHL1  H22B 1834   4.881   5.044   9.240 -2.3664 -0.9601  0.8592
   25CHL1   C23 1835   5.001   4.923   9.115  0.2410 -0.2699  0.6076
   25CHL1  H23A 1836   5.075   5.006   9.109 -1.6454  1.3705 -0.1338
   25CHL1  H23B 1837   5.067   4.833   9.117 -1.9026 -1.9205 -1.2911
   25CHL1   C24 1838   4.898   4.931   9.001 -0.5647  0.0123  0.8199
   25CHL1  H24A 1839   4.806   4.872   9.019  0.7870 -1.4215  3.2827
   25CHL1  H24B 1840   4.868   5.037   8.992  1.3126  0.5509  0.7767
   25CHL1   C25 1841   4.961   4.876   8.871 -0.0044  0.4293  0.2669
   25CHL1   H25 1842   5.064   4.917   8.868 -0.4994  1.7126  0.5287
   25CHL1   C26 1843   4.974   4.729   8.872  0.1057  0.1108  0.8073
   25CHL1  H26A 1844   5.043   4.699   8.954  0.0500 -0.0486  0.7974
   25CHL1  H26B 1845   4.872   4.685   8.874 -1.5773  3.8589  1.3012
   25CHL1  H26C 1846   5.033   4.699   8.782 -1.9748 -0.9678 -0.2435
   25CHL1   C27 1847   4.902   4.936   8.747  0.3295  0.0963 -0.1846
   25CHL1  H27A 1848   4.878   5.044   8.752  0.7239  0.1654  0.2625
   25CHL1  H27B 1849   4.968   4.928   8.658 -0.6198  1.6906 -1.0632
   25CHL1  H27C 1850   4.809   4.886   8.712  0.9402 -1.2857  0.1232
   26CHL1    C3 1851   6.282   1.247  10.088 -0.0721 -0.9724 -0.1236
   26CHL1    H3 1852   6.313   1.140  10.078  0.3277 -1.0952  2.1961
   26CHL1    O3 1853   6.339   1.308  10.204  0.3332 -0.2568  0.0151
   26CHL1   H3' 1854   6.292   1.391  10.196 -0.8798 -1.1743 -3.1844
   26CHL1    C4 1855   6.343   1.328   9.970 -0.5786  0.3798 -0.1726
   26CHL1   H4A 1856   6.338   1.436   9.993 -0.2966  0.4743 -0.5474
   26CHL1   H4B 1857   6.449   1.300   9.958 -0.7812  0.1819 -1.5984
   26CHL1    C5 1858   6.273   1.288   9.837 -0.1770 -0.2110 -0.7933
   26CHL1    C6 1859   6.347   1.254   9.725  0.6172  0.3870  0.2241
   26CHL1    H6 1860   6.456   1.261   9.720  0.6457 -0.4103 -0.3875
   26CHL1    C7 1861   6.287   1.224   9.592 -0.4330  0.2168 -0.3570
   26CHL1   H7A 1862   6.344   1.266   9.506 -0.5544  0.4081 -0.3451
   26CHL1   H7B 1863   6.303   1.115   9.576  0.9741  0.1933  1.0883
   26CHL1    C8 1864   6.139   1.248   9.583 -0.0105  0.3781 -0.0391
   26CHL1    H8 1865   6.116   1.356   9.571  0.1726  0.3888 -0.2832
   26CHL1   C14 1866   6.090   1.165   9.468  0.7585 -0.1161  0.3732
   26CHL1   H14 1867   6.100   1.057   9.495 -1.2658 -0.7102 -1.1960
   26CHL1   C15 1868   6.158   1.183   9.338 -0.1302 -0.3566 -0.1596
   26CHL1  H15A 1869   6.185   1.288   9.312  2.0577 -0.6691  0.7841
   26CHL1  H15B 1870   6.243   1.113   9.321  0.7556  1.0363 -1.6636
   26CHL1   C16 1871   6.052   1.126   9.234 -0.2689 -0.6476 -0.0190
   26CHL1  H16A 1872   6.031   1.200   9.154  1.9108  1.5827  1.4023
   26CHL1  H16B 1873   6.085   1.026   9.199  0.3554 -1.2341  2.1260
   26CHL1   C17 1874   5.926   1.096   9.321  1.0521  0.3844 -0.0152
   26CHL1   H17 1875   5.939   0.992   9.357 -0.3456 -0.0067 -0.6341
   26CHL1   C13 1876   5.939   1.176   9.453 -0.2146  0.4102 -0.4839
   26CHL1   C18 1877   5.898   1.327   9.413  0.1185 -0.3692 -0.3606
   26CHL1  H18A 1878   5.908   1.392   9.502 -0.5324  0.6739 -1.0388
   26CHL1  H18B 1879   5.959   1.366   9.329 -0.4713  2.0385  0.3050
   26CHL1  H18C 1880   5.788   1.328   9.394 -0.1333  2.0268  1.0163
   26CHL1   C12 1881   5.873   1.126   9.582  0.1946  0.7018  0.2191
   26CHL1  H12A 1882   5.766   1.154   9.573  0.0730  0.0495 -0.4313
   26CHL1  H12B 1883   5.878   1.015   9.595  1.1469  0.7157  0.0315
   26CHL1   C11 1884   5.918   1.200   9.703  0.0121  0.5637  0.4112
   26CHL1  H11A 1885   5.870   1.299   9.714 -1.1227 -0.1068  1.6358
   26CHL1  H11B 1886   5.882   1.135   9.786  0.5325  0.7307  0.7731
   26CHL1    C9 1887   6.070   1.206   9.713 -0.0888 -0.0364  0.3669
   26CHL1    H9 1888   6.104   1.100   9.713  0.0630  0.0097  0.8048
   26CHL1   C10 1889   6.117   1.273   9.842  0.2479 -0.1203  0.2654
   26CHL1   C19 1890   6.074   1.421   9.843  0.0208  0.2403 -0.0600
   26CHL1  H19A 1891   6.103   1.476   9.751 -0.6979 -1.4141 -1.2973
   26CHL1  H19B 1892   5.963   1.429   9.845  0.0716  0.8294  0.3773
   26CHL1  H19C 1893   6.107   1.481   9.931 -2.1378 -0.3305  1.1770
   26CHL1    C1 1894   6.063   1.195   9.968 -0.5830 -0.6462 -0.1398
   26CHL1   H1A 1895   5.954   1.213   9.980 -0.7523 -0.6247 -1.6394
   26CHL1   H1B 1896   6.092   1.088   9.956 -0.1481 -0.5507  0.0416
   26CHL1    C2 1897   6.135   1.252  10.092 -0.4427 -1.0493 -0.9455
   26CHL1   H2A 1898   6.094   1.190  10.174 -0.4003 -0.1273 -0.2155
   26CHL1   H2B 1899   6.100   1.357  10.106 -2.0172 -1.4582 -1.6845
   26CHL1   C20 1900   5.794   1.096   9.238  0.7068  0.0539 -0.1760
   26CHL1   H20 1901   5.768   1.186   9.178 -0.7620 -1.2974 -1.5687
   26CHL1   C21 1902   5.677   1.057   9.333 -0.5355  0.8130  0.1980
   26CHL1  H21A 1903   5.582   1.036   9.278 -0.4232  0.8252 -0.0023
   26CHL1  H21B 1904   5.659   1.139   9.405 -1.2823  0.8292  0.0006
   26CHL1  H21C 1905   5.694   0.956   9.377  1.5452  0.6371 -0.9534
   26CHL1   C22 1906   5.809   0.980   9.134  0.6418 -0.4179 -1.4108
   26CHL1  H22A 1907   5.895   0.997   9.065  0.6620  0.6436 -1.1401
   26CHL1  H22B 1908   5.824   0.894   9.202  1.5622  0.7108 -0.1549
   26CHL1   C23 1909   5.688   0.969   9.037  1.0937 -0.6765 -0.2607
   26CHL1  H23A 1910   5.729   0.904   8.956  0.0338 -0.8736 -0.6418
   26CHL1  H23B 1911   5.607   0.914   9.089  0.6498 -1.3834 -1.6736
   26CHL1   C24 1912   5.655   1.096   8.962  0.0791  0.0049 -0.1069
   26CHL1  H24A 1913   5.610   1.170   9.032  1.1194 -1.1568  1.8348
   26CHL1  H24B 1914   5.748   1.137   8.919 -0.3624  0.7411 -0.3598
   26CHL1   C25 1915   5.552   1.065   8.846 -0.2114  0.7322  0.1663
   26CHL1   H25 1916   5.590   0.977   8.790  1.5624  0.6195  1.4908
   26CHL1   C26 1917   5.414   1.013   8.905  0.0815  0.9389  0.2641
   26CHL1  H26A 1918   5.376   1.088   8.977  1.0824 -1.0967  2.9839
   26CHL1  H26B 1919   5.339   1.003   8.823  0.5662 -0.7553  0.0231
   26CHL1  H26C 1920   5.432   0.912   8.947  1.0916 -0.4004 -3.2006
   26CHL1   C27 1921   5.528   1.186   8.753 -0.2207  0.0969  0.5344
   26CHL1  H27A 1922   5.465   1.155   8.666  0.2338  2.8513 -0.8329
   26CHL1  H27B 1923   5.496   1.281   8.800 -1.3041  0.1317 -0.2374
   26CHL1  H27C 1924   5.621   1.209   8.697 -0.6136  0.3940 -0.0087
   27CHL1    C3 1925   5.445   4.918  10.301 -0.0282 -0.0501 -0.8389
   27CHL1    H3 1926   5.335   4.923  10.287  0.1005  1.1553 -1.4851
   27CHL1    O3 1927   5.480   4.909  10.440 -0.7422  0.0411 -0.0321
   27CHL1   H3' 1928   5.431   4.833  10.471  0.1092 -0.0032  1.2230
   27CHL1    C4 1929   5.497   4.794  10.230  0.1162  0.5137  0.4839
   27CHL1   H4A 1930   5.606   4.786  10.247 -0.0682 -1.9704  0.6073
   27CHL1   H4B 1931   5.443   4.707  10.273  0.2640  0.2261  0.0793
   27CHL1    C5 1932   5.477   4.800  10.081  0.6153 -0.2548  0.2310
   27CHL1    C6 1933   5.406   4.703  10.017  0.1713  0.0441  0.1224
   27CHL1    H6 1934   5.358   4.618  10.068 -0.1040 -0.1274 -0.4116
   27CHL1    C7 1935   5.376   4.699   9.872 -1.1082 -0.4287 -0.3499
   27CHL1   H7A 1936   5.407   4.600   9.833  0.4810 -0.0110 -0.1779
   27CHL1   H7B 1937   5.275   4.737   9.846 -0.3053  1.0940 -1.3295
   27CHL1    C8 1938   5.478   4.792   9.797 -0.5871 -0.6214  0.0652
   27CHL1    H8 1939   5.578   4.744   9.803  0.8923  2.2511 -0.6381
   27CHL1   C14 1940   5.451   4.804   9.642  0.2426 -0.7360 -0.0558
   27CHL1   H14 1941   5.344   4.833   9.635  0.1336 -1.2260 -0.4558
   27CHL1   C15 1942   5.449   4.678   9.555  0.1941  0.1880  0.6260
   27CHL1  H15A 1943   5.551   4.637   9.567 -0.8570 -2.1610  1.8716
   27CHL1  H15B 1944   5.376   4.603   9.592  1.3243 -0.6327  1.2231
   27CHL1   C16 1945   5.416   4.732   9.415  0.1581  0.4662  0.5630
   27CHL1  H16A 1946   5.455   4.666   9.334 -0.4678 -0.5321  1.0587
   27CHL1  H16B 1947   5.305   4.737   9.417  0.2535  3.4839 -0.3378
   27CHL1   C17 1948   5.473   4.882   9.413 -0.1465  0.2233 -1.0017
   27CHL1   H17 1949   5.386   4.949   9.393 -0.1552  1.0852  1.7551
   27CHL1   C13 1950   5.523   4.908   9.562  0.7019 -0.7690  0.3895
   27CHL1   C18 1951   5.672   4.876   9.576 -0.0259  0.8343  0.7981
   27CHL1  H18A 1952   5.700   4.781   9.525  0.7484 -0.3192  3.2643
   27CHL1  H18B 1953   5.741   4.953   9.536  0.6745 -0.4646 -0.5694
   27CHL1  H18C 1954   5.710   4.869   9.680 -0.1456  3.4721  1.0553
   27CHL1   C12 1955   5.496   5.049   9.626 -0.1868 -0.2988  0.0794
   27CHL1  H12A 1956   5.545   5.133   9.572  1.3765 -2.3010 -1.7114
   27CHL1  H12B 1957   5.386   5.063   9.619  0.0513  1.3596 -0.7968
   27CHL1   C11 1958   5.546   5.048   9.778  0.4089  0.2984 -0.5196
   27CHL1  H11A 1959   5.654   5.019   9.784  0.5265  1.0749  1.2090
   27CHL1  H11B 1960   5.531   5.141   9.836 -0.3191 -0.4246  0.4746
   27CHL1    C9 1961   5.482   4.933   9.862  0.4083  0.0049 -0.4503
   27CHL1    H9 1962   5.374   4.957   9.855  0.9932  2.3923 -2.0850
   27CHL1   C10 1963   5.529   4.926  10.007 -0.5679  0.6026  0.1412
   27CHL1   C19 1964   5.683   4.918  10.012 -0.2391  0.2538 -0.8935
   27CHL1  H19A 1965   5.724   5.011   9.967 -1.8966  0.9722 -0.9571
   27CHL1  H19B 1966   5.720   4.898  10.114 -0.7892 -1.9044 -1.0990
   27CHL1  H19C 1967   5.725   4.829   9.962  1.3700 -1.4492  3.2980
   27CHL1    C1 1968   5.477   5.054  10.090 -0.1457 -0.2179 -0.4514
   27CHL1   H1A 1969   5.526   5.143  10.045  2.6136 -0.8321  1.1515
   27CHL1   H1B 1970   5.367   5.050  10.078 -0.1822 -1.5293  0.1433
   27CHL1    C2 1971   5.502   5.050  10.242  0.0672 -0.3443  0.1129
   27CHL1   H2A 1972   5.441   5.138  10.273 -0.6506 -0.5941 -0.5684
   27CHL1   H2B 1973   5.608   5.074  10.264 -0.4711  1.6180  0.7064
   27CHL1   C20 1974   5.563   4.909   9.295  0.0474 -0.1890 -0.6116
   27CHL1   H20 1975   5.646   4.836   9.290  1.0115  1.0057 -2.5991
   27CHL1   C21 1976   5.614   5.058   9.305 -0.7937  0.0966 -0.6859
   27CHL1  H21A 1977   5.680   5.082   9.391 -0.3096 -2.2212 -0.3909
   27CHL1  H21B 1978   5.522   5.121   9.308 -1.8844 -1.5006  0.0666
   27CHL1  H21C 1979   5.673   5.081   9.214  0.9532 -0.8226  0.2034
   27CHL1   C22 1980   5.492   4.895   9.160 -0.6963  0.1429  0.3299
   27CHL1  H22A 1981   5.423   4.808   9.162 -0.9067  0.2868 -0.4695
   27CHL1  H22B 1982   5.422   4.980   9.144 -0.1213 -0.0974 -4.1072
   27CHL1   C23 1983   5.589   4.879   9.044  0.4260 -0.3928 -0.3682
   27CHL1  H23A 1984   5.614   4.979   9.003 -2.0890  0.7921  0.8939
   27CHL1  H23B 1985   5.687   4.833   9.069  2.5569  2.9512 -2.2465
   27CHL1   C24 1986   5.536   4.787   8.927 -0.3218 -0.0887 -0.3655
   27CHL1  H24A 1987   5.609   4.800   8.844 -0.0895 -0.8292 -0.2831
   27CHL1  H24B 1988   5.527   4.682   8.960  1.2634 -0.1450 -0.0500
   27CHL1   C25 1989   5.393   4.834   8.883 -0.0568 -0.0053 -0.0581
   27CHL1   H25 1990   5.319   4.819   8.965  1.5363  0.1405  1.4423
   27CHL1   C26 1991   5.387   4.985   8.841  0.8818 -0.0527 -0.5038
   27CHL1  H26A 1992   5.459   5.014   8.762  2.7408 -2.6853  0.1629
   27CHL1  H26B 1993   5.282   5.015   8.816  1.2417  2.0458  0.4036
   27CHL1  H26C 1994   5.419   5.039   8.932 -2.6616  1.6057 -0.1216
   27CHL1   C27 1995   5.342   4.751   8.771  0.2444 -0.1219 -0.4135
   27CHL1  H27A 1996   5.404   4.767   8.681  1.1483  0.5907  0.3231
   27CHL1  H27B 1997   5.347   4.642   8.792 -0.5159 -0.5508 -2.3773
   27CHL1  H27C 1998   5.237   4.784   8.755 -0.1961 -0.5989  1.3745
   28CHL1    C3 1999   4.173   2.840   9.998  0.2837 -0.2770 -0.4519
   28CHL1    H3 2000   4.264   2.793   9.954  0.7469  1.0414 -0.9202
   28CHL1    O3 2001   4.198   2.849  10.138 -0.2182 -0.4409 -0.2304
   28CHL1   H3' 2002   4.202   2.756  10.162 -1.4554 -0.3409  0.3571
   28CHL1    C4 2003   4.149   2.976   9.943 -0.4892 -0.0560 -0.9171
   28CHL1   H4A 2004   4.065   3.025   9.997 -0.1740  0.7943 -1.1959
   28CHL1   H4B 2005   4.236   3.040   9.968 -1.6255  1.0000  0.4288
   28CHL1    C5 2006   4.127   2.972   9.792  0.0831  0.6868 -0.2930
   28CHL1    C6 2007   4.203   3.037   9.696  0.1535 -0.0732 -0.9016
   28CHL1    H6 2008   4.279   3.105   9.735 -0.2418 -0.0524 -0.1660
   28CHL1    C7 2009   4.175   3.042   9.553  0.0665 -0.0309 -0.5883
   28CHL1   H7A 2010   4.196   3.144   9.514 -3.3972  1.3175  0.8487
   28CHL1   H7B 2011   4.232   2.964   9.500  1.0112 -0.0575  0.4543
   28CHL1    C8 2012   4.027   2.998   9.522 -0.1718  0.7683  0.3360
   28CHL1    H8 2013   3.951   3.073   9.553 -0.1330  1.2550 -0.7202
   28CHL1   C14 2014   4.014   2.967   9.379 -0.2112  0.0570 -0.5651
   28CHL1   H14 2015   4.082   2.886   9.344 -1.7478 -0.9415 -1.3028
   28CHL1   C15 2016   4.046   3.085   9.279 -0.2600  0.3641 -0.8028
   28CHL1  H15A 2017   4.002   3.176   9.326 -0.4677 -0.1328 -0.0204
   28CHL1  H15B 2018   4.156   3.098   9.265 -0.0684  0.2733  0.5468
   28CHL1   C16 2019   3.975   3.044   9.150  0.1582 -0.2210  0.0298
   28CHL1  H16A 2020   3.914   3.129   9.113  0.5247  0.7523  1.5977
   28CHL1  H16B 2021   4.043   3.029   9.063 -0.9191 -2.7421 -0.4163
   28CHL1   C17 2022   3.898   2.913   9.180  0.2006 -0.2894  0.2734
   28CHL1   H17 2023   3.961   2.827   9.150  1.1086  0.9664 -1.5085
   28CHL1   C13 2024   3.878   2.913   9.333  0.3620  0.1964 -0.7771
   28CHL1   C18 2025   3.757   3.007   9.370  0.2076  0.3163 -0.2064
   28CHL1  H18A 2026   3.662   2.958   9.341  0.9561  0.0868 -2.4287
   28CHL1  H18B 2027   3.751   3.020   9.480 -0.4531  2.9717 -0.5152
   28CHL1  H18C 2028   3.756   3.108   9.325 -1.5154  0.2163 -0.4089
   28CHL1   C12 2029   3.864   2.777   9.392  0.2924 -0.1882 -0.7548
   28CHL1  H12A 2030   3.762   2.735   9.380  1.7112 -3.3951 -2.4243
   28CHL1  H12B 2031   3.939   2.708   9.347  1.6346 -0.4646  1.8334
   28CHL1   C11 2032   3.883   2.784   9.543  0.2381  0.0077 -0.1250
   28CHL1  H11A 2033   3.795   2.838   9.585 -0.8964 -1.2042 -0.8800
   28CHL1  H11B 2034   3.893   2.678   9.575  0.0158 -0.1860 -0.6859
   28CHL1    C9 2035   4.002   2.863   9.603  0.2079  0.2598 -0.6813
   28CHL1    H9 2036   4.095   2.807   9.576  0.0141  0.5250 -1.9663
   28CHL1   C10 2037   4.007   2.881   9.758  0.6832  0.2285  0.1918
   28CHL1   C19 2038   3.884   2.956   9.806 -0.2136 -0.4433 -0.6445
   28CHL1  H19A 2039   3.875   2.992   9.911 -0.0533 -1.1022 -0.4063
   28CHL1  H19B 2040   3.851   3.047   9.751  0.5713  0.2822  0.0734
   28CHL1  H19C 2041   3.798   2.886   9.798 -1.2049  0.4034  1.9147
   28CHL1    C1 2042   4.010   2.741   9.830 -0.5219  0.0014  0.4730
   28CHL1   H1A 2043   3.909   2.694   9.828 -0.4665 -0.0667 -1.4372
   28CHL1   H1B 2044   4.076   2.676   9.769  0.0517  0.7598  0.2812
   28CHL1    C2 2045   4.049   2.756   9.979  0.1790 -0.1408  0.0770
   28CHL1   H2A 2046   4.063   2.654  10.022 -2.4905  0.5510  2.8274
   28CHL1   H2B 2047   3.967   2.807  10.035  1.2489 -1.1268  2.6185
   28CHL1   C20 2048   3.772   2.896   9.086  0.8760  1.0250 -0.1993
   28CHL1   H20 2049   3.698   2.975   9.114  1.0588  1.9298 -2.1408
   28CHL1   C21 2050   3.704   2.762   9.128  0.0429  0.9265  0.3177
   28CHL1  H21A 2051   3.624   2.740   9.055  1.0097 -1.2465 -0.1040
   28CHL1  H21B 2052   3.656   2.769   9.228  1.5878 -2.0019  1.3293
   28CHL1  H21C 2053   3.778   2.680   9.124 -1.9399 -0.8183 -1.4396
   28CHL1   C22 2054   3.802   2.896   8.935  0.5489 -0.0065 -0.0583
   28CHL1  H22A 2055   3.871   2.980   8.914  0.0128  0.8219  1.3715
   28CHL1  H22B 2056   3.860   2.805   8.907  1.0552 -0.0191  0.9913
   28CHL1   C23 2057   3.677   2.918   8.848  0.4028  0.2545  0.2705
   28CHL1  H23A 2058   3.698   2.903   8.740  1.8758  0.2942  0.5360
   28CHL1  H23B 2059   3.613   2.830   8.868  3.1572 -2.0227 -0.5988
   28CHL1   C24 2060   3.597   3.048   8.877  0.2025 -0.2031  0.2361
   28CHL1  H24A 2061   3.540   3.037   8.971  1.6052  0.3036  1.1724
   28CHL1  H24B 2062   3.664   3.132   8.906  0.1868 -0.0343 -0.2117
   28CHL1   C25 2063   3.499   3.083   8.760  0.1905 -0.8929 -0.6740
   28CHL1   H25 2064   3.414   3.142   8.799  2.1530  0.6317  1.3747
   28CHL1   C26 2065   3.567   3.177   8.659 -0.0318  0.3126 -0.1630
   28CHL1  H26A 2066   3.603   3.261   8.722 -0.6786  0.3002  0.2328
   28CHL1  H26B 2067   3.647   3.124   8.603 -0.3866 -0.4224  0.0210
   28CHL1  H26C 2068   3.487   3.215   8.593 -1.3809 -3.3157 -0.7189
   28CHL1   C27 2069   3.438   2.962   8.697  0.5452 -0.7814 -0.6207
   28CHL1  H27A 2070   3.497   2.896   8.630 -0.1299 -0.8073 -1.1939
   28CHL1  H27B 2071   3.381   2.906   8.775 -0.0387 -1.6635 -1.6677
   28CHL1  H27C 2072   3.354   3.005   8.639 -0.1178 -2.8784 -1.2810
   29CHL1    C3 2073   6.244   1.486   6.711 -0.2932 -0.2963 -0.3697
   29CHL1    H3 2074   6.201   1.385   6.727 -0.9765 -0.0422 -0.6099
   29CHL1    O3 2075   6.294   1.515   6.579 -0.3924  0.1640 -0.1549
   29CHL1   H3' 2076   6.315   1.609   6.582 -0.4661  0.1483  1.0431
   29CHL1    C4 2077   6.134   1.593   6.758 -0.3416  0.2854  0.2510
   29CHL1   H4A 2078   6.164   1.695   6.725 -1.6791  0.2523 -1.1005
   29CHL1   H4B 2079   6.041   1.577   6.699 -0.0319 -1.1435  0.1216
   29CHL1    C5 2080   6.105   1.600   6.908 -0.3637 -0.0380  0.4703
   29CHL1    C6 2081   5.973   1.586   6.942 -0.0905 -0.8151  0.1910
   29CHL1    H6 2082   5.903   1.599   6.858  1.7200  1.8902 -0.9516
   29CHL1    C7 2083   5.928   1.600   7.082  0.4794  0.6016 -0.3925
   29CHL1   H7A 2084   5.841   1.669   7.084  0.7292  0.9165 -0.2740
   29CHL1   H7B 2085   5.903   1.501   7.125 -1.0781  1.4292  0.6853
   29CHL1    C8 2086   6.043   1.652   7.178 -0.2329 -0.3063 -0.0737
   29CHL1    H8 2087   6.072   1.758   7.165  0.6119 -0.2923  1.7427
   29CHL1   C14 2088   6.009   1.617   7.325 -0.2687 -0.4505  0.3922
   29CHL1   H14 2089   5.985   1.510   7.338 -1.9888 -0.1060  0.2770
   29CHL1   C15 2090   5.884   1.677   7.376 -0.5179 -0.0686  0.2249
   29CHL1  H15A 2091   5.897   1.781   7.339 -1.0963  0.3991  1.3177
   29CHL1  H15B 2092   5.784   1.633   7.353 -1.6583  1.0822  2.7370
   29CHL1   C16 2093   5.901   1.675   7.534 -0.2981 -0.4789 -0.2685
   29CHL1  H16A 2094   5.887   1.780   7.567 -0.2821 -0.8243  0.8670
   29CHL1  H16B 2095   5.818   1.615   7.579  1.1534 -1.6370  0.9185
   29CHL1   C17 2096   6.050   1.623   7.556  0.1951 -0.1608  0.1928
   29CHL1   H17 2097   6.045   1.513   7.562  1.8736 -0.3507 -1.4311
   29CHL1   C13 2098   6.117   1.652   7.425 -0.7404 -0.1937  0.2119
   29CHL1   C18 2099   6.147   1.807   7.411  0.5171  0.6025 -0.1432
   29CHL1  H18A 2100   6.054   1.859   7.440  0.6473  0.5108  0.4430
   29CHL1  H18B 2101   6.231   1.833   7.479  0.1412  2.3936 -0.3559
   29CHL1  H18C 2102   6.177   1.831   7.306  0.3798  1.4908  0.0173
   29CHL1   C12 2103   6.242   1.567   7.382 -0.9919 -0.0812 -0.3283
   29CHL1  H12A 2104   6.332   1.581   7.446 -2.3195  0.5916  1.4642
   29CHL1  H12B 2105   6.216   1.461   7.401  0.0581 -0.2070  0.4369
   29CHL1   C11 2106   6.283   1.593   7.242 -0.0153  0.1486  0.2188
   29CHL1  H11A 2107   6.328   1.695   7.247 -1.0471  0.7692 -2.3119
   29CHL1  H11B 2108   6.366   1.523   7.217  0.2277 -0.2897  2.1646
   29CHL1    C9 2109   6.173   1.579   7.137  0.9376 -0.8500  0.5899
   29CHL1    H9 2110   6.155   1.470   7.144  0.4925 -0.8222 -0.0710
   29CHL1   C10 2111   6.223   1.604   6.998 -0.8179 -0.0996  0.0906
   29CHL1   C19 2112   6.287   1.746   6.989  0.7456 -0.2709 -0.0896
   29CHL1  H19A 2113   6.220   1.807   7.054 -1.1637 -2.4230  0.0197
   29CHL1  H19B 2114   6.387   1.750   7.037  0.9872  0.9448 -0.6842
   29CHL1  H19C 2115   6.287   1.802   6.893  1.0518  0.8041  0.5322
   29CHL1    C1 2116   6.325   1.491   6.955  0.0911  0.5192 -0.9210
   29CHL1   H1A 2117   6.418   1.499   7.015 -1.2317  0.9278  1.1197
   29CHL1   H1B 2118   6.286   1.391   6.982 -0.2999  0.8813 -0.1191
   29CHL1    C2 2119   6.359   1.499   6.812 -0.7232  0.1984  0.7653
   29CHL1   H2A 2120   6.418   1.407   6.794 -0.5108 -0.0882  2.7927
   29CHL1   H2B 2121   6.422   1.589   6.796 -2.3355  1.4131  1.0032
   29CHL1   C20 2122   6.092   1.673   7.693  0.0947  0.2527  0.5891
   29CHL1   H20 2123   6.101   1.783   7.686 -0.0655  0.1382 -1.8878
   29CHL1   C21 2124   6.233   1.619   7.719 -0.2684  0.0517  0.0947
   29CHL1  H21A 2125   6.305   1.653   7.641 -0.1015  1.6485  0.9094
   29CHL1  H21B 2126   6.233   1.510   7.699  1.0452  0.3660 -1.8341
   29CHL1  H21C 2127   6.262   1.647   7.822 -0.2568  1.4204 -0.2611
   29CHL1   C22 2128   5.998   1.637   7.807  0.8199 -0.1847 -0.4135
   29CHL1  H22A 2129   5.911   1.706   7.796 -1.3888 -2.9763 -0.9389
   29CHL1  H22B 2130   5.967   1.533   7.785  1.1070  0.2148 -2.8727
   29CHL1   C23 2131   6.049   1.663   7.951  1.0766  0.2293  0.0406
   29CHL1  H23A 2132   6.128   1.588   7.976  0.2376 -0.2440  1.3165
   29CHL1  H23B 2133   6.083   1.766   7.975  0.6385  0.7961 -1.6743
   29CHL1   C24 2134   5.936   1.628   8.051  0.1444  0.3775 -0.3604
   29CHL1  H24A 2135   5.846   1.690   8.031 -0.0951  0.2437  0.3105
   29CHL1  H24B 2136   5.907   1.521   8.044  0.3809  0.2992 -0.1160
   29CHL1   C25 2137   5.990   1.658   8.190  0.2990 -0.5022 -0.6733
   29CHL1   H25 2138   6.100   1.645   8.199  0.1144 -1.5026  0.1952
   29CHL1   C26 2139   5.956   1.805   8.218 -0.0204  0.5573 -0.4989
   29CHL1  H26A 2140   5.980   1.839   8.321  0.6288  1.2594 -0.8854
   29CHL1  H26B 2141   6.006   1.875   8.148 -0.5437  1.0386 -0.3958
   29CHL1  H26C 2142   5.848   1.829   8.209 -0.0173  0.9955  0.5143
   29CHL1   C27 2143   5.935   1.562   8.302  0.7770 -0.1586  0.3397
   29CHL1  H27A 2144   5.824   1.566   8.295  0.8504  1.7244 -0.1624
   29CHL1  H27B 2145   5.969   1.457   8.293 -0.2038 -0.3634 -1.2587
   29CHL1  H27C 2146   5.968   1.599   8.401 -0.3287  0.3002  0.5522
   30CHL1    C3 2147   4.246   0.415   7.314  0.3364 -0.0497  0.4771
   30CHL1    H3 2148   4.350   0.399   7.350  0.5219  0.7957  0.3324
   30CHL1    O3 2149   4.234   0.377   7.176  0.2070  0.1471  0.0623
   30CHL1   H3' 2150   4.273   0.449   7.126 -0.1808 -0.1490 -0.6871
   30CHL1    C4 2151   4.150   0.325   7.401  0.9831 -0.9421 -0.3631
   30CHL1   H4A 2152   4.046   0.328   7.364  0.2521  1.6188  1.7203
   30CHL1   H4B 2153   4.181   0.220   7.384 -1.7853 -2.2636  2.2882
   30CHL1    C5 2154   4.154   0.375   7.548 -0.3760 -0.1496 -0.4260
   30CHL1    C6 2155   4.190   0.279   7.636  0.1858 -0.4669 -0.3620
   30CHL1    H6 2156   4.198   0.174   7.607  1.1489 -0.3877 -0.3791
   30CHL1    C7 2157   4.219   0.313   7.778 -0.4837 -0.5711  0.0385
   30CHL1   H7A 2158   4.190   0.232   7.849 -2.0657  0.4340  0.5690
   30CHL1   H7B 2159   4.325   0.343   7.791 -0.5997 -0.7172  1.3191
   30CHL1    C8 2160   4.145   0.446   7.820  0.0099  0.7015 -0.9851
   30CHL1    H8 2161   4.038   0.417   7.821  0.5480 -1.4067 -0.6549
   30CHL1   C14 2162   4.198   0.484   7.958 -0.0483  0.0674  0.1950
   30CHL1   H14 2163   4.305   0.514   7.950 -0.3489  0.7005 -1.7715
   30CHL1   C15 2164   4.195   0.382   8.067  0.0717  0.5292 -0.0880
   30CHL1  H15A 2165   4.096   0.334   8.051  1.0726 -1.4276 -0.6431
   30CHL1  H15B 2166   4.267   0.297   8.070 -0.8393 -0.1900  1.7380
   30CHL1   C16 2167   4.213   0.459   8.192  0.9010  0.8018  0.0487
   30CHL1  H16A 2168   4.124   0.434   8.252  1.3503  2.6219  1.5270
   30CHL1  H16B 2169   4.304   0.427   8.247 -0.6570 -1.2128  1.5081
   30CHL1   C17 2170   4.205   0.616   8.162  0.2703  1.2089  0.6267
   30CHL1   H17 2171   4.307   0.655   8.145  0.6371 -0.6899 -1.7018
   30CHL1   C13 2172   4.135   0.615   8.021 -0.0128  0.3162 -0.4202
   30CHL1   C18 2173   3.980   0.601   8.031  0.6491  0.4691  0.0068
   30CHL1  H18A 2174   3.941   0.579   7.930  0.7807  0.1291  0.0299
   30CHL1  H18B 2175   3.951   0.526   8.108 -1.2804  0.4236 -0.7429
   30CHL1  H18C 2176   3.947   0.701   8.067 -3.9063 -0.3572 -1.5736
   30CHL1   C12 2177   4.170   0.726   7.921 -0.1111 -0.2159  0.2297
   30CHL1  H12A 2178   4.136   0.825   7.958  0.6865  0.3011 -0.4024
   30CHL1  H12B 2179   4.280   0.734   7.931 -0.3899  1.4460  2.2707
   30CHL1   C11 2180   4.111   0.696   7.781  0.3333 -0.0188 -0.6991
   30CHL1  H11A 2181   4.000   0.700   7.778  0.2385 -1.9594 -0.1112
   30CHL1  H11B 2182   4.158   0.781   7.726  1.0181  0.3734  0.4656
   30CHL1    C9 2183   4.167   0.564   7.726  0.0191 -0.0377  0.5969
   30CHL1    H9 2184   4.277   0.578   7.725  0.2772 -1.8964 -2.0363
   30CHL1   C10 2185   4.137   0.521   7.579 -0.2845  0.2656  0.6652
   30CHL1   C19 2186   3.985   0.551   7.551  0.3070  0.4006 -0.2030
   30CHL1  H19A 2187   3.951   0.525   7.449  1.3916 -1.3436 -0.1437
   30CHL1  H19B 2188   3.917   0.499   7.622 -1.0410  0.0159 -1.7730
   30CHL1  H19C 2189   3.962   0.659   7.566 -1.4230 -0.2061  1.7230
   30CHL1    C1 2190   4.228   0.608   7.484 -0.1777 -0.6064 -0.2104
   30CHL1   H1A 2191   4.206   0.715   7.506 -0.9222 -1.3399  2.9200
   30CHL1   H1B 2192   4.333   0.600   7.518 -0.4896  0.5646  1.1144
   30CHL1    C2 2193   4.225   0.564   7.337  0.4148 -0.0948  0.5577
   30CHL1   H2A 2194   4.296   0.620   7.271  1.6603 -2.5155 -0.2500
   30CHL1   H2B 2195   4.124   0.582   7.296  0.5710  0.8817  0.5822
   30CHL1   C20 2196   4.130   0.694   8.277  0.3986 -0.4888  0.9290
   30CHL1   H20 2197   4.023   0.665   8.279  0.0404  0.8301  2.5888
   30CHL1   C21 2198   4.136   0.846   8.236  0.0412  0.2948 -1.2487
   30CHL1  H21A 2199   4.237   0.878   8.204 -0.1173  1.0674 -0.9762
   30CHL1  H21B 2200   4.110   0.899   8.330  0.0424 -0.4071 -0.8457
   30CHL1  H21C 2201   4.060   0.882   8.163 -0.7657 -0.3459 -0.7424
   30CHL1   C22 2202   4.176   0.669   8.422 -0.3333 -0.5206  0.3023
   30CHL1  H22A 2203   4.191   0.561   8.443  2.7218 -0.0351  0.8607
   30CHL1  H22B 2204   4.277   0.710   8.442 -0.6316  0.5317 -0.3057
   30CHL1   C23 2205   4.079   0.722   8.525  0.4061 -0.7457 -0.0624
   30CHL1  H23A 2206   4.057   0.830   8.511 -0.6793 -0.8501  0.8222
   30CHL1  H23B 2207   3.976   0.686   8.504 -0.4322  1.9652 -0.7590
   30CHL1   C24 2208   4.125   0.689   8.669 -0.0543 -0.3960  0.5800
   30CHL1  H24A 2209   4.139   0.579   8.672 -2.9414 -0.8123  0.0665
   30CHL1  H24B 2210   4.226   0.733   8.679 -0.1568 -0.2191  0.8312
   30CHL1   C25 2211   4.043   0.739   8.786 -0.7421  0.6661 -0.2410
   30CHL1   H25 2212   3.936   0.714   8.771 -0.6465 -0.5550  1.1022
   30CHL1   C26 2213   4.087   0.671   8.914 -0.0394 -0.1124  0.3100
   30CHL1  H26A 2214   4.028   0.692   9.005  1.7003 -1.2494  1.7152
   30CHL1  H26B 2215   4.091   0.562   8.896  0.2430  0.0266 -0.5114
   30CHL1  H26C 2216   4.191   0.706   8.934  0.2249 -1.4159  1.2530
   30CHL1   C27 2217   4.043   0.890   8.807  0.3063  0.0776  0.2784
   30CHL1  H27A 2218   4.017   0.932   8.708 -0.4204  3.0136  1.6537
   30CHL1  H27B 2219   3.957   0.925   8.868  0.0450 -1.3483  0.7507
   30CHL1  H27C 2220   4.141   0.937   8.830  0.6629  0.0060 -1.0908
   31CHL1    C3 2221   3.184   1.708   6.597 -0.1452  0.1283  0.0788
   31CHL1    H3 2222   3.295   1.703   6.587 -0.0505  0.3808  0.9431
   31CHL1    O3 2223   3.122   1.681   6.479  0.2957 -0.2237 -0.0794
   31CHL1   H3' 2224   3.029   1.675   6.504  0.6279 -4.0896  0.5659
   31CHL1    C4 2225   3.152   1.593   6.696 -0.5932  0.4116 -0.1194
   31CHL1   H4A 2226   3.044   1.570   6.701 -0.3562 -0.5444  0.7065
   31CHL1   H4B 2227   3.191   1.499   6.651 -1.0834  0.6483 -1.0396
   31CHL1    C5 2228   3.206   1.627   6.836 -0.1821 -0.6443  0.3842
   31CHL1    C6 2229   3.310   1.555   6.890 -0.1475  0.1816  0.1999
   31CHL1    H6 2230   3.353   1.469   6.837  2.5754  0.8264  1.2768
   31CHL1    C7 2231   3.383   1.597   7.016  0.4485 -0.1966 -0.0283
   31CHL1   H7A 2232   3.396   1.503   7.073 -1.3515 -1.4027 -1.5561
   31CHL1   H7B 2233   3.480   1.651   7.002  0.0974  0.8379  1.4089
   31CHL1    C8 2234   3.287   1.691   7.094  0.0654  0.1974 -0.2779
   31CHL1    H8 2235   3.191   1.639   7.113 -0.9681  2.8494  2.0828
   31CHL1   C14 2236   3.349   1.726   7.234 -1.0733  0.5268 -0.5277
   31CHL1   H14 2237   3.438   1.788   7.209 -0.4636 -0.4147 -0.7289
   31CHL1   C15 2238   3.406   1.618   7.331 -0.2066  1.0817 -0.4445
   31CHL1  H15A 2239   3.329   1.540   7.316  1.2924 -0.5525  0.1869
   31CHL1  H15B 2240   3.507   1.578   7.306  0.2853  0.7828  1.8413
   31CHL1   C16 2241   3.413   1.684   7.470  0.1678  0.7426 -0.1661
   31CHL1  H16A 2242   3.357   1.626   7.546 -0.3951 -0.1452 -1.2442
   31CHL1  H16B 2243   3.519   1.691   7.502  0.2328 -0.2302 -0.1579
   31CHL1   C17 2244   3.350   1.819   7.451  0.1322 -0.0687 -0.1879
   31CHL1   H17 2245   3.432   1.892   7.432 -0.8990  0.9929 -0.6804
   31CHL1   C13 2246   3.271   1.820   7.317  0.1204 -0.7758  0.0584
   31CHL1   C18 2247   3.144   1.747   7.357 -0.1809  0.0794  1.0613
   31CHL1  H18A 2248   3.067   1.814   7.400 -1.0716 -0.4329  0.2721
   31CHL1  H18B 2249   3.092   1.723   7.262 -0.6103  2.8456  0.5568
   31CHL1  H18C 2250   3.157   1.657   7.421  0.5429 -0.0853  0.6909
   31CHL1   C12 2251   3.241   1.942   7.233  0.3330 -0.3775  0.2351
   31CHL1  H12A 2252   3.181   2.013   7.294  2.7056  1.6381  0.2808
   31CHL1  H12B 2253   3.338   1.990   7.208  1.8859 -3.4759  0.0292
   31CHL1   C11 2254   3.159   1.906   7.108 -0.1150  1.0710  0.4501
   31CHL1  H11A 2255   3.064   1.865   7.148  1.1132  0.5941  3.0067
   31CHL1  H11B 2256   3.133   1.994   7.046 -0.4653  1.6063  1.3399
   31CHL1    C9 2257   3.247   1.806   7.015 -0.8414  0.1987  0.3710
   31CHL1    H9 2258   3.347   1.848   6.991 -0.0181 -1.5078  0.7421
   31CHL1   C10 2259   3.169   1.766   6.888 -0.5033 -0.7169  0.1342
   31CHL1   C19 2260   3.019   1.757   6.912 -0.6129 -0.1956  0.6895
   31CHL1  H19A 2261   2.990   1.704   7.005  1.3948 -1.1360  0.8048
   31CHL1  H19B 2262   2.973   1.857   6.895 -0.4381 -0.6294 -2.6275
   31CHL1  H19C 2263   2.971   1.694   6.835 -0.5341  0.5741  0.0006
   31CHL1    C1 2264   3.198   1.878   6.786  0.2498 -0.1650  0.1463
   31CHL1   H1A 2265   3.148   1.974   6.811 -1.1116 -0.5217 -1.1702
   31CHL1   H1B 2266   3.308   1.896   6.783 -0.1337  2.4956  0.3131
   31CHL1    C2 2267   3.140   1.846   6.645 -0.2772 -0.0529  0.3589
   31CHL1   H2A 2268   3.150   1.920   6.563 -1.2190  0.6659  0.8726
   31CHL1   H2B 2269   3.029   1.840   6.654 -0.2392  0.2765  1.1452
   31CHL1   C20 2270   3.280   1.858   7.578 -0.6289 -0.3232 -1.2795
   31CHL1   H20 2271   3.196   1.788   7.598  0.3804 -1.1961  0.0505
   31CHL1   C21 2272   3.219   1.993   7.569 -0.2320  1.0455  0.2439
   31CHL1  H21A 2273   3.190   2.020   7.673 -1.7321  0.4493 -0.0101
   31CHL1  H21B 2274   3.134   1.978   7.499 -0.9156 -0.3852  1.3483
   31CHL1  H21C 2275   3.293   2.070   7.540 -0.6964  1.3829 -0.0491
   31CHL1   C22 2276   3.368   1.851   7.707  0.0168  0.0389  0.7099
   31CHL1  H22A 2277   3.451   1.776   7.703  0.9991  1.1293  0.4644
   31CHL1  H22B 2278   3.420   1.947   7.729 -0.7704  0.8336 -0.8435
   31CHL1   C23 2279   3.291   1.818   7.841  0.2062  0.4796 -0.3225
   31CHL1  H23A 2280   3.221   1.904   7.852 -0.7250 -0.4636  1.3744
   31CHL1  H23B 2281   3.237   1.720   7.846 -0.1693  0.8108  3.5708
   31CHL1   C24 2282   3.375   1.819   7.962 -0.0267 -0.6597  0.5847
   31CHL1  H24A 2283   3.451   1.739   7.946 -0.1895 -0.3027 -2.1700
   31CHL1  H24B 2284   3.418   1.918   7.986  1.7521 -1.6648  1.6357
   31CHL1   C25 2285   3.289   1.781   8.087  0.4286 -0.6811  0.3585
   31CHL1   H25 2286   3.199   1.846   8.083  1.0456  0.1555 -0.0421
   31CHL1   C26 2287   3.235   1.638   8.094  0.1657  0.0805 -0.4836
   31CHL1  H26A 2288   3.319   1.566   8.107 -0.1806  0.2769  3.1944
   31CHL1  H26B 2289   3.172   1.639   8.185  1.1138  2.5613  0.1973
   31CHL1  H26C 2290   3.180   1.609   8.002  1.6557  1.1353 -1.7370
   31CHL1   C27 2291   3.359   1.805   8.220  0.0736 -0.2234 -0.2098
   31CHL1  H27A 2292   3.448   1.739   8.226  0.5976  0.4804 -0.1484
   31CHL1  H27B 2293   3.287   1.780   8.300 -2.0979  1.0388 -1.7450
   31CHL1  H27C 2294   3.388   1.911   8.234 -0.3225 -0.1592  0.1237
   32CHL1    C3 2295   4.722   0.257   6.759  0.3031  0.1922  0.1122
   32CHL1    H3 2296   4.679   0.355   6.728  3.7885  1.7416 -0.0829
   32CHL1    O3 2297   4.723   0.166   6.651 -0.1544  0.4053  1.2038
   32CHL1   H3' 2298   4.751   0.084   6.692  1.7038  0.3202 -0.1789
   32CHL1    C4 2299   4.868   0.270   6.825  0.4676 -0.2482 -0.2136
   32CHL1   H4A 2300   4.908   0.168   6.842 -0.7881 -1.0925 -2.1486
   32CHL1   H4B 2301   4.936   0.309   6.747 -1.1610 -1.6831 -2.4013
   32CHL1    C5 2302   4.866   0.352   6.957 -1.7345 -0.1559  0.4410
   32CHL1    C6 2303   4.943   0.458   6.985  0.1714  0.4027 -0.7294
   32CHL1    H6 2304   5.002   0.497   6.901 -0.4385  0.0694 -1.3148
   32CHL1    C7 2305   4.947   0.534   7.117 -0.8879 -0.0495 -1.2069
   32CHL1   H7A 2306   5.053   0.550   7.146 -1.4026  1.4572 -0.1297
   32CHL1   H7B 2307   4.903   0.635   7.108 -0.5997  0.1374 -0.5319
   32CHL1    C8 2308   4.875   0.458   7.219  0.5396 -0.0732  0.7533
   32CHL1    H8 2309   4.924   0.364   7.253  1.5093  0.3656  0.5882
   32CHL1   C14 2310   4.857   0.545   7.339  0.2299  0.1503 -0.2604
   32CHL1   H14 2311   4.792   0.629   7.305 -1.7564 -1.4855 -0.5469
   32CHL1   C15 2312   4.982   0.615   7.394  0.0944 -0.4359  0.4271
   32CHL1  H15A 2313   5.063   0.540   7.386  0.5866  0.3910 -3.7798
   32CHL1  H15B 2314   5.008   0.704   7.332  1.6935 -0.5072  0.9654
   32CHL1   C16 2315   4.939   0.652   7.541 -1.0660  0.4789  0.1855
   32CHL1  H16A 2316   5.011   0.605   7.611  1.6117  2.3994 -1.2114
   32CHL1  H16B 2317   4.939   0.761   7.560  0.0747 -0.0473  3.3726
   32CHL1   C17 2318   4.798   0.593   7.560  0.2797 -0.2952  0.2923
   32CHL1   H17 2319   4.737   0.678   7.521  0.5584  0.2571  1.0516
   32CHL1   C13 2320   4.787   0.481   7.455  0.7658 -0.1162  0.7325
   32CHL1   C18 2321   4.868   0.356   7.499  0.3689  0.7275 -0.1135
   32CHL1  H18A 2322   4.847   0.317   7.601  2.0495 -0.5787 -0.2411
   32CHL1  H18B 2323   4.863   0.265   7.434 -0.3553  0.9544 -0.3841
   32CHL1  H18C 2324   4.976   0.383   7.508  1.0351 -2.6333  3.1383
   32CHL1   C12 2325   4.647   0.451   7.399  0.7844 -0.0484 -0.2229
   32CHL1  H12A 2326   4.601   0.396   7.484 -1.1869  1.6866 -0.1252
   32CHL1  H12B 2327   4.583   0.542   7.386 -0.8366 -1.0981  0.2804
   32CHL1   C11 2328   4.650   0.350   7.287  0.2183 -0.4959 -0.2059
   32CHL1  H11A 2329   4.687   0.251   7.320  0.4305 -0.1383  0.6390
   32CHL1  H11B 2330   4.546   0.337   7.249 -0.8315  1.9004  1.6990
   32CHL1    C9 2331   4.737   0.407   7.170 -0.0924  0.2396  0.2589
   32CHL1    H9 2332   4.683   0.498   7.137  1.5214  1.3997  0.7504
   32CHL1   C10 2333   4.754   0.307   7.053  0.7267 -0.5225  0.1911
   32CHL1   C19 2334   4.792   0.176   7.120  0.1523  0.2426 -0.1286
   32CHL1  H19A 2335   4.695   0.133   7.151 -0.5455  1.1794 -0.9676
   32CHL1  H19B 2336   4.831   0.106   7.043  0.8302  1.1943 -0.6647
   32CHL1  H19C 2337   4.870   0.179   7.199  0.7711  1.2581 -0.7579
   32CHL1    C1 2338   4.619   0.288   6.985 -0.0065  0.0504  0.3345
   32CHL1   H1A 2339   4.551   0.236   7.056  3.2481 -1.4963  2.4238
   32CHL1   H1B 2340   4.575   0.387   6.960 -0.7371 -0.8996 -2.2999
   32CHL1    C2 2341   4.622   0.205   6.861  0.6210 -0.4835 -0.1475
   32CHL1   H2A 2342   4.525   0.191   6.809  0.6019  0.5336 -0.3946
   32CHL1   H2B 2343   4.660   0.103   6.884  0.0258 -1.6929 -4.1252
   32CHL1   C20 2344   4.750   0.569   7.708  1.0636 -0.0193 -0.5447
   32CHL1   H20 2345   4.794   0.474   7.745 -0.2322  0.3218  1.9336
   32CHL1   C21 2346   4.595   0.561   7.703 -0.1536 -0.1618  0.2166
   32CHL1  H21A 2347   4.555   0.467   7.660  0.0420  0.0202 -0.3745
   32CHL1  H21B 2348   4.546   0.643   7.646  0.2056 -0.1150 -0.0243
   32CHL1  H21C 2349   4.561   0.558   7.809 -0.6635  0.2996  0.0712
   32CHL1   C22 2350   4.785   0.688   7.811 -0.8021  0.0611  0.7163
   32CHL1  H22A 2351   4.896   0.697   7.808 -0.7468 -0.9236 -0.8659
   32CHL1  H22B 2352   4.734   0.780   7.776  0.5657  1.3542  2.0399
   32CHL1   C23 2353   4.748   0.660   7.954 -0.1898 -0.3901 -0.5327
   32CHL1  H23A 2354   4.641   0.688   7.960 -0.2936 -0.5956 -1.4363
   32CHL1  H23B 2355   4.771   0.552   7.970  4.4490  0.6561  0.5526
   32CHL1   C24 2356   4.844   0.737   8.040  0.4523 -0.1559 -0.3892
   32CHL1  H24A 2357   4.946   0.696   8.024 -0.3428 -1.2204 -3.1066
   32CHL1  H24B 2358   4.845   0.842   8.003 -0.1923 -0.5237 -1.4932
   32CHL1   C25 2359   4.821   0.745   8.188 -0.2315 -0.7716 -0.1038
   32CHL1   H25 2360   4.804   0.637   8.212 -0.2802 -0.6709  0.3153
   32CHL1   C26 2361   4.941   0.793   8.273  0.1843 -0.1677 -0.1289
   32CHL1  H26A 2362   4.919   0.785   8.382  0.4294  2.7153  0.1719
   32CHL1  H26B 2363   5.033   0.733   8.257  0.8247 -0.0291  2.7966
   32CHL1  H26C 2364   4.959   0.901   8.257 -0.6321 -0.1720 -1.1247
   32CHL1   C27 2365   4.685   0.822   8.222 -0.2592  0.1198  0.0783
   32CHL1  H27A 2366   4.673   0.786   8.326 -0.4819  3.2308  1.2025
   32CHL1  H27B 2367   4.690   0.933   8.214 -3.4014  0.4839  2.1692
   32CHL1  H27C 2368   4.595   0.791   8.166 -0.0313 -1.8142  0.7517
   33CHL1    C3 2369   5.895   0.370   6.679  0.0376 -0.8881 -0.0899
   33CHL1    H3 2370   5.944   0.298   6.748  0.0815 -1.9373 -1.2197
   33CHL1    O3 2371   5.929   0.352   6.544  0.2262 -0.2660  0.3536
   33CHL1   H3' 2372   6.023   0.335   6.540  0.0717 -1.0021 -0.0971
   33CHL1    C4 2373   5.744   0.369   6.689  0.5572  0.3533  0.1529
   33CHL1   H4A 2374   5.691   0.434   6.616  2.2361  0.8898 -0.6231
   33CHL1   H4B 2375   5.709   0.269   6.655  2.6630 -0.2170 -0.4065
   33CHL1    C5 2376   5.684   0.405   6.822 -0.1399  0.1792 -0.0789
   33CHL1    C6 2377   5.592   0.325   6.886  0.6891 -0.8506 -0.4299
   33CHL1    H6 2378   5.547   0.244   6.828 -0.9866 -1.0061  1.0543
   33CHL1    C7 2379   5.523   0.357   7.023 -1.1249  0.2141  0.3798
   33CHL1   H7A 2380   5.412   0.357   7.029 -1.1072  0.8399  0.8355
   33CHL1   H7B 2381   5.566   0.281   7.091 -0.3406  1.8191  1.7135
   33CHL1    C8 2382   5.552   0.504   7.057 -0.4543  0.0458  0.3052
   33CHL1    H8 2383   5.487   0.566   6.991  1.0334  1.5412  0.2279
   33CHL1   C14 2384   5.520   0.523   7.205 -0.1495 -0.2390 -0.7327
   33CHL1   H14 2385   5.595   0.457   7.253 -1.2201 -1.8929 -1.2735
   33CHL1   C15 2386   5.384   0.494   7.244 -0.0779  0.4945 -0.0790
   33CHL1  H15A 2387   5.308   0.549   7.184 -0.4045  0.1176 -0.0133
   33CHL1  H15B 2388   5.367   0.385   7.236 -1.8408  0.8422 -1.2846
   33CHL1   C16 2389   5.382   0.546   7.392  0.3715  0.8666 -0.6549
   33CHL1  H16A 2390   5.288   0.605   7.403  0.2599  0.4956  0.4707
   33CHL1  H16B 2391   5.381   0.461   7.463 -0.6554  0.8671 -0.6617
   33CHL1   C17 2392   5.502   0.637   7.405  0.3883 -1.2065 -0.1233
   33CHL1   H17 2393   5.578   0.571   7.454  0.9516 -0.0562  0.5886
   33CHL1   C13 2394   5.550   0.664   7.265  0.3700  0.2161 -0.2915
   33CHL1   C18 2395   5.460   0.768   7.190 -0.1315 -0.9271 -0.2085
   33CHL1  H18A 2396   5.517   0.863   7.190 -1.2415 -0.2507  0.0991
   33CHL1  H18B 2397   5.437   0.738   7.086  3.8100 -2.2497 -0.7724
   33CHL1  H18C 2398   5.363   0.788   7.241 -0.3372 -0.4992 -0.7703
   33CHL1   C12 2399   5.698   0.702   7.240 -1.0017  0.2432 -0.4218
   33CHL1  H12A 2400   5.721   0.808   7.264  1.7011 -1.3399  4.6169
   33CHL1  H12B 2401   5.757   0.637   7.306 -3.0505 -0.7431  0.4848
   33CHL1   C11 2402   5.730   0.686   7.089 -0.3596  0.2869  0.4319
   33CHL1  H11A 2403   5.678   0.765   7.029 -1.5080  0.4055  1.5584
   33CHL1  H11B 2404   5.838   0.706   7.076  0.3927 -2.4249  2.1265
   33CHL1    C9 2405   5.697   0.543   7.029 -0.4646  0.2241  0.2111
   33CHL1    H9 2406   5.757   0.468   7.085  0.1224  0.8525  0.4371
   33CHL1   C10 2407   5.741   0.527   6.881  0.2098 -0.9490 -0.9484
   33CHL1   C19 2408   5.693   0.651   6.795 -0.0675 -0.0422 -0.1639
   33CHL1  H19A 2409   5.587   0.677   6.818  0.4730  1.7220  0.4248
   33CHL1  H19B 2410   5.757   0.739   6.818  0.7249 -0.4506 -0.7925
   33CHL1  H19C 2411   5.703   0.625   6.687 -0.7345 -1.5318  0.1187
   33CHL1    C1 2412   5.898   0.531   6.869  0.3618 -0.6395  0.1008
   33CHL1   H1A 2413   5.932   0.630   6.905  2.1288 -1.1956  0.0204
   33CHL1   H1B 2414   5.935   0.448   6.933 -1.5429  0.6582  2.9861
   33CHL1    C2 2415   5.949   0.506   6.724  0.1048 -0.3244  0.2491
   33CHL1   H2A 2416   6.060   0.507   6.727  0.0537  0.1609  2.7733
   33CHL1   H2B 2417   5.914   0.596   6.669  2.9626  0.8977  0.3389
   33CHL1   C20 2418   5.476   0.750   7.507 -0.4888 -0.7292 -0.0799
   33CHL1   H20 2419   5.404   0.825   7.468 -1.2188 -1.6340 -0.4635
   33CHL1   C21 2420   5.610   0.830   7.525  0.6687  0.2315 -0.1386
   33CHL1  H21A 2421   5.575   0.915   7.588 -0.0570  0.7029 -1.1601
   33CHL1  H21B 2422   5.643   0.888   7.436  2.7933 -0.7205  0.0054
   33CHL1  H21C 2423   5.690   0.773   7.576  1.0484  2.5529  1.9600
   33CHL1   C22 2424   5.422   0.698   7.645 -0.7406  0.8155  0.1152
   33CHL1  H22A 2425   5.314   0.683   7.621 -0.5828  0.9081 -0.6768
   33CHL1  H22B 2426   5.466   0.600   7.671 -1.3763  1.3226  3.3360
   33CHL1   C23 2427   5.423   0.788   7.767 -0.1435 -0.0258 -1.1520
   33CHL1  H23A 2428   5.526   0.824   7.791 -0.6707  0.6221  0.2039
   33CHL1  H23B 2429   5.351   0.870   7.749  1.1323  1.1824 -0.8970
   33CHL1   C24 2430   5.376   0.717   7.897  0.0463 -0.4065 -0.0506
   33CHL1  H24A 2431   5.281   0.664   7.873 -1.0432  1.2616  0.4564
   33CHL1  H24B 2432   5.454   0.642   7.922 -1.1387 -1.9970 -1.0209
   33CHL1   C25 2433   5.348   0.816   8.014 -0.0369 -0.1888  0.0471
   33CHL1   H25 2434   5.432   0.889   8.017  1.9387 -2.4385  0.7104
   33CHL1   C26 2435   5.220   0.900   7.990  0.4540  0.1547 -0.3160
   33CHL1  H26A 2436   5.216   0.971   8.075 -2.2003 -0.3724  0.0552
   33CHL1  H26B 2437   5.227   0.953   7.893 -0.1349  1.3377  0.2751
   33CHL1  H26C 2438   5.131   0.833   7.989 -2.4534  3.6976  3.0855
   33CHL1   C27 2439   5.342   0.735   8.142  0.2014  0.7687  0.1331
   33CHL1  H27A 2440   5.439   0.683   8.153 -0.4700 -0.5883 -0.2822
   33CHL1  H27B 2441   5.322   0.806   8.225 -2.2324  0.0625  0.1846
   33CHL1  H27C 2442   5.261   0.660   8.151 -0.8248  1.6509 -1.4515
   34CHL1    C3 2443   0.154   5.559   7.087  0.4603 -0.2974  0.3001
   34CHL1    H3 2444   0.247   5.601   7.129 -0.0640  0.6026  0.5692
   34CHL1    O3 2445   0.145   5.550   6.952 -0.1136  0.5095 -0.1132
   34CHL1   H3' 2446   0.075   5.488   6.930  1.1006 -0.1766 -2.2838
   34CHL1    C4 2447   0.135   5.425   7.154 -0.0340  0.4187 -1.0541
   34CHL1   H4A 2448   0.033   5.389   7.128 -1.4116  2.1577  1.7102
   34CHL1   H4B 2449   0.220   5.368   7.113  1.5805  1.6811  0.4684
   34CHL1    C5 2450   0.142   5.428   7.307 -0.2843  0.0609  0.1888
   34CHL1    C6 2451   0.229   5.362   7.376  0.5359  0.1033  0.7132
   34CHL1    H6 2452   0.282   5.285   7.318  1.0531  2.2127 -1.7299
   34CHL1    C7 2453   0.231   5.360   7.524 -0.4741  0.3207 -0.3073
   34CHL1   H7A 2454   0.240   5.251   7.548  2.4070  0.6776  0.4840
   34CHL1   H7B 2455   0.322   5.412   7.560  1.9697 -4.4293  0.9183
   34CHL1    C8 2456   0.115   5.430   7.596  0.3546 -0.7857 -0.1517
   34CHL1    H8 2457   0.030   5.359   7.588 -1.3510  1.2893 -0.8162
   34CHL1   C14 2458   0.159   5.457   7.742  0.1422  0.5153 -0.3569
   34CHL1   H14 2459   0.239   5.533   7.733  0.8120 -0.1172  0.1189
   34CHL1   C15 2460   0.207   5.341   7.828 -0.1233 -0.0550 -0.4148
   34CHL1  H15A 2461   0.145   5.252   7.806 -0.0488  0.0824 -1.2325
   34CHL1  H15B 2462   0.304   5.311   7.782 -0.9958 -2.3486 -0.8268
   34CHL1   C16 2463   0.199   5.393   7.972  0.1102  1.1828 -0.0548
   34CHL1  H16A 2464   0.140   5.327   8.038 -1.0678  1.2824 -0.9877
   34CHL1  H16B 2465   0.299   5.412   8.017 -0.6786  1.5093  1.5891
   34CHL1   C17 2466   0.121   5.531   7.965 -0.1751  0.1623 -0.8024
   34CHL1   H17 2467   0.194   5.613   7.953  2.1211 -1.3746  1.7642
   34CHL1   C13 2468   0.052   5.519   7.827 -0.3537  0.6344 -0.3931
   34CHL1   C18 2469  -0.077   5.435   7.845  0.5208 -0.0938 -0.2634
   34CHL1  H18A 2470  -0.141   5.494   7.914  0.3533  2.0450 -2.2153
   34CHL1  H18B 2471  -0.137   5.420   7.753 -1.1937  0.2932  0.7742
   34CHL1  H18C 2472  -0.055   5.336   7.892 -1.6239  0.1698  1.3681
   34CHL1   C12 2473   0.013   5.649   7.753 -0.1584  0.6294 -0.7312
   34CHL1  H12A 2474  -0.078   5.692   7.800 -1.2060  0.8563 -2.9083
   34CHL1  H12B 2475   0.099   5.720   7.753 -0.1253  0.5891  0.6990
   34CHL1   C11 2476  -0.025   5.629   7.603  0.1894  0.4774 -0.6881
   34CHL1  H11A 2477  -0.128   5.588   7.607  0.5052 -0.3587 -1.0060
   34CHL1  H11B 2478  -0.032   5.731   7.560  1.3369  0.8119 -0.0941
   34CHL1    C9 2479   0.075   5.556   7.519 -0.4863  0.2017  0.5375
   34CHL1    H9 2480   0.163   5.623   7.520 -0.8358  0.6644  0.2716
   34CHL1   C10 2481   0.052   5.529   7.371  0.0745 -0.0039 -0.2859
   34CHL1   C19 2482  -0.097   5.481   7.357  0.2678  0.2615 -0.1582
   34CHL1  H19A 2483  -0.113   5.435   7.257 -1.7786 -1.3732  0.8767
   34CHL1  H19B 2484  -0.124   5.409   7.437  0.3206 -0.1718 -0.5341
   34CHL1  H19C 2485  -0.152   5.576   7.377  1.4103  0.9869 -0.4591
   34CHL1    C1 2486   0.057   5.667   7.294  0.0404 -0.6043  0.0262
   34CHL1   H1A 2487  -0.033   5.727   7.320  0.2149  0.6313 -2.1414
   34CHL1   H1B 2488   0.142   5.722   7.340 -0.1330 -0.5520  0.2887
   34CHL1    C2 2489   0.048   5.653   7.139  0.9266 -0.3566 -0.3809
   34CHL1   H2A 2490   0.059   5.753   7.094  0.8072  0.2422  0.9018
   34CHL1   H2B 2491  -0.052   5.616   7.106  0.7284  0.9604 -1.2642
   34CHL1   C20 2492   0.038   5.566   8.095  0.1762  0.0263 -0.4433
   34CHL1   H20 2493  -0.040   5.487   8.102  2.1007 -1.8324  0.6177
   34CHL1   C21 2494  -0.018   5.708   8.090 -0.3620  0.1914  0.2171
   34CHL1  H21A 2495   0.060   5.780   8.055  0.3272 -0.5938  0.1293
   34CHL1  H21B 2496  -0.052   5.738   8.191  0.2059  0.0186  0.4599
   34CHL1  H21C 2497  -0.087   5.716   8.003  2.1914  2.7645 -1.6942
   34CHL1   C22 2498   0.132   5.546   8.223  0.5269  0.1649 -0.1394
   34CHL1  H22A 2499   0.168   5.442   8.206  0.2918  0.2501 -1.2120
   34CHL1  H22B 2500   0.212   5.623   8.214  1.4560 -0.9010 -1.1827
   34CHL1   C23 2501   0.067   5.548   8.359  0.1815  0.7889 -0.2784
   34CHL1  H23A 2502   0.137   5.511   8.437  1.6899  2.2648 -0.9005
   34CHL1  H23B 2503   0.055   5.655   8.386 -1.8744  0.6190 -0.4578
   34CHL1   C24 2504  -0.073   5.468   8.372 -0.1630 -0.6140 -0.1349
   34CHL1  H24A 2505  -0.147   5.506   8.298 -0.5495 -1.2774 -0.0977
   34CHL1  H24B 2506  -0.056   5.361   8.347 -0.2924 -0.7114  0.1986
   34CHL1   C25 2507  -0.143   5.472   8.506 -0.8452  0.8473  0.3815
   34CHL1   H25 2508  -0.226   5.399   8.503  0.1877 -0.3176  0.1670
   34CHL1   C26 2509  -0.043   5.432   8.615  0.3407 -0.2968  0.3546
   34CHL1  H26A 2510  -0.096   5.428   8.713  0.1394 -1.1644  0.2142
   34CHL1  H26B 2511   0.005   5.334   8.593 -0.6395 -1.0062  1.3308
   34CHL1  H26C 2512   0.039   5.504   8.631  0.5542 -0.5911  0.5887
   34CHL1   C27 2513  -0.198   5.611   8.549 -0.8940  1.1067 -0.2860
   34CHL1  H27A 2514  -0.114   5.683   8.561 -0.9493  1.2157 -0.5561
   34CHL1  H27B 2515  -0.270   5.654   8.476 -1.7009  0.2366 -0.0070
   34CHL1  H27C 2516  -0.241   5.605   8.651  0.6106  1.6042  0.4009
   35CHL1    C3 2517   3.287   6.617   7.411  0.4562  0.2765  0.2714
   35CHL1    H3 2518   3.182   6.582   7.419 -0.5575  3.0917 -0.1052
   35CHL1    O3 2519   3.320   6.624   7.273  0.1678 -0.4359 -0.0725
   35CHL1   H3' 2520   3.407   6.587   7.257 -0.1250 -0.7415 -0.9986
   35CHL1    C4 2521   3.314   6.757   7.463  0.1081 -0.5409 -0.0841
   35CHL1   H4A 2522   3.419   6.777   7.433  0.3462 -0.5445  0.7490
   35CHL1   H4B 2523   3.248   6.831   7.412 -0.0983 -0.2904  0.5436
   35CHL1    C5 2524   3.300   6.768   7.609 -0.0674  0.3741 -0.5411
   35CHL1    C6 2525   3.230   6.868   7.666  0.4006  0.9649  0.1237
   35CHL1    H6 2526   3.192   6.945   7.598  1.7728  0.7561 -0.9083
   35CHL1    C7 2527   3.207   6.888   7.815 -0.2841  0.3865 -0.8565
   35CHL1   H7A 2528   3.217   6.993   7.848  2.1520 -0.1345  0.1626
   35CHL1   H7B 2529   3.108   6.849   7.845  0.4444 -1.0002 -0.1879
   35CHL1    C8 2530   3.305   6.797   7.896 -0.1925 -0.0767 -0.4706
   35CHL1    H8 2531   3.403   6.848   7.905 -0.4540  0.2001  0.9517
   35CHL1   C14 2532   3.242   6.777   8.029  0.5632 -0.0149 -0.3160
   35CHL1   H14 2533   3.151   6.718   8.006 -0.5929  1.3043  0.7995
   35CHL1   C15 2534   3.194   6.901   8.117 -0.8361 -0.5240 -0.0329
   35CHL1  H15A 2535   3.275   6.974   8.141 -2.8717  1.5999  0.5080
   35CHL1  H15B 2536   3.108   6.962   8.083 -0.0724  0.1289 -0.8118
   35CHL1   C16 2537   3.150   6.829   8.254 -0.7588 -0.4373  0.5521
   35CHL1  H16A 2538   3.192   6.891   8.337  0.1910  0.7650 -0.8077
   35CHL1  H16B 2539   3.040   6.813   8.259 -0.7897 -0.3812 -0.0099
   35CHL1   C17 2540   3.209   6.690   8.249 -0.0423  0.3150  1.0560
   35CHL1   H17 2541   3.128   6.624   8.212  0.4167  1.5956 -2.4504
   35CHL1   C13 2542   3.311   6.683   8.129 -0.3612 -0.1852 -0.0981
   35CHL1   C18 2543   3.438   6.746   8.185  0.2818 -0.4324  0.0318
   35CHL1  H18A 2544   3.516   6.774   8.111 -0.5054  1.5157 -0.0780
   35CHL1  H18B 2545   3.417   6.843   8.235 -0.9050 -0.3919 -0.5379
   35CHL1  H18C 2546   3.480   6.686   8.269 -0.2222 -1.1870 -0.2482
   35CHL1   C12 2547   3.348   6.549   8.066  0.2476 -0.1401 -0.3868
   35CHL1  H12A 2548   3.415   6.484   8.124  1.8242  0.7738 -1.1396
   35CHL1  H12B 2549   3.250   6.498   8.054 -0.6503  0.8732  2.2973
   35CHL1   C11 2550   3.424   6.575   7.935  0.3265 -0.1752 -0.5015
   35CHL1  H11A 2551   3.526   6.608   7.965 -0.1864  1.8826 -0.9099
   35CHL1  H11B 2552   3.443   6.477   7.886  0.0083 -0.0237 -0.9345
   35CHL1    C9 2553   3.338   6.662   7.838  0.9123 -0.0177 -0.2115
   35CHL1    H9 2554   3.246   6.601   7.828  0.3576  0.8936 -0.7379
   35CHL1   C10 2555   3.382   6.663   7.693  0.2533 -0.6130  0.2512
   35CHL1   C19 2556   3.531   6.708   7.680 -0.4228  0.3019 -0.6048
   35CHL1  H19A 2557   3.592   6.620   7.711  0.0621  0.5404 -0.8728
   35CHL1  H19B 2558   3.561   6.720   7.574 -0.8094 -0.2863 -0.7838
   35CHL1  H19C 2559   3.549   6.784   7.758 -1.0525 -0.8839  0.7201
   35CHL1    C1 2560   3.356   6.520   7.632  0.2333 -0.2197  0.0068
   35CHL1   H1A 2561   3.421   6.442   7.676 -0.7477  0.5655  2.9589
   35CHL1   H1B 2562   3.251   6.493   7.654 -0.1196 -0.5290 -1.9883
   35CHL1    C2 2563   3.375   6.513   7.476  1.2113 -0.5525 -0.0650
   35CHL1   H2A 2564   3.348   6.416   7.427 -0.1082 -1.1388  1.7605
   35CHL1   H2B 2565   3.477   6.543   7.445 -0.8455  2.6584 -4.3442
   35CHL1   C20 2566   3.254   6.639   8.387  0.4737  0.0070 -0.3629
   35CHL1   H20 2567   3.335   6.699   8.433  0.0538 -0.4960  1.0566
   35CHL1   C21 2568   3.300   6.490   8.390 -0.3602 -0.2924 -0.2220
   35CHL1  H21A 2569   3.290   6.447   8.492 -1.8457  1.7362  0.5199
   35CHL1  H21B 2570   3.407   6.493   8.359  0.0332  1.9847  1.2807
   35CHL1  H21C 2571   3.247   6.428   8.314 -2.4661 -1.1920  1.9188
   35CHL1   C22 2572   3.141   6.659   8.493 -0.1314  0.1634 -0.1342
   35CHL1  H22A 2573   3.196   6.629   8.585  1.0219 -0.0155 -0.8750
   35CHL1  H22B 2574   3.133   6.769   8.501  0.2167  0.3449 -2.1247
   35CHL1   C23 2575   3.019   6.573   8.481 -1.2801  0.3323  1.1131
   35CHL1  H23A 2576   2.962   6.588   8.387 -1.5004 -0.9390  1.0227
   35CHL1  H23B 2577   3.056   6.468   8.490 -1.3620  0.0795 -1.2089
   35CHL1   C24 2578   2.925   6.600   8.607  0.8937 -1.0590 -0.1489
   35CHL1  H24A 2579   2.966   6.564   8.703  2.2339  1.1209  0.1298
   35CHL1  H24B 2580   2.902   6.708   8.610 -1.2671 -1.3966 -2.2125
   35CHL1   C25 2581   2.787   6.532   8.602  0.7231  0.7716 -0.1863
   35CHL1   H25 2582   2.739   6.562   8.506 -0.1980  0.0382  0.0412
   35CHL1   C26 2583   2.798   6.380   8.619  0.1099 -0.0947 -0.4091
   35CHL1  H26A 2584   2.700   6.328   8.627  1.1533 -1.8192  1.7209
   35CHL1  H26B 2585   2.853   6.329   8.537 -0.1428 -1.3486  0.1752
   35CHL1  H26C 2586   2.841   6.355   8.718  0.0586 -2.3367 -0.9156
   35CHL1   C27 2587   2.688   6.600   8.706 -1.3310 -0.5585  0.3349
   35CHL1  H27A 2588   2.587   6.556   8.691 -2.4585  2.2922 -0.9246
   35CHL1  H27B 2589   2.678   6.710   8.694 -0.4986 -0.5739 -0.5564
   35CHL1  H27C 2590   2.721   6.573   8.808 -0.4065 -2.3730 -0.4215
   36CHL1    C3 2591   4.384   6.034   7.052 -0.5645  0.2683 -0.1871
   36CHL1    H3 2592   4.348   5.930   7.066 -1.6781  0.3485 -2.1456
   36CHL1    O3 2593   4.402   6.054   6.909 -0.3574 -0.5519  0.0563
   36CHL1   H3' 2594   4.491   6.026   6.885 -0.7572 -0.8437 -1.0956
   36CHL1    C4 2595   4.276   6.129   7.107  0.3497 -0.5705 -0.0738
   36CHL1   H4A 2596   4.310   6.234   7.088 -0.1498 -0.5690 -0.9864
   36CHL1   H4B 2597   4.181   6.121   7.049  0.5666  0.6210 -0.6251
   36CHL1    C5 2598   4.253   6.117   7.257 -0.5729  0.1539 -0.0187
   36CHL1    C6 2599   4.135   6.073   7.308  0.1079 -0.1435 -0.3631
   36CHL1    H6 2600   4.045   6.063   7.246  0.4279 -0.6056 -0.7586
   36CHL1    C7 2601   4.108   6.068   7.454 -0.4705  0.1931 -0.4762
   36CHL1   H7A 2602   4.005   6.108   7.467  0.4008  2.6229 -0.6900
   36CHL1   H7B 2603   4.105   5.961   7.485 -2.6066  0.2115 -0.4932
   36CHL1    C8 2604   4.216   6.143   7.543  0.0184  0.1319 -0.1181
   36CHL1    H8 2605   4.203   6.250   7.517  0.9237  0.0119 -1.1344
   36CHL1   C14 2606   4.206   6.103   7.693 -0.4771 -0.5012 -0.0895
   36CHL1   H14 2607   4.236   5.996   7.686  0.4654 -0.0437 -4.4299
   36CHL1   C15 2608   4.066   6.096   7.751  1.1358  0.6187  0.4739
   36CHL1  H15A 2609   4.006   6.188   7.735 -3.3562 -2.3890 -0.6202
   36CHL1  H15B 2610   4.004   6.015   7.708 -0.3659  1.8924  0.2087
   36CHL1   C16 2611   4.095   6.069   7.901 -0.0199 -0.2757  0.4857
   36CHL1  H16A 2612   4.030   6.136   7.962 -1.9957 -0.3757 -1.4157
   36CHL1  H16B 2613   4.074   5.967   7.941  0.5868  0.0791  1.7463
   36CHL1   C17 2614   4.251   6.095   7.920 -0.1895  0.9188  1.2100
   36CHL1   H17 2615   4.288   5.990   7.915  0.8991  1.1214  4.3119
   36CHL1   C13 2616   4.290   6.168   7.795 -0.3739 -0.4716 -0.0951
   36CHL1   C18 2617   4.252   6.321   7.805 -0.7291  0.2350 -0.4546
   36CHL1  H18A 2618   4.147   6.342   7.834 -0.5403  0.9951 -0.3010
   36CHL1  H18B 2619   4.314   6.368   7.885  2.9928 -2.1311 -1.8065
   36CHL1  H18C 2620   4.268   6.375   7.709 -1.6052  0.3035 -0.5627
   36CHL1   C12 2621   4.432   6.154   7.746  0.5138  0.2696 -0.7505
   36CHL1  H12A 2622   4.489   6.229   7.804 -0.4688  0.5779 -0.1727
   36CHL1  H12B 2623   4.482   6.060   7.778  1.8117  1.4957  0.8642
   36CHL1   C11 2624   4.461   6.175   7.596  0.3025  0.3225 -0.8514
   36CHL1  H11A 2625   4.457   6.285   7.586 -0.2302  0.3600 -0.2685
   36CHL1  H11B 2626   4.564   6.137   7.577 -0.3525 -1.8379 -0.2723
   36CHL1    C9 2627   4.359   6.114   7.493 -0.6315  0.1183 -0.1587
   36CHL1    H9 2628   4.390   6.007   7.499  1.2731  0.5518 -1.6031
   36CHL1   C10 2629   4.383   6.147   7.339 -0.0007 -0.8056  0.1427
   36CHL1   C19 2630   4.434   6.294   7.343  0.0335 -0.3390  0.2141
   36CHL1  H19A 2631   4.367   6.359   7.403 -1.2230 -0.4864 -1.0104
   36CHL1  H19B 2632   4.532   6.292   7.395  0.7537 -2.2588 -1.1537
   36CHL1  H19C 2633   4.452   6.330   7.240 -1.6960  0.5435  0.2165
   36CHL1    C1 2634   4.494   6.055   7.276 -0.0885 -0.4015 -0.5402
   36CHL1   H1A 2635   4.589   6.090   7.323  0.6816 -1.0123 -1.6063
   36CHL1   H1B 2636   4.464   5.952   7.306 -0.8544 -0.4492 -1.4586
   36CHL1    C2 2637   4.508   6.074   7.122 -0.7903  0.3459 -0.2831
   36CHL1   H2A 2638   4.597   6.018   7.087 -1.8039 -1.3695 -0.1504
   36CHL1   H2B 2639   4.534   6.181   7.107  3.6765 -0.6940 -0.6600
   36CHL1   C20 2640   4.281   6.160   8.057  0.3289 -0.4229  0.3942
   36CHL1   H20 2641   4.221   6.254   8.052 -0.2395 -0.8812 -2.1725
   36CHL1   C21 2642   4.431   6.191   8.064 -0.4803  0.8552 -0.8170
   36CHL1  H21A 2643   4.465   6.266   7.991  1.4158  1.6048  0.7794
   36CHL1  H21B 2644   4.486   6.094   8.054 -1.2355  0.1241  1.6897
   36CHL1  H21C 2645   4.464   6.239   8.159  2.4793 -3.0409  0.2940
   36CHL1   C22 2646   4.232   6.076   8.179  0.5094 -0.3959  0.2584
   36CHL1  H22A 2647   4.128   6.037   8.175  0.9547 -1.5582 -0.4463
   36CHL1  H22B 2648   4.292   5.982   8.166  1.3661  0.5312 -3.0343
   36CHL1   C23 2649   4.243   6.161   8.307 -0.3676 -0.3489 -0.3898
   36CHL1  H23A 2650   4.278   6.096   8.390  0.5213 -0.0807 -0.5435
   36CHL1  H23B 2651   4.314   6.246   8.297 -0.6522 -0.0851 -0.2010
   36CHL1   C24 2652   4.104   6.213   8.340  0.4235  0.2397 -0.1400
   36CHL1  H24A 2653   4.067   6.268   8.250 -2.9123 -2.3502 -0.4595
   36CHL1  H24B 2654   4.038   6.126   8.360 -1.4061  1.2660 -1.4640
   36CHL1   C25 2655   4.088   6.314   8.452  0.7097 -0.4734  0.4540
   36CHL1   H25 2656   4.150   6.402   8.426 -0.1025 -0.3499 -1.1313
   36CHL1   C26 2657   3.936   6.359   8.454 -0.2604 -1.1229 -0.5262
   36CHL1  H26A 2658   3.879   6.266   8.477  0.4624 -1.2247  0.9189
   36CHL1  H26B 2659   3.919   6.416   8.548  0.6233 -1.8075  0.0643
   36CHL1  H26C 2660   3.905   6.421   8.367  2.0260 -1.8318 -1.8933
   36CHL1   C27 2661   4.139   6.258   8.584 -0.3311 -0.2428 -0.5659
   36CHL1  H27A 2662   4.140   6.329   8.670 -1.9990  1.6742 -2.0891
   36CHL1  H27B 2663   4.081   6.165   8.603 -2.1244  1.2281  1.4254
   36CHL1  H27C 2664   4.240   6.213   8.574 -0.8916 -1.8922  0.8678
   37CHL1    C3 2665   0.512   1.794   6.955 -0.1171  0.2801 -0.6754
   37CHL1    H3 2666   0.592   1.865   6.982 -0.1413  0.3720 -0.8452
   37CHL1    O3 2667   0.513   1.791   6.815 -0.4801  0.3352  0.8183
   37CHL1   H3' 2668   0.456   1.718   6.792 -0.9755  0.3991  1.8194
   37CHL1    C4 2669   0.535   1.656   7.013 -0.0998  0.5501 -0.4810
   37CHL1   H4A 2670   0.478   1.579   6.958 -0.8123  0.3298  0.5626
   37CHL1   H4B 2671   0.639   1.622   6.995 -0.6032 -1.1709 -0.2094
   37CHL1    C5 2672   0.504   1.638   7.159  0.4574 -0.1584 -0.4705
   37CHL1    C6 2673   0.603   1.586   7.240  0.7136  0.4247  0.0368
   37CHL1    H6 2674   0.701   1.560   7.197  0.9074 -1.8145  1.7405
   37CHL1    C7 2675   0.577   1.557   7.383  0.1983  0.1332 -0.0631
   37CHL1   H7A 2676   0.625   1.461   7.411 -0.4426 -0.9344 -2.4596
   37CHL1   H7B 2677   0.628   1.639   7.437  1.3535 -1.2340  0.9581
   37CHL1    C8 2678   0.426   1.565   7.430  0.4735  0.1096  0.3338
   37CHL1    H8 2679   0.366   1.475   7.402 -0.8889  0.5741  1.6592
   37CHL1   C14 2680   0.417   1.588   7.573 -0.3434  0.6771  0.3283
   37CHL1   H14 2681   0.471   1.684   7.592  3.4744 -1.7973  2.4890
   37CHL1   C15 2682   0.494   1.492   7.658  0.5448  0.1426 -0.1365
   37CHL1  H15A 2683   0.485   1.382   7.643  0.5083 -0.1458  1.8709
   37CHL1  H15B 2684   0.604   1.504   7.662  0.7226 -1.8313  1.5685
   37CHL1   C16 2685   0.446   1.530   7.802 -0.0949 -0.4427  0.0349
   37CHL1  H16A 2686   0.438   1.435   7.858  1.1354  0.7888  2.3803
   37CHL1  H16B 2687   0.531   1.576   7.856 -0.3466 -1.6739  1.5080
   37CHL1   C17 2688   0.316   1.623   7.787 -0.8776  0.4359  0.4952
   37CHL1   H17 2689   0.362   1.724   7.787 -0.1849  0.1364  1.6173
   37CHL1   C13 2690   0.282   1.608   7.640  0.3813  0.0634 -0.1576
   37CHL1   C18 2691   0.195   1.472   7.627  0.1956 -0.3869  0.6399
   37CHL1  H18A 2692   0.256   1.389   7.668  0.1571 -1.1379 -0.8138
   37CHL1  H18B 2693   0.106   1.478   7.694 -0.6566  3.4260 -0.6985
   37CHL1  H18C 2694   0.166   1.445   7.524  2.0892 -0.5436  0.1392
   37CHL1   C12 2695   0.224   1.735   7.565 -0.0124  0.5861  0.2092
   37CHL1  H12A 2696   0.119   1.753   7.598 -0.3035  0.3792 -0.5981
   37CHL1  H12B 2697   0.296   1.817   7.587  0.2841  0.1405  0.9229
   37CHL1   C11 2698   0.219   1.716   7.417  0.0122  0.1543 -0.2308
   37CHL1  H11A 2699   0.143   1.639   7.393 -1.1578  0.7244  1.5350
   37CHL1  H11B 2700   0.181   1.809   7.369 -0.5692 -0.5182 -1.0917
   37CHL1    C9 2701   0.354   1.681   7.353  0.6596 -0.6572 -0.1694
   37CHL1    H9 2702   0.407   1.774   7.383 -0.6410  0.0615 -0.0678
   37CHL1   C10 2703   0.370   1.681   7.198  0.4589 -0.2801  0.2090
   37CHL1   C19 2704   0.266   1.589   7.140  0.0885 -0.3675  0.0716
   37CHL1  H19A 2705   0.263   1.595   7.029 -2.5704  0.6461  0.1775
   37CHL1  H19B 2706   0.278   1.481   7.163  0.5650  0.1945  2.7429
   37CHL1  H19C 2707   0.166   1.622   7.175  0.2430 -1.4148  1.5786
   37CHL1    C1 2708   0.356   1.825   7.145 -0.0634 -0.0906  0.3210
   37CHL1   H1A 2709   0.258   1.865   7.177 -0.0237  1.4778 -1.4381
   37CHL1   H1B 2710   0.421   1.899   7.197  0.8312  0.8687 -2.0854
   37CHL1    C2 2711   0.380   1.842   6.997 -0.2558 -0.2410  0.0623
   37CHL1   H2A 2712   0.361   1.943   6.954  0.8960  0.6659  1.6481
   37CHL1   H2B 2713   0.302   1.773   6.959  0.0844 -0.7745  0.3333
   37CHL1   C20 2714   0.215   1.613   7.900  0.1520 -0.5143  0.1654
   37CHL1   H20 2715   0.178   1.508   7.897 -0.8642 -0.1610  0.4977
   37CHL1   C21 2716   0.102   1.718   7.869 -0.1873  0.0112 -0.1404
   37CHL1  H21A 2717   0.050   1.675   7.781  1.7878  0.2978 -1.4567
   37CHL1  H21B 2718   0.143   1.815   7.835 -2.7161  0.6751 -1.4577
   37CHL1  H21C 2719   0.027   1.737   7.949 -1.3219 -1.8532 -0.7368
   37CHL1   C22 2720   0.287   1.630   8.037  0.4925  0.2601  0.3720
   37CHL1  H22A 2721   0.370   1.559   8.061  0.4763 -0.6318 -2.1209
   37CHL1  H22B 2722   0.328   1.733   8.046  2.6146 -0.5697  0.5010
   37CHL1   C23 2723   0.177   1.600   8.146  0.0832 -0.9021 -0.5692
   37CHL1  H23A 2724   0.090   1.669   8.140  0.4425 -0.4471 -0.5847
   37CHL1  H23B 2725   0.137   1.499   8.122 -2.9865 -0.9308  3.9288
   37CHL1   C24 2726   0.240   1.603   8.285 -0.5172  0.3603 -0.0287
   37CHL1  H24A 2727   0.318   1.524   8.286 -0.1389  0.7434  1.6246
   37CHL1  H24B 2728   0.287   1.702   8.302  1.0314 -0.5418  0.9897
   37CHL1   C25 2729   0.147   1.567   8.404 -0.8988 -0.1372  0.1167
   37CHL1   H25 2730   0.099   1.477   8.361 -0.0059 -0.2377 -0.7032
   37CHL1   C26 2731   0.225   1.526   8.529  0.3630 -0.3148  0.4242
   37CHL1  H26A 2732   0.153   1.470   8.592  1.8335 -0.7057  1.7893
   37CHL1  H26B 2733   0.309   1.458   8.503  0.4800 -0.2488  0.6329
   37CHL1  H26C 2734   0.269   1.613   8.581 -0.0501  0.4104 -0.4267
   37CHL1   C27 2735   0.047   1.670   8.438  1.0140 -0.2796  0.0694
   37CHL1  H27A 2736  -0.017   1.645   8.525 -1.3032 -0.3328 -1.5933
   37CHL1  H27B 2737   0.082   1.767   8.479 -0.5817  0.8694 -1.1957
   37CHL1  H27C 2738  -0.015   1.687   8.347  0.6382  0.8603  0.5354
   38CHL1    C3 2739   3.807   2.483   6.703 -0.1910 -0.2017  0.1481
   38CHL1    H3 2740   3.800   2.410   6.786 -1.1494 -1.9382 -1.4097
   38CHL1    O3 2741   3.749   2.431   6.584  0.6637  0.1345  0.2571
   38CHL1   H3' 2742   3.671   2.378   6.603  1.5672 -0.3476  2.9011
   38CHL1    C4 2743   3.740   2.617   6.745 -0.3174 -0.0110  0.0305
   38CHL1   H4A 2744   3.772   2.689   6.667  0.9016  0.4769  0.9507
   38CHL1   H4B 2745   3.632   2.593   6.750  0.0517 -1.8594 -0.6769
   38CHL1    C5 2746   3.792   2.661   6.878 -0.3017  0.6771  0.1803
   38CHL1    C6 2747   3.709   2.681   6.980  0.8343  0.6954  0.6301
   38CHL1    H6 2748   3.602   2.669   6.961  0.6234  0.0089  2.1907
   38CHL1    C7 2749   3.758   2.721   7.116 -0.1742 -0.0631 -0.7988
   38CHL1   H7A 2750   3.687   2.803   7.139  1.0767  1.6950 -2.9489
   38CHL1   H7B 2751   3.749   2.631   7.180  0.7916  1.7459  1.9445
   38CHL1    C8 2752   3.894   2.783   7.122 -0.0579  0.3957  0.3951
   38CHL1    H8 2753   3.897   2.888   7.086  0.5628 -0.3653 -1.8843
   38CHL1   C14 2754   3.944   2.785   7.268 -0.5177  1.0272  0.2368
   38CHL1   H14 2755   3.950   2.677   7.293 -0.2306 -0.1116 -4.2683
   38CHL1   C15 2756   3.850   2.843   7.372  0.2673  0.0945  0.0105
   38CHL1  H15A 2757   3.810   2.935   7.324 -0.9923 -0.2992  0.2798
   38CHL1  H15B 2758   3.773   2.765   7.390  0.6834  0.0047  1.4744
   38CHL1   C16 2759   3.943   2.873   7.491 -0.0130 -0.1665  0.1359
   38CHL1  H16A 2760   3.939   2.978   7.528  1.8072 -0.2505  0.6258
   38CHL1  H16B 2761   3.929   2.808   7.580  0.7359 -1.6079 -0.7807
   38CHL1   C17 2762   4.091   2.836   7.442  0.0343  0.2045 -0.3450
   38CHL1   H17 2763   4.103   2.729   7.470 -0.9923  0.4657  1.1195
   38CHL1   C13 2764   4.081   2.841   7.294  0.0911 -0.6187  0.6838
   38CHL1   C18 2765   4.084   2.992   7.258  0.1528 -0.0149 -0.1505
   38CHL1  H18A 2766   4.065   3.009   7.150 -0.3229 -1.9471 -0.3992
   38CHL1  H18B 2767   4.009   3.057   7.307  0.3571  0.7460 -0.8381
   38CHL1  H18C 2768   4.181   3.039   7.285 -0.7486  0.8832  1.5841
   38CHL1   C12 2769   4.177   2.758   7.207 -0.2579 -0.2907  0.2646
   38CHL1  H12A 2770   4.279   2.802   7.212 -1.7075  3.6025 -1.6528
   38CHL1  H12B 2771   4.175   2.657   7.252  1.2013  0.3311  1.7676
   38CHL1   C11 2772   4.138   2.743   7.059  0.0905  0.0910  0.2292
   38CHL1  H11A 2773   4.151   2.840   7.005  0.1951 -0.7001 -1.2000
   38CHL1  H11B 2774   4.195   2.663   7.006 -0.2910  0.6808 -1.1026
   38CHL1    C9 2775   3.989   2.699   7.036 -0.4474 -0.0130  0.4216
   38CHL1    H9 2776   3.979   2.597   7.079 -2.3104  0.3676  0.9378
   38CHL1   C10 2777   3.947   2.680   6.884 -0.4723  0.3111  0.0237
   38CHL1   C19 2778   3.993   2.812   6.802 -0.0608  0.1329  0.4245
   38CHL1  H19A 2779   3.947   2.906   6.841  1.3096  0.7383  0.6160
   38CHL1  H19B 2780   4.103   2.819   6.811  0.1935 -0.5223 -2.0080
   38CHL1  H19C 2781   3.978   2.811   6.692 -2.9255  0.7046  0.7714
   38CHL1    C1 2782   4.015   2.554   6.821 -0.1115  1.3695 -0.1747
   38CHL1   H1A 2783   4.121   2.587   6.811  0.1916  0.4373 -0.1568
   38CHL1   H1B 2784   4.009   2.465   6.888  2.2489  1.7974  0.6399
   38CHL1    C2 2785   3.960   2.508   6.686 -0.3933 -0.2255 -0.3361
   38CHL1   H2A 2786   4.006   2.408   6.670  0.6674  0.3757 -1.1694
   38CHL1   H2B 2787   3.972   2.574   6.598 -3.1920 -2.2513 -2.3146
   38CHL1   C20 2788   4.199   2.913   7.520 -0.6348  0.1153 -0.0201
   38CHL1   H20 2789   4.180   3.021   7.500 -2.8295 -0.6918 -2.4336
   38CHL1   C21 2790   4.338   2.877   7.456  0.4960  0.0863 -0.2138
   38CHL1  H21A 2791   4.428   2.932   7.493  1.3332 -1.7249  0.5152
   38CHL1  H21B 2792   4.342   2.900   7.348  0.4853 -0.7645 -0.3959
   38CHL1  H21C 2793   4.352   2.769   7.476  0.0671 -0.2352 -1.6404
   38CHL1   C22 2794   4.207   2.889   7.673 -0.1480 -0.0940  0.1718
   38CHL1  H22A 2795   4.111   2.923   7.717 -0.6287 -0.9978 -0.1510
   38CHL1  H22B 2796   4.201   2.780   7.697  0.6524 -0.6141 -1.8505
   38CHL1   C23 2797   4.331   2.951   7.745 -0.2092  0.2489 -0.0262
   38CHL1  H23A 2798   4.417   2.905   7.692 -0.3225 -1.9039  1.5961
   38CHL1  H23B 2799   4.341   3.058   7.716 -2.1743  1.4660  3.4723
   38CHL1   C24 2800   4.338   2.927   7.893  0.0387 -0.0471 -0.1807
   38CHL1  H24A 2801   4.252   2.971   7.950  0.9153  2.1268 -0.4699
   38CHL1  H24B 2802   4.330   2.817   7.906 -0.1425  0.0218  0.3022
   38CHL1   C25 2803   4.468   2.976   7.963 -0.5150 -0.4390 -0.6801
   38CHL1   H25 2804   4.481   2.925   8.061  0.8815 -1.5859 -1.4437
   38CHL1   C26 2805   4.592   2.938   7.877  0.1080 -0.1246  0.7896
   38CHL1  H26A 2806   4.593   2.995   7.781  0.9931 -1.0017  0.2594
   38CHL1  H26B 2807   4.689   2.959   7.927  1.0402 -2.6759  0.1485
   38CHL1  H26C 2808   4.585   2.829   7.857 -3.5157 -0.0314  1.2562
   38CHL1   C27 2809   4.466   3.129   7.972  0.2818 -0.2874 -0.2875
   38CHL1  H27A 2810   4.384   3.161   8.040  1.3854 -1.8518  1.8447
   38CHL1  H27B 2811   4.560   3.172   8.012 -0.2458  0.0517  0.5943
   38CHL1  H27C 2812   4.450   3.164   7.868 -0.5568 -1.8803 -0.7236
   39CHL1    C3 2813   3.049   1.064   6.923  0.3277 -0.2940  0.0281
   39CHL1    H3 2814   2.944   1.100   6.930 -0.3232 -2.1735  0.2650
   39CHL1    O3 2815   3.072   1.042   6.787  0.0441 -0.2290  0.2820
   39CHL1   H3' 2816   3.104   0.952   6.785 -0.0917 -0.3131  1.4999
   39CHL1    C4 2817   3.126   1.182   6.978  0.4311 -0.0906 -0.1706
   39CHL1   H4A 2818   3.233   1.179   6.947 -0.1708 -1.8304 -2.1866
   39CHL1   H4B 2819   3.090   1.278   6.935 -1.1371  0.7429  2.8542
   39CHL1    C5 2820   3.126   1.194   7.131  0.1362  0.2437 -0.0880
   39CHL1    C6 2821   3.093   1.312   7.182 -0.1904 -0.3980  0.6134
   39CHL1    H6 2822   3.079   1.388   7.104  0.5681 -1.9332 -1.0646
   39CHL1    C7 2823   3.076   1.342   7.328  0.2819 -0.8483 -0.6445
   39CHL1   H7A 2824   3.149   1.421   7.354 -1.4289  0.3060  0.8282
   39CHL1   H7B 2825   2.968   1.356   7.351  0.2625 -2.3341  0.2855
   39CHL1    C8 2826   3.123   1.222   7.413  0.7437 -0.4674 -0.1313
   39CHL1    H8 2827   3.234   1.217   7.414  0.8214  1.0065 -0.1751
   39CHL1   C14 2828   3.078   1.240   7.560 -0.1636 -0.4466  0.2737
   39CHL1   H14 2829   2.967   1.237   7.556 -0.1135 -0.2893 -1.6720
   39CHL1   C15 2830   3.115   1.370   7.631  0.2920  0.8751  0.0678
   39CHL1  H15A 2831   3.219   1.393   7.598  0.5805 -0.0295  0.3441
   39CHL1  H15B 2832   3.058   1.452   7.583  0.2592  0.0228 -1.3585
   39CHL1   C16 2833   3.108   1.347   7.781 -0.2613  0.3334  0.7517
   39CHL1  H16A 2834   3.208   1.365   7.826  0.7750  1.1586 -1.8111
   39CHL1  H16B 2835   3.033   1.413   7.829  0.6000  2.2330 -0.4503
   39CHL1   C17 2836   3.075   1.197   7.794  0.1325 -1.0842  0.3604
   39CHL1   H17 2837   2.965   1.204   7.808  0.4649  1.3044  2.0207
   39CHL1   C13 2838   3.113   1.130   7.655  0.0352  0.1564 -0.2435
   39CHL1   C18 2839   3.267   1.113   7.669 -0.1467 -0.3387 -0.1789
   39CHL1  H18A 2840   3.304   1.080   7.570 -1.3451  1.1377 -1.1389
   39CHL1  H18B 2841   3.323   1.199   7.710  1.8456 -1.6121 -0.1475
   39CHL1  H18C 2842   3.284   1.025   7.735 -1.4945  0.2183  0.9291
   39CHL1   C12 2843   3.041   1.000   7.611 -0.3495 -0.6511  0.5081
   39CHL1  H12A 2844   3.058   0.914   7.678  2.7167  0.5015  1.2862
   39CHL1  H12B 2845   2.933   1.026   7.613 -0.2582 -0.0069 -1.8195
   39CHL1   C11 2846   3.073   0.967   7.464 -0.1215 -0.3626 -0.6025
   39CHL1  H11A 2847   3.174   0.922   7.457  0.9122  1.7128  0.4780
   39CHL1  H11B 2848   3.002   0.886   7.439  0.0671 -1.4086  2.0902
   39CHL1    C9 2849   3.069   1.091   7.359  0.2485 -0.4316 -0.1419
   39CHL1    H9 2850   2.960   1.115   7.355  0.4318  0.8021  1.5504
   39CHL1   C10 2851   3.125   1.064   7.214 -0.7985 -0.6557  0.4329
   39CHL1   C19 2852   3.269   1.001   7.226  0.0924 -0.2315 -0.4228
   39CHL1  H19A 2853   3.343   1.063   7.280  0.7646 -0.4664 -1.0749
   39CHL1  H19B 2854   3.269   0.904   7.280 -1.8400  0.3826  0.7266
   39CHL1  H19C 2855   3.320   0.983   7.129 -0.0754  1.6417 -0.8883
   39CHL1    C1 2856   3.034   0.955   7.147 -0.6339 -0.4638  0.2457
   39CHL1   H1A 2857   3.051   0.854   7.188 -0.2735  0.1860  1.7252
   39CHL1   H1B 2858   2.925   0.975   7.158 -0.5292  1.9850 -2.4445
   39CHL1    C2 2859   3.061   0.935   6.997  0.8522 -0.0715 -0.0393
   39CHL1   H2A 2860   2.986   0.864   6.957  0.6323  0.2161 -0.1316
   39CHL1   H2B 2861   3.158   0.884   6.975 -0.1419 -1.9599 -0.1317
   39CHL1   C20 2862   3.127   1.137   7.926 -0.5243 -0.0802  0.4795
   39CHL1   H20 2863   3.238   1.132   7.928 -0.4355  0.9419 -1.1722
   39CHL1   C21 2864   3.072   0.993   7.947  0.3267 -0.4267  0.5264
   39CHL1  H21A 2865   3.085   0.949   8.049 -2.3025 -4.6842 -0.8617
   39CHL1  H21B 2866   3.119   0.932   7.867  2.2469  0.1461  1.1819
   39CHL1  H21C 2867   2.963   1.001   7.928  0.5626 -0.0858 -0.6860
   39CHL1   C22 2868   3.087   1.211   8.055 -0.3717  0.1299 -0.4158
   39CHL1  H22A 2869   3.088   1.320   8.032 -1.3507  0.4036  0.7602
   39CHL1  H22B 2870   2.986   1.177   8.087 -0.1998  1.9497  2.1951
   39CHL1   C23 2871   3.173   1.189   8.187 -0.8369 -0.2956  0.1567
   39CHL1  H23A 2872   3.161   1.087   8.230 -2.0850 -0.6072 -0.8887
   39CHL1  H23B 2873   3.278   1.204   8.155 -0.4532 -2.3490  0.3718
   39CHL1   C24 2874   3.132   1.296   8.288 -0.0804  0.2286 -0.2354
   39CHL1  H24A 2875   3.173   1.398   8.271 -4.0482  1.8897 -0.4004
   39CHL1  H24B 2876   3.021   1.297   8.296  0.0289 -1.1870  1.8468
   39CHL1   C25 2877   3.170   1.257   8.439  0.2237  0.3334 -0.3863
   39CHL1   H25 2878   3.138   1.346   8.498 -1.1111 -0.5218  0.2197
   39CHL1   C26 2879   3.084   1.139   8.489 -0.4238  0.4981  0.3428
   39CHL1  H26A 2880   2.977   1.160   8.468  0.3344  2.5423 -1.7836
   39CHL1  H26B 2881   3.114   1.044   8.440 -0.7363  0.1865  0.7575
   39CHL1  H26C 2882   3.099   1.106   8.594  0.8743 -1.4960 -0.4330
   39CHL1   C27 2883   3.314   1.248   8.471 -0.3589  0.5505 -0.3133
   39CHL1  H27A 2884   3.356   1.159   8.420 -3.0268 -1.2796  0.5927
   39CHL1  H27B 2885   3.366   1.344   8.450 -0.0740  0.7698  1.2998
   39CHL1  H27C 2886   3.316   1.223   8.579  0.5402 -0.3568 -0.5246
   40CHL1    C3 2887   6.206   1.110   6.935 -0.4342 -0.1009  0.1594
   40CHL1    H3 2888   6.294   1.168   6.970 -0.6986  1.1848 -1.2757
   40CHL1    O3 2889   6.213   1.096   6.798 -0.1482  0.1092  0.3341
   40CHL1   H3' 2890   6.299   1.137   6.785 -0.3513 -0.1231 -1.9425
   40CHL1    C4 2891   6.219   0.970   6.999 -0.0310 -0.3654  0.1674
   40CHL1   H4A 2892   6.139   0.903   6.963 -0.9046  1.7031 -1.8270
   40CHL1   H4B 2893   6.315   0.933   6.956 -0.0615  0.0077 -0.2238
   40CHL1    C5 2894   6.222   0.975   7.149 -0.1984  0.2408 -0.2588
   40CHL1    C6 2895   6.318   0.919   7.233  0.7260  0.3489  0.2926
   40CHL1    H6 2896   6.398   0.856   7.192 -1.2849 -0.7414 -2.0715
   40CHL1    C7 2897   6.318   0.924   7.384 -0.3376  0.1035  0.0628
   40CHL1   H7A 2898   6.329   0.822   7.427 -2.0743  0.3433  1.1100
   40CHL1   H7B 2899   6.393   0.996   7.423 -1.0367  0.6183  0.4672
   40CHL1    C8 2900   6.190   0.970   7.444 -0.1532  0.0319  1.4325
   40CHL1    H8 2901   6.113   0.890   7.443 -0.9894  0.7757 -1.9292
   40CHL1   C14 2902   6.212   1.014   7.589  0.1111  0.0551  0.7361
   40CHL1   H14 2903   6.286   1.097   7.596  0.9903 -0.4851 -1.7614
   40CHL1   C15 2904   6.255   0.909   7.686  0.3441  0.0865  0.5107
   40CHL1  H15A 2905   6.181   0.826   7.682  0.4679 -0.0213  0.4319
   40CHL1  H15B 2906   6.356   0.866   7.665  0.3661  0.8963 -1.1122
   40CHL1   C16 2907   6.240   0.979   7.823  0.4853  0.2863 -0.3305
   40CHL1  H16A 2908   6.211   0.900   7.896 -0.6489 -0.6238 -1.7399
   40CHL1  H16B 2909   6.339   1.016   7.857  2.8177 -4.3520 -1.6223
   40CHL1   C17 2910   6.139   1.088   7.805  0.2264  0.1678 -0.2875
   40CHL1   H17 2911   6.195   1.184   7.809  1.0255 -0.3436  1.1927
   40CHL1   C13 2912   6.094   1.077   7.658  0.1815  0.4630 -0.0958
   40CHL1   C18 2913   5.968   0.974   7.653 -0.2387 -0.0035  0.3019
   40CHL1  H18A 2914   5.951   0.944   7.548  2.2376 -1.9536  0.4067
   40CHL1  H18B 2915   5.982   0.877   7.706  0.7773 -0.3658 -0.6193
   40CHL1  H18C 2916   5.882   1.028   7.698 -1.0422 -1.6359  0.7962
   40CHL1   C12 2917   6.060   1.202   7.582  1.1087 -0.3949 -0.1417
   40CHL1  H12A 2918   5.968   1.248   7.624  0.6258  0.2558 -1.8522
   40CHL1  H12B 2919   6.142   1.276   7.594 -1.3230  2.0669  1.8087
   40CHL1   C11 2920   6.044   1.181   7.430  0.7220 -0.1462 -0.7151
   40CHL1  H11A 2921   5.947   1.130   7.412  0.2438  1.0633 -1.6039
   40CHL1  H11B 2922   6.030   1.282   7.387 -2.7004 -0.6296 -0.9021
   40CHL1    C9 2923   6.148   1.094   7.363  0.3406  0.4445 -0.5009
   40CHL1    H9 2924   6.233   1.164   7.367  2.6173 -2.2253 -0.4592
   40CHL1   C10 2925   6.111   1.066   7.208 -0.0676 -0.1963 -0.2405
   40CHL1   C19 2926   5.985   0.973   7.197 -0.3404 -0.1985  0.2176
   40CHL1  H19A 2927   5.965   0.940   7.093  1.5746  0.6825 -0.4657
   40CHL1  H19B 2928   6.000   0.884   7.262 -0.1538 -0.0467  0.3811
   40CHL1  H19C 2929   5.894   1.031   7.221 -1.2067 -0.9219 -1.2044
   40CHL1    C1 2930   6.097   1.203   7.134 -0.2019 -0.4270  0.1363
   40CHL1   H1A 2931   6.014   1.271   7.165  0.1292  0.7143 -1.4293
   40CHL1   H1B 2932   6.191   1.261   7.147 -0.0632 -0.4393 -0.7855
   40CHL1    C2 2933   6.087   1.190   6.981 -0.1684  0.4989  0.1788
   40CHL1   H2A 2934   6.079   1.292   6.937 -0.2408  0.0571 -0.8485
   40CHL1   H2B 2935   5.990   1.141   6.955 -0.9254  2.2382 -0.3476
   40CHL1   C20 2936   6.037   1.099   7.920 -0.4924  0.1087  0.5468
   40CHL1   H20 2937   5.986   1.001   7.918  2.1452 -1.2909  0.1482
   40CHL1   C21 2938   5.938   1.216   7.883 -0.4751 -0.4985 -0.0069
   40CHL1  H21A 2939   5.864   1.250   7.958 -1.0600 -0.3583 -0.6483
   40CHL1  H21B 2940   5.881   1.182   7.794  0.1121  0.8534 -0.9145
   40CHL1  H21C 2941   5.997   1.305   7.852 -0.9601  0.1858  1.0249
   40CHL1   C22 2942   6.100   1.114   8.061  0.3764 -0.0908 -0.1546
   40CHL1  H22A 2943   6.019   1.101   8.136 -2.2567 -1.9063 -3.1945
   40CHL1  H22B 2944   6.164   1.028   8.092 -2.4194 -1.1308  3.0173
   40CHL1   C23 2945   6.179   1.240   8.092 -0.7614  0.1100 -0.3888
   40CHL1  H23A 2946   6.268   1.248   8.027  0.6524  1.0979  1.6123
   40CHL1  H23B 2947   6.111   1.324   8.066 -3.2084 -1.2459  1.3040
   40CHL1   C24 2948   6.222   1.257   8.244 -0.2006 -0.3597  0.4553
   40CHL1  H24A 2949   6.271   1.354   8.267 -0.2218 -0.7397  2.1119
   40CHL1  H24B 2950   6.134   1.255   8.312 -1.8246 -0.9945 -1.6196
   40CHL1   C25 2951   6.329   1.145   8.297  0.5950  0.0746 -0.3332
   40CHL1   H25 2952   6.261   1.060   8.317  0.0917  1.1205  2.7613
   40CHL1   C26 2953   6.437   1.099   8.194  0.5396 -0.5162  0.1345
   40CHL1  H26A 2954   6.500   1.182   8.157 -1.3167  0.2823 -1.3403
   40CHL1  H26B 2955   6.494   1.019   8.247 -0.5987 -1.2113  0.3297
   40CHL1  H26C 2956   6.388   1.052   8.106 -0.9866  1.7633 -0.2849
   40CHL1   C27 2957   6.386   1.181   8.435  0.2387 -0.2143  0.1273
   40CHL1  H27A 2958   6.430   1.090   8.481  1.4410 -0.5191 -1.5896
   40CHL1  H27B 2959   6.462   1.261   8.431  0.5856 -0.5646 -0.3946
   40CHL1  H27C 2960   6.302   1.215   8.500  0.0173 -0.9002  0.2045
   41CHL1    C3 2961   6.759   0.684   7.043  0.1245 -0.8365  0.3046
   41CHL1    H3 2962   6.776   0.574   7.054 -2.3909 -1.3065 -0.2290
   41CHL1    O3 2963   6.753   0.719   6.909  0.3148  0.2559 -0.2113
   41CHL1   H3' 2964   6.831   0.673   6.878  0.6140 -1.9755  3.5972
   41CHL1    C4 2965   6.631   0.729   7.103 -0.0959 -0.0120  0.1414
   41CHL1   H4A 2966   6.621   0.838   7.083 -0.7528 -0.1792 -0.4793
   41CHL1   H4B 2967   6.551   0.679   7.044 -1.0122 -1.1687  2.2987
   41CHL1    C5 2968   6.616   0.703   7.249  0.1111  0.0432 -0.4549
   41CHL1    C6 2969   6.520   0.626   7.303 -0.1135 -0.2660  0.1326
   41CHL1    H6 2970   6.441   0.592   7.234 -1.9092  1.4334  1.2929
   41CHL1    C7 2971   6.500   0.591   7.449 -0.3914 -1.1040  0.0441
   41CHL1   H7A 2972   6.397   0.612   7.483 -0.8324 -3.4484  0.2524
   41CHL1   H7B 2973   6.522   0.484   7.473  1.8693 -1.3110 -2.6895
   41CHL1    C8 2974   6.593   0.678   7.540  0.3815 -0.7589  0.2091
   41CHL1    H8 2975   6.553   0.781   7.545  3.1844  0.3795  0.3061
   41CHL1   C14 2976   6.606   0.620   7.678  0.1322 -0.0632 -0.3414
   41CHL1   H14 2977   6.657   0.522   7.665  0.4432  0.1882 -1.0123
   41CHL1   C15 2978   6.476   0.582   7.738  0.0415  0.2250  0.3238
   41CHL1  H15A 2979   6.399   0.660   7.721  2.1580  2.8509  2.4231
   41CHL1  H15B 2980   6.447   0.480   7.703  0.9341  0.5409 -1.3695
   41CHL1   C16 2981   6.518   0.559   7.888 -0.0147  0.8675 -0.6721
   41CHL1  H16A 2982   6.446   0.621   7.945 -2.0334  0.5100 -2.7498
   41CHL1  H16B 2983   6.503   0.453   7.918 -2.1186  1.3344  0.0062
   41CHL1   C17 2984   6.666   0.609   7.904  0.2857  0.6134 -0.3912
   41CHL1   H17 2985   6.735   0.523   7.891 -0.0600 -0.0125  1.6697
   41CHL1   C13 2986   6.688   0.694   7.777 -0.2888  0.2081 -0.0453
   41CHL1   C18 2987   6.628   0.836   7.802  0.4476 -0.5355  0.1550
   41CHL1  H18A 2988   6.627   0.891   7.706 -0.2154 -2.2212 -0.8190
   41CHL1  H18B 2989   6.520   0.826   7.828  0.7046  2.9186  2.9686
   41CHL1  H18C 2990   6.685   0.891   7.880  1.0788 -1.4222  0.3292
   41CHL1   C12 2991   6.833   0.700   7.716  0.9761 -0.4298  0.4747
   41CHL1  H12A 2992   6.901   0.757   7.783 -0.0724  1.6188 -0.1570
   41CHL1  H12B 2993   6.864   0.595   7.700  1.9714  0.0340 -0.7760
   41CHL1   C11 2994   6.831   0.772   7.576  0.0125  0.4458  0.1267
   41CHL1  H11A 2995   6.794   0.874   7.598 -0.1284  0.0994  1.6003
   41CHL1  H11B 2996   6.932   0.789   7.533 -0.0696  2.4563  0.6808
   41CHL1    C9 2997   6.731   0.699   7.480  0.1453  0.3169 -0.9648
   41CHL1    H9 2998   6.776   0.598   7.466  0.4747  0.4209 -0.6469
   41CHL1   C10 2999   6.730   0.759   7.341  0.0943 -0.4048  0.2626
   41CHL1   C19 3000   6.701   0.908   7.358 -0.0032  0.1592 -0.0399
   41CHL1  H19A 3001   6.605   0.934   7.408 -0.5425 -3.7081  1.0954
   41CHL1  H19B 3002   6.779   0.954   7.422  0.9054  0.8181 -1.5902
   41CHL1  H19C 3003   6.708   0.960   7.260 -3.3865 -1.2851 -1.1022
   41CHL1    C1 3004   6.868   0.736   7.269  0.0660 -0.4009  0.1833
   41CHL1   H1A 3005   6.943   0.800   7.321  0.2260 -1.2740  1.0538
   41CHL1   H1B 3006   6.896   0.630   7.286 -0.5091 -0.9219 -2.0126
   41CHL1    C2 3007   6.874   0.763   7.117  0.8163  0.6541 -0.3687
   41CHL1   H2A 3008   6.964   0.720   7.068  1.5368  0.1599  1.3782
   41CHL1   H2B 3009   6.851   0.869   7.092 -0.0225  0.5802  0.0769
   41CHL1   C20 3010   6.699   0.677   8.038  0.2547  0.2287 -0.3052
   41CHL1   H20 3011   6.630   0.764   8.045 -1.2939 -1.1133  1.7051
   41CHL1   C21 3012   6.848   0.723   8.036 -0.3349 -0.3745  0.3841
   41CHL1  H21A 3013   6.921   0.650   7.995  0.1493  1.5955 -2.3936
   41CHL1  H21B 3014   6.877   0.766   8.134 -2.2610 -2.5597  1.9651
   41CHL1  H21C 3015   6.869   0.806   7.965 -0.4031 -1.8209 -1.3536
   41CHL1   C22 3016   6.676   0.580   8.155 -0.2181  0.3543  0.8345
   41CHL1  H22A 3017   6.577   0.531   8.144 -0.1104  0.3660 -0.1743
   41CHL1  H22B 3018   6.755   0.503   8.146  0.0720  0.6448  0.8946
   41CHL1   C23 3019   6.661   0.665   8.285 -0.1212  0.5816  0.2112
   41CHL1  H23A 3020   6.762   0.709   8.299  0.5698 -0.9606  0.1733
   41CHL1  H23B 3021   6.580   0.735   8.256  0.6929  1.2251 -0.5018
   41CHL1   C24 3022   6.622   0.586   8.415 -0.0603  0.4001  0.0485
   41CHL1  H24A 3023   6.520   0.544   8.408 -0.3215  1.4291 -3.0655
   41CHL1  H24B 3024   6.687   0.497   8.426 -2.2384 -1.1718  0.4443
   41CHL1   C25 3025   6.627   0.677   8.540 -0.0482  0.7635  0.1391
   41CHL1   H25 3026   6.731   0.714   8.554 -0.3031  1.1246  1.1591
   41CHL1   C26 3027   6.539   0.802   8.521 -0.0371  0.3895 -0.0107
   41CHL1  H26A 3028   6.440   0.770   8.483 -0.7237 -0.3829  2.3505
   41CHL1  H26B 3029   6.520   0.842   8.623  2.3046  0.0218  0.5841
   41CHL1  H26C 3030   6.595   0.870   8.454 -0.8491  2.3002  1.1963
   41CHL1   C27 3031   6.582   0.603   8.663  0.1673  0.3032 -0.0351
   41CHL1  H27A 3032   6.597   0.667   8.752 -0.0681 -0.6195  0.6772
   41CHL1  H27B 3033   6.475   0.570   8.660  0.8839 -2.2093  0.6583
   41CHL1  H27C 3034   6.644   0.513   8.682 -0.1953  0.3242  1.2973
   42CHL1    C3 3035   1.944   4.880   6.960  0.0517 -0.8813  0.2572
   42CHL1    H3 3036   2.044   4.839   6.988 -0.9294 -2.1573  1.9688
   42CHL1    O3 3037   1.924   4.894   6.824  0.4230  0.2310  0.4941
   42CHL1   H3' 3038   1.954   4.812   6.783 -1.5019 -0.7239  0.9738
   42CHL1    C4 3039   1.835   4.789   7.013 -0.0973  0.3789 -0.5854
   42CHL1   H4A 3040   1.732   4.826   6.993 -0.9890  0.6319  4.0361
   42CHL1   H4B 3041   1.828   4.692   6.959  1.5692 -0.2393  0.2740
   42CHL1    C5 3042   1.836   4.769   7.167 -0.7511  0.4888 -0.0124
   42CHL1    C6 3043   1.825   4.651   7.229 -0.4290 -1.0923  0.2163
   42CHL1    H6 3044   1.816   4.562   7.164 -2.2764 -0.0536 -1.0043
   42CHL1    C7 3045   1.819   4.633   7.380  0.2544  0.1037  0.0050
   42CHL1   H7A 3046   1.741   4.559   7.411 -1.0628  1.1454 -0.7725
   42CHL1   H7B 3047   1.921   4.599   7.410  0.0286  0.0157  0.6712
   42CHL1    C8 3048   1.799   4.763   7.462 -0.0912  0.2098 -0.7073
   42CHL1    H8 3049   1.689   4.781   7.457  0.0353  1.2361 -0.0182
   42CHL1   C14 3050   1.831   4.737   7.610  0.6373  0.0168 -0.0122
   42CHL1   H14 3051   1.939   4.713   7.613  0.3870 -1.0336  0.6935
   42CHL1   C15 3052   1.774   4.619   7.686 -0.1952 -0.1777  0.3952
   42CHL1  H15A 3053   1.665   4.600   7.673 -0.0019 -1.5386  0.6768
   42CHL1  H15B 3054   1.826   4.523   7.665 -1.1911 -1.0366  1.7567
   42CHL1   C16 3055   1.799   4.656   7.830 -0.1036  0.8506 -0.3902
   42CHL1  H16A 3056   1.707   4.639   7.890  0.9692  0.6216  1.2074
   42CHL1  H16B 3057   1.874   4.595   7.884 -1.7389 -2.3697 -1.6369
   42CHL1   C17 3058   1.850   4.805   7.833 -0.3793  1.0171 -0.3335
   42CHL1   H17 3059   1.960   4.815   7.841 -0.2494 -1.5163  1.5306
   42CHL1   C13 3060   1.812   4.864   7.694  0.1778 -0.5539 -0.6288
   42CHL1   C18 3061   1.661   4.894   7.691  0.1025  0.5237  1.1974
   42CHL1  H18A 3062   1.631   4.980   7.754  1.6185  0.8290  1.5240
   42CHL1  H18B 3063   1.623   4.921   7.590 -0.4594 -1.4609  0.8559
   42CHL1  H18C 3064   1.593   4.816   7.732  0.3095 -1.4050 -1.9080
   42CHL1   C12 3065   1.906   4.975   7.634  0.1189  0.7462  0.0413
   42CHL1  H12A 3066   1.906   5.068   7.696  0.3779  0.9137 -0.2067
   42CHL1  H12B 3067   2.009   4.934   7.629 -0.3286 -0.2056 -2.3653
   42CHL1   C11 3068   1.870   5.009   7.490  0.5091  0.3187  0.1157
   42CHL1  H11A 3069   1.768   5.051   7.504  0.5952  0.6965 -0.3709
   42CHL1  H11B 3070   1.929   5.095   7.449 -0.5868  0.5392 -1.0377
   42CHL1    C9 3071   1.878   4.882   7.399  0.1251  0.4225 -0.0770
   42CHL1    H9 3072   1.984   4.849   7.410 -0.0099 -0.2130 -0.6048
   42CHL1   C10 3073   1.844   4.899   7.247 -0.4206  0.4264 -0.4341
   42CHL1   C19 3074   1.700   4.967   7.237  0.0762 -0.2875 -0.1521
   42CHL1  H19A 3075   1.702   5.060   7.297  2.2438 -0.6284  0.3515
   42CHL1  H19B 3076   1.681   4.989   7.130 -0.0310 -1.9029 -0.4777
   42CHL1  H19C 3077   1.622   4.895   7.269 -0.6180  0.4176 -0.2693
   42CHL1    C1 3078   1.949   4.998   7.178  0.1265 -0.3279 -0.3271
   42CHL1   H1A 3079   1.930   5.088   7.241  0.0873 -0.1723 -0.5633
   42CHL1   H1B 3080   2.052   4.959   7.193  0.7434  0.8609 -1.3529
   42CHL1    C2 3081   1.933   5.016   7.032 -0.9964 -0.1696  0.0690
   42CHL1   H2A 3082   2.006   5.088   6.989 -0.0132 -2.9935 -3.2303
   42CHL1   H2B 3083   1.839   5.067   7.002  0.8439  1.7686 -2.6799
   42CHL1   C20 3084   1.791   4.869   7.962  1.1557 -0.6870  0.3411
   42CHL1   H20 3085   1.680   4.865   7.965  1.1941 -2.6395 -0.1067
   42CHL1   C21 3086   1.839   5.018   7.961  0.3600 -0.3499 -0.3496
   42CHL1  H21A 3087   1.950   5.019   7.952  0.3042 -2.0719 -1.5538
   42CHL1  H21B 3088   1.798   5.071   8.050 -1.8094 -3.1406  0.4010
   42CHL1  H21C 3089   1.777   5.078   7.891 -1.3113 -1.0938  0.4459
   42CHL1   C22 3090   1.850   4.813   8.096  0.1886  0.1049  0.0363
   42CHL1  H22A 3091   1.850   4.702   8.097  3.4511  0.0267 -1.9260
   42CHL1  H22B 3092   1.953   4.854   8.100  0.4668 -0.6689  1.0469
   42CHL1   C23 3093   1.766   4.858   8.214  0.3092  0.2479  0.3028
   42CHL1  H23A 3094   1.758   4.968   8.224 -0.9292  0.1388  0.6025
   42CHL1  H23B 3095   1.664   4.820   8.194  0.6216 -0.7466  0.5666
   42CHL1   C24 3096   1.823   4.789   8.344 -0.6439 -0.2961 -0.0624
   42CHL1  H24A 3097   1.792   4.682   8.344 -0.4470 -0.3820 -2.6279
   42CHL1  H24B 3098   1.934   4.791   8.340 -0.6198  1.9485  0.5892
   42CHL1   C25 3099   1.761   4.851   8.470 -0.5726  0.2223 -0.4722
   42CHL1   H25 3100   1.651   4.852   8.461 -0.8081  0.3221  2.0871
   42CHL1   C26 3101   1.789   4.762   8.595 -0.3004  0.1359 -0.1933
   42CHL1  H26A 3102   1.756   4.659   8.569  0.9609  0.0075 -1.3304
   42CHL1  H26B 3103   1.898   4.757   8.612 -0.1690  0.6146 -0.8681
   42CHL1  H26C 3104   1.723   4.804   8.674 -0.5779  0.7938 -0.7701
   42CHL1   C27 3105   1.815   4.993   8.504  0.2873  0.0421 -0.0266
   42CHL1  H27A 3106   1.923   4.989   8.529  0.4196 -1.0874 -0.7616
   42CHL1  H27B 3107   1.762   5.021   8.597 -1.6227  3.5751 -2.0301
   42CHL1  H27C 3108   1.793   5.074   8.430 -0.8704  0.1436  0.4063
   43CHL1    C3 3109   1.112   1.812   6.834 -0.5536 -0.7540  0.0748
   43CHL1    H3 3110   1.022   1.876   6.848  0.9790  1.4320  0.1751
   43CHL1    O3 3111   1.156   1.818   6.699  0.6455  0.8861 -0.2191
   43CHL1   H3' 3112   1.192   1.731   6.682 -0.0454  1.1673 -3.5089
   43CHL1    C4 3113   1.219   1.856   6.932  0.0113  0.6900  0.0864
   43CHL1   H4A 3114   1.316   1.805   6.914  0.0597  1.0095 -0.6056
   43CHL1   H4B 3115   1.235   1.965   6.913 -1.9278  0.6005 -2.2077
   43CHL1    C5 3116   1.170   1.842   7.071 -0.5377  0.2424  0.5049
   43CHL1    C6 3117   1.168   1.948   7.156  0.3890  0.8301  1.2023
   43CHL1    H6 3118   1.200   2.047   7.121 -0.5083  0.3040 -1.1977
   43CHL1    C7 3119   1.116   1.941   7.299  0.2578 -0.5137 -0.1244
   43CHL1   H7A 3120   1.188   1.997   7.362 -2.4289  2.5962  0.3676
   43CHL1   H7B 3121   1.012   1.979   7.307 -0.3778 -2.0782 -0.7390
   43CHL1    C8 3122   1.113   1.797   7.352  0.3662  0.6241 -0.3412
   43CHL1    H8 3123   1.216   1.758   7.368 -0.6510 -1.9959  0.2104
   43CHL1   C14 3124   1.021   1.780   7.480  0.0191 -0.0889  0.4886
   43CHL1   H14 3125   0.920   1.811   7.447  0.7870  0.4856 -1.3778
   43CHL1   C15 3126   1.045   1.887   7.589 -0.0825 -0.4187 -0.1078
   43CHL1  H15A 3127   1.155   1.871   7.598 -0.0666 -1.2992 -1.6135
   43CHL1  H15B 3128   1.011   1.992   7.574  1.3340  0.0311 -0.2388
   43CHL1   C16 3129   0.977   1.824   7.714  0.2615 -0.6728 -0.4948
   43CHL1  H16A 3130   1.063   1.815   7.784  1.3445 -2.3425 -1.9988
   43CHL1  H16B 3131   0.905   1.893   7.762  2.1025  2.2985 -1.8914
   43CHL1   C17 3132   0.936   1.677   7.682 -0.3923  0.2164 -0.0985
   43CHL1   H17 3133   0.833   1.676   7.639 -1.1282  0.8340  1.6176
   43CHL1   C13 3134   1.022   1.643   7.551  0.1146 -0.7617  0.6086
   43CHL1   C18 3135   1.162   1.590   7.594  1.0514 -0.1619 -0.3742
   43CHL1  H18A 3136   1.243   1.596   7.518  0.2486 -2.7335 -1.4479
   43CHL1  H18B 3137   1.202   1.644   7.683 -2.4128  1.3187  0.3471
   43CHL1  H18C 3138   1.148   1.482   7.614 -0.6785 -0.0635 -1.0094
   43CHL1   C12 3139   0.954   1.547   7.444  0.7924  0.4452  0.0897
   43CHL1  H12A 3140   0.942   1.444   7.484 -2.2028  1.1103  0.9816
   43CHL1  H12B 3141   0.854   1.590   7.424  0.0693 -0.9404  0.7012
   43CHL1   C11 3142   1.033   1.554   7.314 -0.3181  0.4393  0.3475
   43CHL1  H11A 3143   1.132   1.510   7.340 -0.0892 -0.0570 -1.3286
   43CHL1  H11B 3144   0.988   1.495   7.231 -1.4402  1.3207  0.3218
   43CHL1    C9 3145   1.049   1.699   7.257 -0.8585  0.4042  0.7743
   43CHL1    H9 3146   0.949   1.745   7.247  0.3486  3.3336  1.7808
   43CHL1   C10 3147   1.118   1.703   7.112 -0.4989 -0.3691  0.5612
   43CHL1   C19 3148   1.239   1.611   7.116 -0.1626  0.1095 -0.1046
   43CHL1  H19A 3149   1.315   1.647   7.189 -0.7458 -2.0531  1.5930
   43CHL1  H19B 3150   1.219   1.507   7.147  0.2597  1.1143  3.7873
   43CHL1  H19C 3151   1.281   1.608   7.013  1.2102 -0.0801  0.4457
   43CHL1    C1 3152   1.014   1.665   7.005 -0.3962 -0.6175 -0.2178
   43CHL1   H1A 3153   0.983   1.559   7.013  0.1736 -0.9385 -2.0060
   43CHL1   H1B 3154   0.922   1.725   7.022 -0.0062 -0.5088  1.6150
   43CHL1    C2 3155   1.067   1.669   6.857  0.1000 -0.8086 -0.2785
   43CHL1   H2A 3156   0.981   1.650   6.789 -0.7485  0.4914  0.4127
   43CHL1   H2B 3157   1.150   1.599   6.836 -1.0351 -1.3158 -3.3685
   43CHL1   C20 3158   0.940   1.584   7.806 -0.0607  0.1109  0.1623
   43CHL1   H20 3159   1.039   1.586   7.856 -1.4824  1.0718  3.0420
   43CHL1   C21 3160   0.911   1.438   7.776 -0.7086 -0.3361  0.1658
   43CHL1  H21A 3161   0.944   1.371   7.858  0.2906  1.0488  0.9073
   43CHL1  H21B 3162   0.950   1.410   7.676 -0.6527  2.3353 -0.5967
   43CHL1  H21C 3163   0.801   1.423   7.766 -0.7722 -0.1002  0.5261
   43CHL1   C22 3164   0.845   1.639   7.913  0.0181  0.0755  0.4038
   43CHL1  H22A 3165   0.885   1.737   7.946 -0.6386  0.4840  0.0071
   43CHL1  H22B 3166   0.746   1.657   7.865 -1.2666 -2.6743  1.8676
   43CHL1   C23 3167   0.835   1.567   8.042 -0.4518  0.5919 -0.2364
   43CHL1  H23A 3168   0.811   1.461   8.023 -2.0470  1.2410 -2.0274
   43CHL1  H23B 3169   0.935   1.574   8.090 -1.7442  1.1605  2.4789
   43CHL1   C24 3170   0.735   1.641   8.137 -0.3824  0.1872  0.1699
   43CHL1  H24A 3171   0.766   1.746   8.159  0.4505 -0.0247  0.0231
   43CHL1  H24B 3172   0.643   1.660   8.079 -1.4872  0.8933  2.1183
   43CHL1   C25 3173   0.708   1.567   8.275  0.0035  0.1622 -1.0938
   43CHL1   H25 3174   0.802   1.528   8.321 -0.8242  1.1177  1.5144
   43CHL1   C26 3175   0.647   1.662   8.383 -0.0520 -0.5664  0.0019
   43CHL1  H26A 3176   0.571   1.711   8.319 -0.9738 -2.2157 -0.2005
   43CHL1  H26B 3177   0.616   1.596   8.466  1.2058  1.0142  1.7708
   43CHL1  H26C 3178   0.726   1.734   8.414 -0.8157  0.1476  0.3079
   43CHL1   C27 3179   0.615   1.451   8.231  0.0271  0.6715  0.3084
   43CHL1  H27A 3180   0.578   1.389   8.315 -0.4147 -0.8722 -1.0079
   43CHL1  H27B 3181   0.527   1.502   8.187 -0.7764 -1.9589 -1.2560
   43CHL1  H27C 3182   0.667   1.390   8.154 -0.6105  0.0682  0.3518
   44CHL1    C3 3183   0.897   0.334   6.789 -0.3399  0.2735  0.3169
   44CHL1    H3 3184   0.836   0.425   6.807 -0.9042 -0.3498  1.5816
   44CHL1    O3 3185   0.913   0.304   6.650  0.2198  0.5095 -1.2204
   44CHL1   H3' 3186   0.976   0.232   6.638  0.2046  0.2016  0.3723
   44CHL1    C4 3187   1.037   0.346   6.850 -0.2319  0.0433 -0.2062
   44CHL1   H4A 3188   1.096   0.253   6.837 -1.1075 -0.3809 -1.2018
   44CHL1   H4B 3189   1.088   0.424   6.790 -0.2227 -0.5089 -0.9308
   44CHL1    C5 3190   1.040   0.385   6.999  0.4822 -0.0193  0.1928
   44CHL1    C6 3191   1.087   0.503   7.046 -0.3592  0.0551 -0.1098
   44CHL1    H6 3192   1.134   0.572   6.974  0.5512  0.3361  0.7469
   44CHL1    C7 3193   1.068   0.558   7.182  0.2473 -0.3521 -0.2407
   44CHL1   H7A 3194   1.155   0.613   7.226 -0.4482  0.4501  0.1365
   44CHL1   H7B 3195   0.983   0.628   7.171  1.6868  1.2329 -1.5892
   44CHL1    C8 3196   1.031   0.445   7.288  0.4465 -0.5721  0.2901
   44CHL1    H8 3197   1.127   0.395   7.311  0.9281  0.6377  0.8913
   44CHL1   C14 3198   0.967   0.507   7.412  0.4910  0.8781  0.8873
   44CHL1   H14 3199   0.875   0.556   7.375  1.0362  0.9531 -0.3864
   44CHL1   C15 3200   1.054   0.617   7.484  0.1264  0.6096  0.7854
   44CHL1  H15A 3201   1.159   0.581   7.479  0.8383  2.4690  1.8563
   44CHL1  H15B 3202   1.052   0.711   7.425  1.1927  1.3159  1.8717
   44CHL1   C16 3203   0.990   0.623   7.626 -0.1815 -0.7262  0.3896
   44CHL1  H16A 3204   1.066   0.633   7.707  2.1447  0.0088 -1.8173
   44CHL1  H16B 3205   0.923   0.711   7.636  1.4658  0.8456 -1.7303
   44CHL1   C17 3206   0.900   0.497   7.644 -0.1102  0.2078  0.6456
   44CHL1   H17 3207   0.792   0.518   7.627 -0.2816 -0.4933  0.8449
   44CHL1   C13 3208   0.938   0.407   7.518  0.2483 -1.3999 -0.6441
   44CHL1   C18 3209   1.061   0.325   7.549 -0.2165 -0.2836 -0.0062
   44CHL1  H18A 3210   1.036   0.263   7.637 -0.0301 -1.4581 -0.7703
   44CHL1  H18B 3211   1.078   0.249   7.469  1.0294 -0.6720  0.6038
   44CHL1  H18C 3212   1.146   0.386   7.587 -0.2110 -0.5953  0.4723
   44CHL1   C12 3213   0.822   0.317   7.465 -0.5071  1.0708  0.7083
   44CHL1  H12A 3214   0.795   0.244   7.544 -0.5547  0.4587  0.1290
   44CHL1  H12B 3215   0.734   0.381   7.442 -1.0918 -0.2317 -0.8004
   44CHL1   C11 3216   0.862   0.253   7.331  0.8391  0.3424 -0.1473
   44CHL1  H11A 3217   0.931   0.170   7.356  1.8670  0.8472 -1.2416
   44CHL1  H11B 3218   0.777   0.203   7.279  0.0537  1.2287  0.2680
   44CHL1    C9 3219   0.931   0.348   7.225 -0.3023  0.0681  0.3918
   44CHL1    H9 3220   0.848   0.418   7.202  0.4854  0.2603 -1.9214
   44CHL1   C10 3221   0.961   0.283   7.087 -0.5358 -0.6236  0.0676
   44CHL1   C19 3222   1.037   0.150   7.107 -0.0558 -0.1653 -0.0698
   44CHL1  H19A 3223   1.113   0.159   7.187 -2.6258  0.9070  2.3253
   44CHL1  H19B 3224   0.968   0.065   7.126  1.2982 -1.2367  0.1641
   44CHL1  H19C 3225   1.091   0.131   7.012 -0.5422  2.0566 -0.8178
   44CHL1    C1 3226   0.824   0.248   7.021 -1.4950 -0.4583  0.1037
   44CHL1   H1A 3227   0.789   0.155   7.070  0.0918 -1.0071  0.2193
   44CHL1   H1B 3228   0.748   0.325   7.045  0.1940  0.9976  0.9205
   44CHL1    C2 3229   0.828   0.222   6.865  0.0168 -0.1380 -0.5438
   44CHL1   H2A 3230   0.720   0.232   6.843 -0.1335 -0.6549 -0.0370
   44CHL1   H2B 3231   0.860   0.119   6.838  0.3632  0.3967 -2.2391
   44CHL1   C20 3232   0.914   0.435   7.791  0.1564 -0.8730 -0.5005
   44CHL1   H20 3233   1.017   0.395   7.801 -0.2357 -1.7396  0.1157
   44CHL1   C21 3234   0.816   0.319   7.808  0.2858 -0.4516 -0.2855
   44CHL1  H21A 3235   0.857   0.230   7.757  1.3107  0.3106 -0.8007
   44CHL1  H21B 3236   0.715   0.333   7.764 -0.8842 -0.9912  2.1305
   44CHL1  H21C 3237   0.796   0.295   7.915 -1.5613  1.4334 -0.1605
   44CHL1   C22 3238   0.879   0.543   7.906  0.0976 -0.1427  1.0446
   44CHL1  H22A 3239   0.930   0.642   7.904  0.3152 -0.2590  0.8746
   44CHL1  H22B 3240   0.769   0.557   7.895  0.0991 -1.3878 -0.7864
   44CHL1   C23 3241   0.893   0.489   8.048  0.9045  0.1570 -0.5523
   44CHL1  H23A 3242   0.800   0.431   8.066  0.1590  1.2787 -0.7776
   44CHL1  H23B 3243   0.978   0.418   8.037 -1.0142 -2.3428  0.1898
   44CHL1   C24 3244   0.924   0.577   8.162  0.2177  0.4534  0.2071
   44CHL1  H24A 3245   1.027   0.614   8.140  1.4376 -1.1344  3.0448
   44CHL1  H24B 3246   0.854   0.663   8.158  1.0191  1.0557 -1.4634
   44CHL1   C25 3247   0.930   0.503   8.295 -0.0690 -0.3470 -0.0058
   44CHL1   H25 3248   0.852   0.424   8.294  1.4868 -1.9075 -0.8494
   44CHL1   C26 3249   1.066   0.431   8.318 -0.0008  0.4390 -0.0374
   44CHL1  H26A 3250   1.058   0.384   8.418 -0.0189 -1.5413 -0.9444
   44CHL1  H26B 3251   1.069   0.355   8.238 -2.7215  1.9660 -1.6823
   44CHL1  H26C 3252   1.154   0.498   8.314 -1.2708  2.3207  2.1070
   44CHL1   C27 3253   0.899   0.595   8.421 -0.1690  0.7545  0.3819
   44CHL1  H27A 3254   0.881   0.533   8.512 -1.8531  1.7586  0.7465
   44CHL1  H27B 3255   0.980   0.669   8.437  0.8527 -0.1321 -0.6518
   44CHL1  H27C 3256   0.807   0.654   8.401  1.5451  3.0345 -0.9111
   45CHL1    C3 3257   2.349   5.625   6.641 -0.4239 -0.3332  0.0444
   45CHL1    H3 3258   2.439   5.686   6.619 -1.2259  1.0147  0.4422
   45CHL1    O3 3259   2.304   5.581   6.513 -0.8713 -0.4312  0.1206
   45CHL1   H3' 3260   2.211   5.603   6.510 -1.1076 -1.6152 -1.8585
   45CHL1    C4 3261   2.374   5.494   6.724 -0.1496 -0.5767 -0.6013
   45CHL1   H4A 3262   2.280   5.435   6.725  0.1720 -1.0805  1.0227
   45CHL1   H4B 3263   2.447   5.429   6.672  0.4286 -0.3086 -0.1272
   45CHL1    C5 3264   2.409   5.533   6.866  0.2015 -0.4478  0.0825
   45CHL1    C6 3265   2.525   5.490   6.924  0.1938 -0.5288  0.0270
   45CHL1    H6 3266   2.593   5.439   6.854 -0.6597  1.1605 -2.0635
   45CHL1    C7 3267   2.560   5.516   7.070 -1.1302  0.2579  0.0575
   45CHL1   H7A 3268   2.620   5.435   7.117  0.0881  1.4462  0.5743
   45CHL1   H7B 3269   2.618   5.611   7.081 -1.2362  0.2953  0.2955
   45CHL1    C8 3270   2.443   5.546   7.159 -0.9111 -0.5458  0.5602
   45CHL1    H8 3271   2.385   5.452   7.169 -0.2688 -0.9850  0.2026
   45CHL1   C14 3272   2.487   5.599   7.294 -0.3271 -0.1549  0.2508
   45CHL1   H14 3273   2.527   5.703   7.292  0.7780 -0.5915 -3.2666
   45CHL1   C15 3274   2.587   5.506   7.366 -0.7998 -0.2672 -0.3642
   45CHL1  H15A 3275   2.558   5.400   7.346  1.2301 -1.1571  1.1312
   45CHL1  H15B 3276   2.695   5.515   7.343 -0.1014 -1.7304  2.1197
   45CHL1   C16 3277   2.566   5.534   7.514 -0.8332 -0.0913 -0.0654
   45CHL1  H16A 3278   2.539   5.441   7.568 -2.4206 -0.4225 -1.3872
   45CHL1  H16B 3279   2.657   5.574   7.563 -1.9400  4.7520 -1.6868
   45CHL1   C17 3280   2.444   5.637   7.522  0.3375  0.0195  0.3648
   45CHL1   H17 3281   2.490   5.738   7.519 -0.5379  0.4434  0.8788
   45CHL1   C13 3282   2.368   5.618   7.390  0.4830 -0.2389  0.3549
   45CHL1   C18 3283   2.285   5.484   7.403 -0.2433 -0.0985  0.2021
   45CHL1  H18A 3284   2.198   5.505   7.468  0.5210  0.1075  1.1638
   45CHL1  H18B 3285   2.255   5.442   7.304 -0.3552 -0.1219  0.2459
   45CHL1  H18C 3286   2.340   5.399   7.449  0.0197 -0.6281 -1.0471
   45CHL1   C12 3287   2.284   5.736   7.338 -0.2253  0.5325 -0.2942
   45CHL1  H12A 3288   2.189   5.768   7.387 -0.9964  0.2434 -1.6004
   45CHL1  H12B 3289   2.356   5.819   7.353  0.0370 -0.1120  2.2526
   45CHL1   C11 3290   2.257   5.724   7.185  0.5144 -0.1344 -0.4729
   45CHL1  H11A 3291   2.168   5.658   7.181  0.3524  0.2029 -3.8303
   45CHL1  H11B 3292   2.231   5.825   7.145 -0.1742 -0.3199 -0.4930
   45CHL1    C9 3293   2.357   5.652   7.090 -0.9560  0.4891 -1.0251
   45CHL1    H9 3294   2.421   5.740   7.067  0.5445 -0.3644 -0.2316
   45CHL1   C10 3295   2.303   5.614   6.945 -0.4838  0.4200 -0.2648
   45CHL1   C19 3296   2.169   5.557   6.952  0.3730 -0.2985 -0.0239
   45CHL1  H19A 3297   2.144   5.490   6.867 -1.8189  0.9714 -0.4060
   45CHL1  H19B 3298   2.160   5.491   7.041 -0.9237 -0.7364 -0.4690
   45CHL1  H19C 3299   2.091   5.636   6.959  0.7433  0.2388 -1.7786
   45CHL1    C1 3300   2.286   5.743   6.856  0.6151 -0.0745  0.1609
   45CHL1   H1A 3301   2.206   5.803   6.904 -1.1841 -2.3022  0.0532
   45CHL1   H1B 3302   2.378   5.805   6.861  0.0227  0.7606  0.9570
   45CHL1    C2 3303   2.249   5.720   6.709  0.2845 -0.3893 -0.2368
   45CHL1   H2A 3304   2.238   5.822   6.666  0.8573  0.5333  1.7190
   45CHL1   H2B 3305   2.147   5.676   6.711  0.4078 -0.8149 -2.2505
   45CHL1   C20 3306   2.366   5.638   7.660 -0.1857  0.0752  0.1537
   45CHL1   H20 3307   2.328   5.536   7.685  2.8136 -1.0563  0.3794
   45CHL1   C21 3308   2.256   5.742   7.659 -0.1900 -0.4046 -0.2845
   45CHL1  H21A 3309   2.199   5.747   7.754  0.9280 -1.9201  0.4877
   45CHL1  H21B 3310   2.172   5.721   7.589 -1.5257 -0.4135  1.2935
   45CHL1  H21C 3311   2.292   5.846   7.644  2.2715 -1.0604  0.7621
   45CHL1   C22 3312   2.450   5.661   7.784 -0.5322  0.2810  0.7656
   45CHL1  H22A 3313   2.550   5.617   7.766 -0.0329  2.0574 -0.9527
   45CHL1  H22B 3314   2.489   5.764   7.801 -0.1762 -0.1536  2.7651
   45CHL1   C23 3315   2.388   5.604   7.917  0.4638 -0.0236 -0.0340
   45CHL1  H23A 3316   2.288   5.650   7.932  0.8318  0.1465  2.0903
   45CHL1  H23B 3317   2.386   5.495   7.895 -1.1301 -0.0147 -0.0434
   45CHL1   C24 3318   2.493   5.633   8.024 -0.7182  0.5502 -0.4333
   45CHL1  H24A 3319   2.587   5.593   7.981 -0.7841  0.2712 -0.3185
   45CHL1  H24B 3320   2.520   5.740   8.041  1.6354 -0.2515  1.1998
   45CHL1   C25 3321   2.465   5.546   8.145  0.8823 -0.0775 -0.0748
   45CHL1   H25 3322   2.453   5.443   8.104 -0.2191  0.0013  0.0578
   45CHL1   C26 3323   2.584   5.543   8.241 -0.0968 -0.4269  0.6224
   45CHL1  H26A 3324   2.589   5.649   8.273  2.4526  0.5382 -2.6262
   45CHL1  H26B 3325   2.565   5.481   8.331  1.4918 -0.1519  1.1713
   45CHL1  H26C 3326   2.680   5.515   8.192  0.9913  2.0134  1.2559
   45CHL1   C27 3327   2.348   5.597   8.223 -0.5093  0.6010 -0.3888
   45CHL1  H27A 3328   2.384   5.692   8.267 -1.3388  1.0807 -0.7417
   45CHL1  H27B 3329   2.251   5.609   8.170 -0.9556  0.2414  0.3462
   45CHL1  H27C 3330   2.331   5.525   8.306 -2.8642  0.7070 -0.7528
   46CHL1    C3 3331   2.039   6.734   7.051  0.0742 -0.3629 -0.5319
   46CHL1    H3 3332   2.142   6.713   7.086 -0.0160 -0.1315 -0.1341
   46CHL1    O3 3333   2.048   6.754   6.910  0.0716 -0.0769  0.1614
   46CHL1   H3' 3334   2.069   6.668   6.874 -2.3780 -0.2354 -1.0102
   46CHL1    C4 3335   1.952   6.610   7.090  0.3941 -0.1912 -0.0526
   46CHL1   H4A 3336   1.852   6.609   7.042  0.0106 -0.2671  0.7295
   46CHL1   H4B 3337   2.010   6.528   7.043  1.1503  1.3178 -1.7938
   46CHL1    C5 3338   1.947   6.591   7.242  0.0815  0.3414  0.2684
   46CHL1    C6 3339   1.987   6.467   7.293  0.4873 -0.1492  0.9486
   46CHL1    H6 3340   2.016   6.380   7.232 -0.8462 -0.1560  0.2917
   46CHL1    C7 3341   1.992   6.451   7.444  0.4480  0.8276  0.1659
   46CHL1   H7A 3342   1.976   6.345   7.475 -1.1551  0.0709 -2.9969
   46CHL1   H7B 3343   2.097   6.479   7.466  1.0592 -0.3065 -1.2233
   46CHL1    C8 3344   1.899   6.554   7.520 -0.2734  0.2083  0.4651
   46CHL1    H8 3345   1.795   6.521   7.499 -0.2905 -0.2950  1.3023
   46CHL1   C14 3346   1.925   6.539   7.672 -0.1178 -0.0550  1.1812
   46CHL1   H14 3347   2.030   6.570   7.694 -1.2409  2.8012  2.8399
   46CHL1   C15 3348   1.918   6.396   7.740  0.3678  0.3744  0.5754
   46CHL1  H15A 3349   1.825   6.345   7.710  0.6945  1.5775 -2.7052
   46CHL1  H15B 3350   2.006   6.334   7.712 -0.2313  0.2400 -1.0250
   46CHL1   C16 3351   1.922   6.429   7.891 -0.1884 -0.1174  1.2597
   46CHL1  H16A 3352   1.849   6.367   7.948 -1.2046  0.2755  0.3835
   46CHL1  H16B 3353   2.021   6.404   7.935  0.0190  1.7969  1.9171
   46CHL1   C17 3354   1.898   6.582   7.909 -0.5070  0.0180  0.5059
   46CHL1   H17 3355   2.004   6.614   7.911 -0.3265 -0.5429 -0.1076
   46CHL1   C13 3356   1.842   6.628   7.770 -0.5472 -0.7069  0.2289
   46CHL1   C18 3357   1.693   6.584   7.761  0.2060 -0.1307  0.0326
   46CHL1  H18A 3358   1.640   6.632   7.846  0.6283 -0.7708  0.6657
   46CHL1  H18B 3359   1.655   6.617   7.662  0.5728 -3.1540 -1.1665
   46CHL1  H18C 3360   1.673   6.475   7.759  1.1322 -0.2927 -1.0035
   46CHL1   C12 3361   1.862   6.771   7.722  0.4201 -0.5181  0.5444
   46CHL1  H12A 3362   1.803   6.848   7.776  1.4341  0.5356  0.1649
   46CHL1  H12B 3363   1.968   6.798   7.739  0.6440 -0.9751 -0.1070
   46CHL1   C11 3364   1.846   6.799   7.572 -0.4582  0.0175  0.6150
   46CHL1  H11A 3365   1.740   6.777   7.547 -0.1490 -0.9752  0.1492
   46CHL1  H11B 3366   1.876   6.902   7.543 -0.2925  0.3371  1.8842
   46CHL1    C9 3367   1.923   6.697   7.476 -0.1238  0.7002 -0.2268
   46CHL1    H9 3368   2.031   6.722   7.483  0.4076 -1.7415  1.0323
   46CHL1   C10 3369   1.895   6.711   7.325 -0.1443  0.0961 -0.2352
   46CHL1   C19 3370   1.746   6.734   7.288 -0.2083 -0.3725 -0.2171
   46CHL1  H19A 3371   1.723   6.838   7.320 -0.6681 -0.6017  0.1992
   46CHL1  H19B 3372   1.730   6.736   7.178 -2.6282  1.2905  0.1135
   46CHL1  H19C 3373   1.679   6.663   7.342  0.2939 -1.0839 -0.5206
   46CHL1    C1 3374   1.979   6.840   7.280  0.1760 -0.1631 -0.2938
   46CHL1   H1A 3375   1.929   6.929   7.325  0.9359  0.2230 -0.2158
   46CHL1   H1B 3376   2.079   6.846   7.327 -1.0580 -0.2617  2.4648
   46CHL1    C2 3377   1.984   6.862   7.125 -0.8809  0.6955  0.1601
   46CHL1   H2A 3378   2.044   6.952   7.100  0.7721 -0.1788  0.9162
   46CHL1   H2B 3379   1.879   6.870   7.090 -0.7516 -1.6232 -0.8336
   46CHL1   C20 3380   1.833   6.612   8.040 -0.8538  0.6230 -0.2631
   46CHL1   H20 3381   1.728   6.578   8.051 -0.6739 -0.0964 -0.7714
   46CHL1   C21 3382   1.801   6.763   8.049 -0.8559 -0.1336  1.0970
   46CHL1  H21A 3383   1.720   6.785   7.977 -0.9557 -0.2552  1.1730
   46CHL1  H21B 3384   1.884   6.830   8.017 -1.6378 -0.3251 -1.4681
   46CHL1  H21C 3385   1.764   6.789   8.151 -1.2602  2.2203  0.3820
   46CHL1   C22 3386   1.924   6.562   8.161  0.3381 -0.4808 -0.1960
   46CHL1  H22A 3387   2.003   6.493   8.122  2.4217  0.8395  1.5493
   46CHL1  H22B 3388   1.978   6.645   8.211 -0.4373 -0.8229  1.2261
   46CHL1   C23 3389   1.831   6.508   8.275  0.4140  0.2434 -0.1471
   46CHL1  H23A 3390   1.762   6.587   8.310 -0.9068 -0.4204 -1.1957
   46CHL1  H23B 3391   1.779   6.423   8.224  2.2078 -1.8690  1.4395
   46CHL1   C24 3392   1.907   6.452   8.395  0.3058  0.3558  0.1240
   46CHL1  H24A 3393   1.977   6.380   8.348  1.4196  0.6250  1.3385
   46CHL1  H24B 3394   1.971   6.531   8.440  0.8890  0.3734 -0.7343
   46CHL1   C25 3395   1.808   6.394   8.494  0.1115 -0.4828 -0.3358
   46CHL1   H25 3396   1.722   6.463   8.502 -0.0430 -0.7365  0.2280
   46CHL1   C26 3397   1.747   6.255   8.455 -0.6494 -0.6285  0.2473
   46CHL1  H26A 3398   1.670   6.225   8.530 -2.3975  0.9236 -0.8901
   46CHL1  H26B 3399   1.696   6.261   8.357 -2.0528 -3.9055  0.6797
   46CHL1  H26C 3400   1.826   6.178   8.444 -0.3475 -0.3318  0.3337
   46CHL1   C27 3401   1.882   6.390   8.628  0.0260 -0.4749  0.2682
   46CHL1  H27A 3402   1.902   6.496   8.653 -0.4788 -0.5740  1.1430
   46CHL1  H27B 3403   1.812   6.359   8.708  0.7964 -1.1891  0.6751
   46CHL1  H27C 3404   1.980   6.338   8.625 -0.1222 -0.6580 -1.8974
   47CHL1    C3 3405   1.343   6.618   6.670 -0.2084  0.0922 -0.5397
   47CHL1    H3 3406   1.324   6.723   6.703 -0.4057 -0.1406  0.1107
   47CHL1    O3 3407   1.380   6.617   6.533 -0.0403 -0.2642 -0.0846
   47CHL1   H3' 3408   1.432   6.537   6.523 -0.9340 -0.8108 -0.4793
   47CHL1    C4 3409   1.441   6.540   6.765  0.1665  0.7482 -0.0578
   47CHL1   H4A 3410   1.428   6.438   6.724 -0.2547  1.1392 -0.9090
   47CHL1   H4B 3411   1.540   6.576   6.729 -0.6846  2.4368 -0.7652
   47CHL1    C5 3412   1.396   6.542   6.909  0.4337 -0.1844  0.6294
   47CHL1    C6 3413   1.478   6.594   7.001  0.0508 -0.2827  0.3024
   47CHL1    H6 3414   1.581   6.622   6.971 -0.4443 -0.1072 -1.3098
   47CHL1    C7 3415   1.446   6.603   7.151  0.5557  0.2255 -0.0781
   47CHL1   H7A 3416   1.529   6.572   7.217  0.6171  0.1145 -0.2060
   47CHL1   H7B 3417   1.418   6.707   7.174  0.2781 -0.5805  3.4431
   47CHL1    C8 3418   1.307   6.531   7.192 -0.2745 -0.6118  0.2289
   47CHL1    H8 3419   1.327   6.423   7.208 -2.9496 -1.3598 -1.1049
   47CHL1   C14 3420   1.246   6.599   7.310 -0.0134 -0.4604 -0.3023
   47CHL1   H14 3421   1.219   6.701   7.274 -1.6664 -0.3776  1.1282
   47CHL1   C15 3422   1.330   6.637   7.432 -0.1048 -0.1834 -0.0844
   47CHL1  H15A 3423   1.380   6.544   7.466  3.0843  0.8321 -1.8375
   47CHL1  H15B 3424   1.408   6.713   7.411 -2.2088  1.9073 -0.4652
   47CHL1   C16 3425   1.221   6.683   7.532  0.2705 -0.0548  0.2014
   47CHL1  H16A 3426   1.239   6.632   7.629 -0.9113 -0.4002  0.2466
   47CHL1  H16B 3427   1.215   6.789   7.563 -2.3712  0.4692 -1.9486
   47CHL1   C17 3428   1.087   6.646   7.478  0.1663 -0.2910 -0.3025
   47CHL1   H17 3429   1.039   6.736   7.434  0.5819  1.4562  2.6576
   47CHL1   C13 3430   1.114   6.549   7.366 -0.0436 -0.7596  0.1409
   47CHL1   C18 3431   1.130   6.402   7.423  0.1000 -0.1456 -0.0646
   47CHL1  H18A 3432   1.039   6.363   7.474  0.6885 -1.0405  0.3141
   47CHL1  H18B 3433   1.160   6.337   7.339  0.9465  1.5852 -1.1261
   47CHL1  H18C 3434   1.220   6.415   7.487 -0.1614  1.4743  0.0145
   47CHL1   C12 3435   1.009   6.552   7.252 -0.3431 -0.3475 -0.2173
   47CHL1  H12A 3436   0.908   6.513   7.277 -0.0534 -0.7502  0.3212
   47CHL1  H12B 3437   0.997   6.660   7.230  1.8767 -0.0905 -0.3191
   47CHL1   C11 3438   1.063   6.472   7.126  0.0251  0.0976  0.2893
   47CHL1  H11A 3439   1.083   6.368   7.157 -1.0398 -0.5505 -1.0902
   47CHL1  H11B 3440   0.985   6.489   7.048 -1.1612 -1.3349  1.1352
   47CHL1    C9 3441   1.198   6.539   7.079 -0.3172 -0.3833  0.3345
   47CHL1    H9 3442   1.172   6.647   7.074  0.6019 -0.1186  1.1136
   47CHL1   C10 3443   1.250   6.498   6.940  0.3223  0.2069 -0.5673
   47CHL1   C19 3444   1.243   6.342   6.921  0.5485 -0.8518  0.1904
   47CHL1  H19A 3445   1.141   6.300   6.905 -0.6408  0.9182  2.7485
   47CHL1  H19B 3446   1.299   6.301   6.835  0.2862 -0.7702 -0.0197
   47CHL1  H19C 3447   1.270   6.288   7.015 -0.2959 -0.1286  0.8523
   47CHL1    C1 3448   1.147   6.567   6.837 -0.2510 -0.3963 -0.3513
   47CHL1   H1A 3449   1.053   6.507   6.843 -1.3190  1.3171  0.3179
   47CHL1   H1B 3450   1.127   6.674   6.859  0.9981  0.0820 -1.4572
   47CHL1    C2 3451   1.201   6.562   6.691 -0.8766  0.6314  0.1516
   47CHL1   H2A 3452   1.136   6.621   6.622  0.8290  1.0338 -1.1347
   47CHL1   H2B 3453   1.199   6.455   6.659  0.0964  0.6894 -0.1267
   47CHL1   C20 3454   0.987   6.597   7.588  0.1210  0.0378 -0.3190
   47CHL1   H20 3455   1.017   6.498   7.630  1.1811  0.1423 -0.8266
   47CHL1   C21 3456   0.848   6.593   7.535  0.1974  0.1040  0.3176
   47CHL1  H21A 3457   0.792   6.599   7.631  1.9038  1.4474  1.2705
   47CHL1  H21B 3458   0.826   6.499   7.479  2.5567  0.0023 -0.4824
   47CHL1  H21C 3459   0.829   6.679   7.468  0.1849  0.8447  1.2540
   47CHL1   C22 3460   0.988   6.687   7.716  0.5722  1.1801  1.0496
   47CHL1  H22A 3461   1.084   6.738   7.739  0.8477  2.7019 -3.0537
   47CHL1  H22B 3462   0.908   6.762   7.699  0.4978  1.1202  1.1394
   47CHL1   C23 3463   0.954   6.604   7.848 -0.1751  0.1341 -0.4117
   47CHL1  H23A 3464   0.857   6.553   7.829 -0.3533 -0.3225  1.5652
   47CHL1  H23B 3465   1.038   6.534   7.868  0.3174  0.5062 -1.1283
   47CHL1   C24 3466   0.954   6.705   7.968  0.6777  0.7322 -0.3163
   47CHL1  H24A 3467   1.032   6.785   7.963  1.5668  0.0230  1.7869
   47CHL1  H24B 3468   0.856   6.757   7.962  0.9513  1.0399 -2.7610
   47CHL1   C25 3469   0.969   6.636   8.106 -0.1051  0.5327 -0.2033
   47CHL1   H25 3470   1.070   6.593   8.089  0.3745  2.4609 -2.3794
   47CHL1   C26 3471   0.980   6.734   8.230  0.5912  0.4077  0.1068
   47CHL1  H26A 3472   1.039   6.819   8.190 -0.4405  1.4810  0.8346
   47CHL1  H26B 3473   0.877   6.772   8.247 -0.7198 -2.2946 -1.4366
   47CHL1  H26C 3474   1.028   6.679   8.314  0.3076  0.6438  0.4307
   47CHL1   C27 3475   0.877   6.521   8.126 -0.4030  0.9595  0.6829
   47CHL1  H27A 3476   0.781   6.567   8.158 -1.1981  0.3101 -0.7108
   47CHL1  H27B 3477   0.882   6.446   8.044 -1.0027 -1.0904  2.4591
   47CHL1  H27C 3478   0.914   6.460   8.211 -2.0097 -0.4575  0.4018
   48CHL1    C3 3479   4.924   1.700   6.410 -0.0478  0.5850 -0.6449
   48CHL1    H3 3480   4.973   1.613   6.457 -1.8629  0.9303  1.9746
   48CHL1    O3 3481   4.933   1.692   6.266  0.1876 -0.0868  0.3140
   48CHL1   H3' 3482   4.901   1.777   6.234  0.5412 -1.0811 -2.8619
   48CHL1    C4 3483   4.776   1.705   6.465 -0.1656 -0.4212  0.4756
   48CHL1   H4A 3484   4.729   1.792   6.414 -1.0262 -1.0833  0.1264
   48CHL1   H4B 3485   4.726   1.611   6.431  0.3152  0.6170 -3.3346
   48CHL1    C5 3486   4.779   1.736   6.609  0.9763 -0.7440  0.1254
   48CHL1    C6 3487   4.715   1.649   6.693  0.2112  0.2636  0.0643
   48CHL1    H6 3488   4.650   1.569   6.655 -1.4741  2.0173 -0.8308
   48CHL1    C7 3489   4.719   1.671   6.847 -0.5103 -0.3259  0.1058
   48CHL1   H7A 3490   4.622   1.644   6.895 -1.0588  1.2062 -0.1299
   48CHL1   H7B 3491   4.783   1.586   6.881 -0.4847 -1.0776 -1.7785
   48CHL1    C8 3492   4.764   1.815   6.893  0.1639  0.2716  0.2171
   48CHL1    H8 3493   4.676   1.877   6.867 -0.3464 -0.3161  0.5285
   48CHL1   C14 3494   4.793   1.813   7.047 -0.2009  0.2194 -0.3133
   48CHL1   H14 3495   4.879   1.744   7.058 -0.7300 -0.0037  3.0538
   48CHL1   C15 3496   4.687   1.765   7.141 -0.6007 -0.1006 -0.0312
   48CHL1  H15A 3497   4.590   1.812   7.112 -0.0015  0.9916 -0.2638
   48CHL1  H15B 3498   4.693   1.654   7.131 -1.3226 -0.1756  0.2798
   48CHL1   C16 3499   4.737   1.812   7.283  0.2063  0.6374 -0.1053
   48CHL1  H16A 3500   4.663   1.881   7.328 -1.9996 -0.3815 -2.0582
   48CHL1  H16B 3501   4.755   1.738   7.364  1.1392  0.6658 -0.2863
   48CHL1   C17 3502   4.870   1.894   7.255  0.3823 -0.4779 -0.1927
   48CHL1   H17 3503   4.953   1.820   7.253  1.1739  0.4090 -0.4271
   48CHL1   C13 3504   4.849   1.946   7.106 -0.2801  0.0531 -0.0307
   48CHL1   C18 3505   4.753   2.068   7.102 -0.8004  0.3494  0.2787
   48CHL1  H18A 3506   4.726   2.094   6.997  1.2417 -2.0067 -0.8824
   48CHL1  H18B 3507   4.658   2.034   7.149 -0.4766 -1.0047 -0.0208
   48CHL1  H18C 3508   4.792   2.160   7.150  1.5818  0.6707 -2.1160
   48CHL1   C12 3509   4.980   1.979   7.032 -0.2096  0.2372  0.6078
   48CHL1  H12A 3510   5.017   2.082   7.051 -0.9168  0.4637  0.7623
   48CHL1  H12B 3511   5.059   1.902   7.042 -1.4263 -1.1347 -0.2565
   48CHL1   C11 3512   4.957   1.986   6.875 -0.2272 -0.2141  0.1236
   48CHL1  H11A 3513   4.893   2.071   6.845 -0.2944 -0.4419 -0.3833
   48CHL1  H11B 3514   5.058   1.995   6.831  0.3934  2.0283  1.9295
   48CHL1    C9 3515   4.887   1.851   6.818  0.2858 -0.3165 -0.0042
   48CHL1    H9 3516   4.966   1.776   6.837  1.4134  0.7426 -0.4794
   48CHL1   C10 3517   4.868   1.853   6.662 -0.3841 -0.1871 -0.5334
   48CHL1   C19 3518   4.794   1.981   6.628 -0.2728 -0.4482  0.1636
   48CHL1  H19A 3519   4.761   1.971   6.522  4.3754 -1.2331 -1.3492
   48CHL1  H19B 3520   4.700   1.994   6.686 -1.1762 -2.0582 -0.9003
   48CHL1  H19C 3521   4.860   2.069   6.642 -1.8072  0.5736  1.0197
   48CHL1    C1 3522   5.012   1.847   6.601 -0.6442  0.7034 -0.9032
   48CHL1   H1A 3523   5.071   1.940   6.613 -0.5335  0.9774 -3.2085
   48CHL1   H1B 3524   5.065   1.763   6.651 -2.4340  0.6543  0.9553
   48CHL1    C2 3525   5.001   1.825   6.447  0.8900  0.4389  0.1430
   48CHL1   H2A 3526   5.099   1.801   6.402  0.3238 -0.3257 -0.7039
   48CHL1   H2B 3527   4.953   1.915   6.403  2.5109  0.3833 -1.7973
   48CHL1   C20 3528   4.912   1.988   7.379 -0.1934 -0.6133  0.2629
   48CHL1   H20 3529   4.882   2.091   7.349  0.1071 -0.7145 -0.4047
   48CHL1   C21 3530   5.068   1.980   7.368 -0.4616 -0.1447  1.0918
   48CHL1  H21A 3531   5.096   1.883   7.416  0.8930  0.1300  0.8644
   48CHL1  H21B 3532   5.119   2.053   7.433  0.9567  0.0163 -0.1833
   48CHL1  H21C 3533   5.108   1.996   7.266  0.5122  1.4805  1.7075
   48CHL1   C22 3534   4.855   1.944   7.521  0.3293 -0.0283 -0.3316
   48CHL1  H22A 3535   4.744   1.949   7.528  0.2600 -0.8731 -0.7084
   48CHL1  H22B 3536   4.883   1.837   7.534 -1.9003 -0.3103  2.6309
   48CHL1   C23 3537   4.919   2.013   7.645 -0.1750 -0.6395  0.1407
   48CHL1  H23A 3538   4.892   1.957   7.737  1.0129 -2.4692 -0.6101
   48CHL1  H23B 3539   5.030   2.012   7.637  0.0330  0.7915  2.5447
   48CHL1   C24 3540   4.857   2.156   7.658  1.1786 -0.1317  0.4764
   48CHL1  H24A 3541   4.882   2.209   7.564  0.1922  2.5171  1.6619
   48CHL1  H24B 3542   4.748   2.167   7.677  1.3496 -0.3377  1.6265
   48CHL1   C25 3543   4.912   2.252   7.776 -0.0377 -0.1549 -0.3170
   48CHL1   H25 3544   4.907   2.199   7.874  1.5916  3.0343  1.6049
   48CHL1   C26 3545   5.061   2.287   7.756  0.0668  0.2773  0.4441
   48CHL1  H26A 3546   5.116   2.195   7.728 -1.6076 -0.8348  0.7984
   48CHL1  H26B 3547   5.072   2.367   7.679  1.0475  2.1468  2.4377
   48CHL1  H26C 3548   5.108   2.337   7.844  0.4298  0.9198 -0.1035
   48CHL1   C27 3549   4.827   2.372   7.792 -0.3175 -0.1428  0.3947
   48CHL1  H27A 3550   4.719   2.347   7.802 -1.1187  1.8939 -2.5393
   48CHL1  H27B 3551   4.852   2.428   7.885 -1.1623 -2.7198  2.2006
   48CHL1  H27C 3552   4.836   2.438   7.703  0.9109  0.5595  1.0239
   49CHL1    C3 3553   3.816   3.312   6.635  0.4680 -0.0299 -0.3960
   49CHL1    H3 3554   3.781   3.417   6.624  0.3841  0.0484  0.5907
   49CHL1    O3 3555   3.850   3.261   6.508 -0.3691 -0.1046 -0.5283
   49CHL1   H3' 3556   3.917   3.320   6.473  2.9116 -0.9132  3.9520
   49CHL1    C4 3557   3.938   3.308   6.725 -0.0371  0.8076 -0.1875
   49CHL1   H4A 3558   3.982   3.206   6.721  1.5546  1.4768  0.2313
   49CHL1   H4B 3559   4.014   3.373   6.677  0.0745  0.7629 -0.0710
   49CHL1    C5 3560   3.902   3.343   6.869 -0.0571  0.7157  0.6088
   49CHL1    C6 3561   3.977   3.433   6.929  0.0249 -0.4142 -0.0804
   49CHL1    H6 3562   4.057   3.488   6.877  0.9555 -1.0945  0.6120
   49CHL1    C7 3563   3.964   3.479   7.068  0.4186  0.5151 -0.4502
   49CHL1   H7A 3564   4.059   3.476   7.125  0.8660 -1.7360 -1.2559
   49CHL1   H7B 3565   3.903   3.571   7.072 -1.6556 -0.8934  2.9635
   49CHL1    C8 3566   3.870   3.380   7.155 -0.0211 -0.8961  0.2274
   49CHL1    H8 3567   3.921   3.284   7.178 -0.7529 -0.6050  3.2952
   49CHL1   C14 3568   3.823   3.448   7.285 -0.6195 -0.5189 -0.2475
   49CHL1   H14 3569   3.763   3.534   7.247 -0.2373  0.1195  0.5891
   49CHL1   C15 3570   3.926   3.509   7.384  0.0540 -0.3583  0.2647
   49CHL1  H15A 3571   4.008   3.434   7.375 -0.9501 -0.9915 -4.8486
   49CHL1  H15B 3572   3.964   3.610   7.360  1.6476 -0.8825  0.4847
   49CHL1   C16 3573   3.858   3.511   7.522 -0.0771  0.1420 -0.8703
   49CHL1  H16A 3574   3.915   3.435   7.579  1.6127  0.8645 -1.5677
   49CHL1  H16B 3575   3.868   3.610   7.572 -0.1106 -0.6444  0.6949
   49CHL1   C17 3576   3.714   3.461   7.496  0.1630  0.5394  0.3324
   49CHL1   H17 3577   3.660   3.553   7.465 -0.5780  0.4063  1.1860
   49CHL1   C13 3578   3.726   3.368   7.372  0.5208  0.6598  0.0850
   49CHL1   C18 3579   3.782   3.234   7.411  0.1605 -0.1231 -0.3669
   49CHL1  H18A 3580   3.803   3.163   7.328  1.4363  1.5027 -1.4545
   49CHL1  H18B 3581   3.880   3.243   7.463  0.9400  0.3484 -1.9009
   49CHL1  H18C 3582   3.725   3.170   7.482  3.1650  0.5808  2.7963
   49CHL1   C12 3583   3.604   3.350   7.287 -0.0960 -0.6386 -0.5945
   49CHL1  H12A 3584   3.543   3.267   7.329 -3.0927  1.5595 -0.4314
   49CHL1  H12B 3585   3.552   3.449   7.288 -0.1377 -0.6629  0.0116
   49CHL1   C11 3586   3.630   3.285   7.145 -0.6958 -0.0050  0.1527
   49CHL1  H11A 3587   3.659   3.180   7.165  0.5205 -0.0413 -1.7270
   49CHL1  H11B 3588   3.541   3.291   7.079  1.0899  0.7131 -2.2310
   49CHL1    C9 3589   3.741   3.348   7.067  0.1733 -0.6000  0.4398
   49CHL1    H9 3590   3.711   3.452   7.041  1.9162 -0.2752 -0.3650
   49CHL1   C10 3591   3.783   3.278   6.936  0.5810 -0.0683  0.1335
   49CHL1   C19 3592   3.825   3.128   6.967  0.0801 -0.3857  1.1043
   49CHL1  H19A 3593   3.857   3.078   6.873 -2.0695 -0.0235  0.1663
   49CHL1  H19B 3594   3.902   3.119   7.047  0.8339  0.8272  0.5349
   49CHL1  H19C 3595   3.747   3.054   6.993 -0.1833  0.0189  1.4631
   49CHL1    C1 3596   3.663   3.278   6.828 -0.0945 -0.6311 -0.2902
   49CHL1   H1A 3597   3.576   3.221   6.867  0.2291 -1.2326 -0.4434
   49CHL1   H1B 3598   3.636   3.385   6.813  0.5287 -0.4837 -0.3811
   49CHL1    C2 3599   3.699   3.223   6.688 -0.0101  0.2286  0.2679
   49CHL1   H2A 3600   3.619   3.218   6.611  1.0613 -1.9740 -0.7389
   49CHL1   H2B 3601   3.742   3.121   6.701  2.5669  1.2250 -0.0293
   49CHL1   C20 3602   3.649   3.414   7.627  0.5877  0.1187  0.6767
   49CHL1   H20 3603   3.682   3.309   7.642 -1.6155 -0.6218  0.5166
   49CHL1   C21 3604   3.491   3.408   7.596  0.2041 -0.0388 -0.6621
   49CHL1  H21A 3605   3.432   3.374   7.684 -0.2108 -0.1274 -0.9700
   49CHL1  H21B 3606   3.474   3.332   7.516  0.6913 -0.0922 -0.7194
   49CHL1  H21C 3607   3.447   3.505   7.567  0.1831  0.2972  0.4750
   49CHL1   C22 3608   3.676   3.502   7.756 -0.1366  0.3617 -0.4089
   49CHL1  H22A 3609   3.786   3.503   7.769 -0.0884  0.9636 -0.8585
   49CHL1  H22B 3610   3.642   3.605   7.733 -1.9879 -0.9015 -3.6023
   49CHL1   C23 3611   3.602   3.462   7.890 -0.0423  0.1565  0.0762
   49CHL1  H23A 3612   3.495   3.437   7.878 -0.1031  0.4481  0.0039
   49CHL1  H23B 3613   3.641   3.362   7.922 -1.4613 -0.5066 -0.2514
   49CHL1   C24 3614   3.625   3.563   7.997 -0.3372 -0.0047  0.5968
   49CHL1  H24A 3615   3.733   3.588   7.997 -0.4151  0.3445 -0.1859
   49CHL1  H24B 3616   3.575   3.659   7.975 -0.0374  0.0709  0.2521
   49CHL1   C25 3617   3.590   3.514   8.150 -0.3975 -0.2587 -0.0388
   49CHL1   H25 3618   3.624   3.409   8.148  2.3865  0.6129 -1.1540
   49CHL1   C26 3619   3.671   3.601   8.252  0.2087 -0.3983 -0.1611
   49CHL1  H26A 3620   3.659   3.556   8.353  0.6024  1.4555  0.7384
   49CHL1  H26B 3621   3.777   3.623   8.228  0.7100  0.7734  2.8866
   49CHL1  H26C 3622   3.631   3.705   8.258  2.0785  0.2392  2.1029
   49CHL1   C27 3623   3.448   3.516   8.182 -0.2441 -0.0719  0.4942
   49CHL1  H27A 3624   3.386   3.467   8.104 -4.2822  0.8001  3.0384
   49CHL1  H27B 3625   3.427   3.461   8.276  1.8992  1.6870  2.0764
   49CHL1  H27C 3626   3.430   3.626   8.188 -0.8106 -0.0700 -1.1075
   50CHL1    C3 3627   4.665   4.833   7.003 -0.3307  0.6192  0.8741
   50CHL1    H3 3628   4.554   4.827   7.010 -0.3400  1.2442  1.3866
   50CHL1    O3 3629   4.698   4.800   6.864  0.4998  0.1064  0.4496
   50CHL1   H3' 3630   4.678   4.709   6.840  1.8979 -0.2463  0.5448
   50CHL1    C4 3631   4.705   4.979   7.042  0.3340 -0.4372  0.2596
   50CHL1   H4A 3632   4.807   4.997   7.000 -0.3624  0.3821 -1.1205
   50CHL1   H4B 3633   4.640   5.047   6.983 -0.1900 -1.2415 -0.0894
   50CHL1    C5 3634   4.691   5.003   7.194 -0.6531  0.5440  0.1134
   50CHL1    C6 3635   4.611   5.098   7.242 -0.3068 -0.1825 -0.0190
   50CHL1    H6 3636   4.564   5.160   7.164  0.4120  1.5765  0.9182
   50CHL1    C7 3637   4.597   5.142   7.383 -0.1468 -0.2537  0.6319
   50CHL1   H7A 3638   4.614   5.250   7.405 -0.8228  0.4284 -1.9691
   50CHL1   H7B 3639   4.504   5.100   7.426  1.6100 -4.9575  0.0487
   50CHL1    C8 3640   4.714   5.068   7.468  0.4072 -0.5672 -0.0244
   50CHL1    H8 3641   4.809   5.124   7.454 -0.9425  1.6276 -0.5885
   50CHL1   C14 3642   4.668   5.080   7.613 -0.0231 -0.7530 -0.5962
   50CHL1   H14 3643   4.574   5.022   7.623  0.3217 -1.0393  1.0849
   50CHL1   C15 3644   4.626   5.216   7.670  0.1394 -0.4855 -1.0002
   50CHL1  H15A 3645   4.710   5.289   7.672 -0.5151  0.2475  0.9399
   50CHL1  H15B 3646   4.532   5.265   7.639  0.2618 -1.0858 -2.3472
   50CHL1   C16 3647   4.608   5.178   7.820 -0.5575 -0.3942  0.4529
   50CHL1  H16A 3648   4.628   5.266   7.884  0.6625  1.7307 -2.7711
   50CHL1  H16B 3649   4.501   5.157   7.843 -0.9742  0.0885 -1.0369
   50CHL1   C17 3650   4.701   5.051   7.848  0.3662  0.4417  0.0439
   50CHL1   H17 3651   4.629   4.968   7.861  0.4589  0.4619  0.7494
   50CHL1   C13 3652   4.766   5.020   7.715 -0.6863 -0.0732 -0.0060
   50CHL1   C18 3653   4.903   5.088   7.708 -0.3139 -0.3053 -0.4289
   50CHL1  H18A 3654   4.991   5.024   7.731 -0.2670  0.5735  1.9220
   50CHL1  H18B 3655   4.928   5.115   7.603  1.2537 -1.1999 -0.2944
   50CHL1  H18C 3656   4.891   5.184   7.762 -0.1427  0.0587 -1.0299
   50CHL1   C12 3657   4.784   4.865   7.686  0.2053  0.0459  0.1862
   50CHL1  H12A 3658   4.864   4.826   7.754  0.7977  0.0509 -0.5044
   50CHL1  H12B 3659   4.690   4.807   7.689  0.6323 -0.7269 -1.2523
   50CHL1   C11 3660   4.832   4.849   7.540  0.3976  0.4174 -0.2990
   50CHL1  H11A 3661   4.937   4.883   7.527  0.6845  0.6623  2.3814
   50CHL1  H11B 3662   4.836   4.743   7.509  0.8322 -0.0563  1.3941
   50CHL1    C9 3663   4.735   4.920   7.442 -0.6641 -0.2464  0.0945
   50CHL1    H9 3664   4.636   4.877   7.465 -1.0303  0.4401 -0.2006
   50CHL1   C10 3665   4.766   4.904   7.284 -0.2196 -0.2802 -0.5190
   50CHL1   C19 3666   4.920   4.924   7.269  0.8084  1.0926 -0.1477
   50CHL1  H19A 3667   4.946   5.023   7.312  0.0012  0.4095  1.9839
   50CHL1  H19B 3668   4.981   4.849   7.324 -0.9028  0.2141  0.6160
   50CHL1  H19C 3669   4.952   4.912   7.163 -3.0015  0.5543 -1.3204
   50CHL1    C1 3670   4.726   4.756   7.241 -0.0792  0.0958  0.7866
   50CHL1   H1A 3671   4.780   4.674   7.292  1.0712  1.1153  1.2379
   50CHL1   H1B 3672   4.616   4.750   7.258 -0.3317  0.8418 -0.4982
   50CHL1    C2 3673   4.740   4.733   7.091 -0.0590  0.1060  0.3355
   50CHL1   H2A 3674   4.712   4.629   7.062 -0.3303  1.0118 -2.8629
   50CHL1   H2B 3675   4.846   4.751   7.064  0.0454  0.3423  0.9028
   50CHL1   C20 3676   4.780   5.058   7.984 -0.5261  0.1700  0.5023
   50CHL1   H20 3677   4.854   5.141   7.986 -2.8929  2.3419  1.0484
   50CHL1   C21 3678   4.851   4.922   8.016  0.4642  0.0230 -0.1251
   50CHL1  H21A 3679   4.876   4.895   8.121  2.5376  0.2724 -0.5383
   50CHL1  H21B 3680   4.934   4.905   7.943 -0.1081 -2.2695 -0.2768
   50CHL1  H21C 3681   4.773   4.850   7.982 -0.6858  1.9187 -1.5757
   50CHL1   C22 3682   4.685   5.089   8.096 -0.3708 -0.2538 -0.1197
   50CHL1  H22A 3683   4.613   5.172   8.076 -0.0424  0.6695  2.3709
   50CHL1  H22B 3684   4.625   4.997   8.114 -0.9238  0.2392  0.5951
   50CHL1   C23 3685   4.758   5.124   8.225  0.1148 -0.3750 -0.3420
   50CHL1  H23A 3686   4.830   5.041   8.238 -1.5893 -1.5766  1.8126
   50CHL1  H23B 3687   4.821   5.215   8.220  1.9796 -1.6994 -1.9740
   50CHL1   C24 3688   4.653   5.134   8.332  0.6133  0.2663  0.3286
   50CHL1  H24A 3689   4.597   5.229   8.315  1.4009  0.6829 -0.0194
   50CHL1  H24B 3690   4.587   5.048   8.307  1.7040 -1.0326  1.8873
   50CHL1   C25 3691   4.694   5.126   8.482 -0.0419 -0.0282 -0.5468
   50CHL1   H25 3692   4.733   5.023   8.500  1.0112  0.3436 -0.6629
   50CHL1   C26 3693   4.787   5.240   8.519  1.0793  0.3030  0.5100
   50CHL1  H26A 3694   4.789   5.239   8.630 -1.3286  0.0511  0.5909
   50CHL1  H26B 3695   4.884   5.235   8.466 -0.9042  1.3052 -3.4240
   50CHL1  H26C 3696   4.750   5.342   8.492 -0.8649 -0.8481 -1.3701
   50CHL1   C27 3697   4.563   5.130   8.564 -0.2802 -0.8148 -1.0284
   50CHL1  H27A 3698   4.584   5.114   8.672 -1.2823  1.0302 -0.5274
   50CHL1  H27B 3699   4.507   5.225   8.547 -0.1494 -0.4280  0.6155
   50CHL1  H27C 3700   4.491   5.046   8.559  0.5201 -1.5994  0.3395
   51CHL1    C3 3701   4.458   3.792   7.017  0.2385 -0.2955  0.2650
   51CHL1    H3 3702   4.398   3.699   7.003  1.7057 -1.0791 -0.9554
   51CHL1    O3 3703   4.491   3.837   6.887  0.3502  0.2846  0.3551
   51CHL1   H3' 3704   4.498   3.752   6.843  1.2740 -0.1442  1.3071
   51CHL1    C4 3705   4.382   3.905   7.089  0.2028 -0.2502 -0.2174
   51CHL1   H4A 3706   4.439   4.000   7.092 -1.7502  0.9798 -1.1754
   51CHL1   H4B 3707   4.285   3.917   7.037  0.9849  1.4856 -1.3283
   51CHL1    C5 3708   4.355   3.857   7.230 -0.2475 -0.5084  0.0358
   51CHL1    C6 3709   4.234   3.847   7.281  0.1373  0.5957  0.0761
   51CHL1    H6 3710   4.146   3.878   7.222  0.2309 -2.1501 -1.5642
   51CHL1    C7 3711   4.203   3.802   7.423  0.3596  0.7258  0.2553
   51CHL1   H7A 3712   4.126   3.862   7.476  0.9026  1.5655  0.1021
   51CHL1   H7B 3713   4.167   3.696   7.425 -0.3144  0.9613  1.5348
   51CHL1    C8 3714   4.331   3.799   7.517  0.0803 -0.0409 -0.4380
   51CHL1    H8 3715   4.360   3.904   7.538 -0.0966  0.4489 -2.5283
   51CHL1   C14 3716   4.310   3.724   7.646 -0.3464 -0.1647 -0.3833
   51CHL1   H14 3717   4.288   3.622   7.607  0.0482  0.1904 -1.5659
   51CHL1   C15 3718   4.180   3.754   7.720 -0.5854 -0.2224 -0.2289
   51CHL1  H15A 3719   4.154   3.861   7.704  2.5416  0.9728  2.1805
   51CHL1  H15B 3720   4.096   3.696   7.677  1.1269 -0.4506 -3.3670
   51CHL1   C16 3721   4.213   3.723   7.877  0.7114 -0.3344  0.2283
   51CHL1  H16A 3722   4.230   3.816   7.935  0.1967 -1.8725  2.9122
   51CHL1  H16B 3723   4.125   3.663   7.909  0.1905  1.2571  1.8697
   51CHL1   C17 3724   4.354   3.656   7.871  0.2440 -0.4646  0.4038
   51CHL1   H17 3725   4.338   3.549   7.843 -0.3292 -0.6291  1.3202
   51CHL1   C13 3726   4.428   3.725   7.750 -0.6833  1.2055  0.9220
   51CHL1   C18 3727   4.480   3.860   7.797  0.2462  0.0614  0.5819
   51CHL1  H18A 3728   4.528   3.907   7.709 -0.4723 -3.0025 -1.5375
   51CHL1  H18B 3729   4.393   3.919   7.832  1.7270  1.9827  1.1046
   51CHL1  H18C 3730   4.544   3.859   7.888 -0.6406  0.3224  1.2126
   51CHL1   C12 3731   4.537   3.641   7.672 -0.0371  0.4063 -0.0772
   51CHL1  H12A 3732   4.629   3.643   7.734  0.2776  0.0498 -0.5228
   51CHL1  H12B 3733   4.496   3.540   7.654  1.5783 -0.0289 -1.5359
   51CHL1   C11 3734   4.568   3.699   7.532 -0.4316 -0.1956 -0.1922
   51CHL1  H11A 3735   4.629   3.790   7.550 -1.3427 -0.0077  2.1970
   51CHL1  H11B 3736   4.627   3.625   7.475 -0.5920  0.1526 -0.8100
   51CHL1    C9 3737   4.444   3.736   7.440  0.0239 -0.7892  0.2848
   51CHL1    H9 3738   4.408   3.636   7.409  1.2463 -1.1943  0.1505
   51CHL1   C10 3739   4.480   3.813   7.311 -0.2605  0.7736  0.1408
   51CHL1   C19 3740   4.560   3.944   7.338  0.2319 -0.8084  0.0167
   51CHL1  H19A 3741   4.512   4.018   7.405 -0.9869  0.5445 -2.2668
   51CHL1  H19B 3742   4.662   3.920   7.374  0.3558 -0.0394  0.1792
   51CHL1  H19C 3743   4.586   4.005   7.249 -3.2926  0.4129 -0.2696
   51CHL1    C1 3744   4.572   3.719   7.230 -0.6055  0.4291  0.4885
   51CHL1   H1A 3745   4.670   3.695   7.277 -0.8772 -1.4816  0.1154
   51CHL1   H1B 3746   4.511   3.629   7.209 -0.3241  0.6563 -1.3781
   51CHL1    C2 3747   4.597   3.766   7.091 -0.3932  0.4152 -0.6924
   51CHL1   H2A 3748   4.646   3.679   7.043 -0.2937  0.0809  0.0140
   51CHL1   H2B 3749   4.661   3.857   7.092 -1.2510  1.0224  0.9935
   51CHL1   C20 3750   4.422   3.648   8.006  0.3588 -0.2420  0.2824
   51CHL1   H20 3751   4.465   3.748   8.032  0.0171  0.1495 -0.6388
   51CHL1   C21 3752   4.532   3.541   7.993 -0.5806 -0.0896  0.5118
   51CHL1  H21A 3753   4.621   3.575   7.936 -0.7878  0.4381  0.4993
   51CHL1  H21B 3754   4.488   3.443   7.964 -1.8066  0.6349 -0.1267
   51CHL1  H21C 3755   4.585   3.527   8.090 -1.4485 -1.6902  0.7728
   51CHL1   C22 3756   4.318   3.615   8.116  0.2985  0.8944 -0.4795
   51CHL1  H22A 3757   4.218   3.581   8.083  0.7428 -2.3337  1.3360
   51CHL1  H22B 3758   4.353   3.526   8.172  1.2736  1.7867  0.3436
   51CHL1   C23 3759   4.307   3.721   8.232 -0.0685  0.7784 -0.0086
   51CHL1  H23A 3760   4.406   3.767   8.252  0.0372  0.8205 -0.6119
   51CHL1  H23B 3761   4.240   3.803   8.199  0.5870  1.5728  0.6183
   51CHL1   C24 3762   4.245   3.666   8.362 -0.7269  0.4891  0.3428
   51CHL1  H24A 3763   4.174   3.585   8.335  1.0162  0.0171 -3.1054
   51CHL1  H24B 3764   4.324   3.611   8.418  0.0160  1.5949  0.3816
   51CHL1   C25 3765   4.191   3.762   8.464  0.1823 -0.1470  0.3531
   51CHL1   H25 3766   4.087   3.783   8.432  1.4244  0.7226 -3.3815
   51CHL1   C26 3767   4.182   3.693   8.600  0.0144  0.1532  0.1088
   51CHL1  H26A 3768   4.117   3.603   8.593  0.6673 -0.4092  1.1264
   51CHL1  H26B 3769   4.287   3.671   8.630  0.3178  1.0062 -0.2844
   51CHL1  H26C 3770   4.149   3.758   8.684  0.2848  0.5702 -0.1065
   51CHL1   C27 3771   4.255   3.904   8.487 -0.3634 -0.2860  0.2240
   51CHL1  H27A 3772   4.286   3.957   8.394 -0.3895 -2.1423 -0.8638
   51CHL1  H27B 3773   4.184   3.971   8.539  0.1606  0.0782  0.4714
   51CHL1  H27C 3774   4.343   3.893   8.553 -0.5176 -1.5184  0.2397
   52CHL1    C3 3775   6.765   4.909   6.940  0.7170  0.3854 -0.1287
   52CHL1    H3 3776   6.801   4.805   6.957 -0.2386  0.3495  1.8499
   52CHL1    O3 3777   6.772   4.930   6.802  0.1778 -0.1520  0.1863
   52CHL1   H3' 3778   6.768   5.026   6.799  0.5817 -0.1100  0.8987
   52CHL1    C4 3779   6.628   4.923   6.994 -0.1520 -0.3883  0.0606
   52CHL1   H4A 3780   6.588   5.024   6.971  2.3242  1.0741  1.9144
   52CHL1   H4B 3781   6.565   4.849   6.940  3.2438 -0.9955 -3.2745
   52CHL1    C5 3782   6.623   4.910   7.145  0.9239  0.6853  0.7762
   52CHL1    C6 3783   6.535   4.831   7.212 -0.2386 -0.0465  0.7186
   52CHL1    H6 3784   6.461   4.769   7.160  2.5582 -1.2050 -2.0571
   52CHL1    C7 3785   6.526   4.817   7.362 -0.3884  0.1174 -0.1982
   52CHL1   H7A 3786   6.421   4.797   7.394 -0.2349  1.7341  1.4283
   52CHL1   H7B 3787   6.574   4.724   7.397 -0.7120  1.1350  3.1239
   52CHL1    C8 3788   6.589   4.935   7.433  0.1564 -0.1299  0.3291
   52CHL1    H8 3789   6.521   5.021   7.414  0.7352  0.0293 -1.1127
   52CHL1   C14 3790   6.601   4.898   7.580 -0.4550 -0.3046 -0.2184
   52CHL1   H14 3791   6.656   4.801   7.582  0.8597  0.4549  1.3224
   52CHL1   C15 3792   6.469   4.849   7.658  0.0701 -0.4845 -0.1323
   52CHL1  H15A 3793   6.382   4.918   7.644 -0.2265 -0.6273  0.9422
   52CHL1  H15B 3794   6.450   4.744   7.626  1.2706 -0.3046 -1.4682
   52CHL1   C16 3795   6.513   4.865   7.809 -0.2092 -0.0345  0.1814
   52CHL1  H16A 3796   6.434   4.918   7.866  0.9289  0.8475  0.9713
   52CHL1  H16B 3797   6.528   4.765   7.856 -0.4139 -0.9820 -1.7269
   52CHL1   C17 3798   6.650   4.944   7.796  0.3635 -0.3474 -0.5174
   52CHL1   H17 3799   6.732   4.869   7.791  0.3799 -0.2458 -1.7810
   52CHL1   C13 3800   6.659   5.008   7.662 -0.0525 -0.0087 -0.3347
   52CHL1   C18 3801   6.567   5.127   7.670  0.8126 -0.4952  0.2641
   52CHL1  H18A 3802   6.481   5.096   7.733 -0.8824 -1.0017 -2.2271
   52CHL1  H18B 3803   6.609   5.218   7.719 -1.5368  1.1951 -0.7136
   52CHL1  H18C 3804   6.535   5.159   7.568  1.2213  0.3056  0.3811
   52CHL1   C12 3805   6.805   5.040   7.608  0.3265 -0.1659 -0.0925
   52CHL1  H12A 3806   6.857   5.123   7.661 -3.0754  2.1280 -0.2362
   52CHL1  H12B 3807   6.863   4.945   7.615  1.6134  0.6852  1.2874
   52CHL1   C11 3808   6.805   5.077   7.464 -0.1122  0.4329  0.5310
   52CHL1  H11A 3809   6.751   5.174   7.458 -1.8174 -0.6392 -2.2615
   52CHL1  H11B 3810   6.908   5.094   7.426 -0.3183 -0.2910 -0.3622
   52CHL1    C9 3811   6.727   4.970   7.375 -0.3340 -0.5984  0.0250
   52CHL1    H9 3812   6.776   4.871   7.380 -1.4060 -1.1029  0.6187
   52CHL1   C10 3813   6.734   4.992   7.223 -0.8259  0.0926  0.3233
   52CHL1   C19 3814   6.696   5.139   7.210 -0.2746 -0.1219 -1.1659
   52CHL1  H19A 3815   6.616   5.185   7.273 -0.7602  0.7253 -2.3931
   52CHL1  H19B 3816   6.789   5.197   7.229 -0.9188  0.1251  1.4214
   52CHL1  H19C 3817   6.666   5.166   7.107  1.0702  1.1000 -1.2415
   52CHL1    C1 3818   6.876   4.968   7.164 -0.8174  0.2231 -0.8703
   52CHL1   H1A 3819   6.965   5.025   7.199 -1.3558 -0.5539  1.9363
   52CHL1   H1B 3820   6.904   4.864   7.191 -1.8311  0.5780  1.7921
   52CHL1    C2 3821   6.869   4.991   7.008  0.3900 -0.3771  0.4292
   52CHL1   H2A 3822   6.970   4.963   6.972  0.8097 -1.3308  2.3102
   52CHL1   H2B 3823   6.842   5.098   6.990  0.3565 -0.3163  0.8408
   52CHL1   C20 3824   6.683   5.015   7.929  0.4617  0.1330 -0.5201
   52CHL1   H20 3825   6.663   5.124   7.914  2.4855  0.5789 -0.0164
   52CHL1   C21 3826   6.835   5.000   7.936  0.1537 -0.5478  0.0497
   52CHL1  H21A 3827   6.867   5.049   8.030 -1.0420  3.5653 -1.5840
   52CHL1  H21B 3828   6.885   5.046   7.848 -3.1878 -1.0422 -2.2017
   52CHL1  H21C 3829   6.866   4.894   7.948  0.1295 -0.6653 -0.8658
   52CHL1   C22 3830   6.636   4.951   8.058  0.2289  0.0188  0.2149
   52CHL1  H22A 3831   6.529   4.921   8.051  0.7553 -1.6195 -1.2450
   52CHL1  H22B 3832   6.691   4.856   8.071 -0.6535 -0.4072  0.8235
   52CHL1   C23 3833   6.650   5.032   8.191  0.1348 -0.4588  0.1638
   52CHL1  H23A 3834   6.756   5.051   8.220  0.3279 -2.2817  0.7000
   52CHL1  H23B 3835   6.596   5.129   8.192 -0.1521 -0.6159 -0.0304
   52CHL1   C24 3836   6.579   4.963   8.307 -0.3928  1.0635  0.2411
   52CHL1  H24A 3837   6.480   4.936   8.266 -0.8049  0.6588  1.4866
   52CHL1  H24B 3838   6.635   4.872   8.338 -0.3792  0.8655 -0.3668
   52CHL1   C25 3839   6.546   5.062   8.417  0.6150 -0.2979 -0.0653
   52CHL1   H25 3840   6.492   5.153   8.382  1.2594 -0.1782 -0.7662
   52CHL1   C26 3841   6.456   4.998   8.522 -0.8824 -0.5421 -0.4998
   52CHL1  H26A 3842   6.517   4.919   8.572 -0.5125 -1.2805 -2.0972
   52CHL1  H26B 3843   6.426   5.064   8.606 -0.7879 -0.7641 -0.2927
   52CHL1  H26C 3844   6.363   4.961   8.474 -2.7904  2.6650  0.5610
   52CHL1   C27 3845   6.671   5.093   8.492 -0.1934  0.4615 -0.0908
   52CHL1  H27A 3846   6.739   5.143   8.420 -0.6791  0.3386 -0.6285
   52CHL1  H27B 3847   6.660   5.156   8.583  0.2523  2.3054 -1.2909
   52CHL1  H27C 3848   6.722   4.997   8.515 -0.4644  0.7755  2.0030
   53CHL1    C3 3849   2.112   1.465   7.011 -0.1437  0.0973  0.4110
   53CHL1    H3 3850   2.081   1.572   7.009  0.9391  0.3968 -1.5422
   53CHL1    O3 3851   2.114   1.426   6.875 -0.1140 -0.1042 -0.2332
   53CHL1   H3' 3852   2.028   1.453   6.843  0.5196  0.7613 -1.2328
   53CHL1    C4 3853   2.251   1.481   7.079  0.5891 -0.5326 -0.0505
   53CHL1   H4A 3854   2.317   1.394   7.060  0.4251 -0.4914 -0.8359
   53CHL1   H4B 3855   2.307   1.553   7.015  0.8306 -0.6186  0.0659
   53CHL1    C5 3856   2.240   1.513   7.226  1.4431  0.3401 -0.0837
   53CHL1    C6 3857   2.320   1.613   7.277  0.1194 -0.2582  1.0420
   53CHL1    H6 3858   2.388   1.664   7.207  0.9660 -1.6496  0.8295
   53CHL1    C7 3859   2.321   1.660   7.415  1.0788 -0.3648 -1.2540
   53CHL1   H7A 3860   2.424   1.671   7.455  0.0007 -1.3055  1.8824
   53CHL1   H7B 3861   2.272   1.758   7.433 -1.8392 -1.8587 -0.8609
   53CHL1    C8 3862   2.242   1.564   7.501  0.2672 -0.0730 -0.3052
   53CHL1    H8 3863   2.298   1.473   7.531  0.5470 -0.1631 -1.0722
   53CHL1   C14 3864   2.206   1.627   7.636 -0.3792 -0.0036  0.3292
   53CHL1   H14 3865   2.143   1.714   7.610 -1.4157 -0.5554  0.9619
   53CHL1   C15 3866   2.328   1.683   7.715  0.0682  0.1173 -0.3183
   53CHL1  H15A 3867   2.400   1.601   7.699 -2.1092 -1.6969 -1.1606
   53CHL1  H15B 3868   2.367   1.779   7.676 -0.0911  0.4054  0.2345
   53CHL1   C16 3869   2.281   1.689   7.859 -0.0557  0.0174 -0.4577
   53CHL1  H16A 3870   2.353   1.640   7.928 -2.4889 -0.1089  2.1005
   53CHL1  H16B 3871   2.270   1.793   7.899  0.2743 -0.0990 -0.0556
   53CHL1   C17 3872   2.140   1.626   7.863  0.1264  0.2530  0.0744
   53CHL1   H17 3873   2.075   1.716   7.853 -3.4778 -2.2948 -0.4710
   53CHL1   C13 3874   2.131   1.542   7.731  0.0845 -0.3844  0.0526
   53CHL1   C18 3875   2.198   1.408   7.767 -0.1996  0.5822 -0.1751
   53CHL1  H18A 3876   2.210   1.332   7.686  0.5346 -1.8134  2.1047
   53CHL1  H18B 3877   2.290   1.436   7.822  0.0586 -0.8126  0.1191
   53CHL1  H18C 3878   2.134   1.353   7.839  0.1599  0.9571  0.4341
   53CHL1   C12 3879   1.995   1.512   7.668 -0.5949 -0.7306 -0.1516
   53CHL1  H12A 3880   1.944   1.433   7.726 -1.7502 -1.0568 -1.5905
   53CHL1  H12B 3881   1.934   1.605   7.672 -1.0888 -0.9246 -2.4703
   53CHL1   C11 3882   2.008   1.451   7.531 -0.3679  0.0209 -0.1230
   53CHL1  H11A 3883   2.038   1.346   7.545 -1.0828 -0.1996 -0.2175
   53CHL1  H11B 3884   1.905   1.445   7.488 -0.6076  1.3126  0.2436
   53CHL1    C9 3885   2.111   1.517   7.434 -0.2441 -0.5432 -1.1429
   53CHL1    H9 3886   2.054   1.608   7.408 -1.0995 -0.3674  1.2180
   53CHL1   C10 3887   2.137   1.432   7.307  0.3634  0.2751 -0.1494
   53CHL1   C19 3888   2.189   1.299   7.349  0.4042  0.3509 -0.5986
   53CHL1  H19A 3889   2.105   1.232   7.377  2.7755 -2.0313  1.0530
   53CHL1  H19B 3890   2.243   1.247   7.267  1.1518  0.2325 -0.0337
   53CHL1  H19C 3891   2.265   1.307   7.429 -0.9214  2.1534  0.4955
   53CHL1    C1 3892   2.004   1.417   7.227  0.5617 -0.1768  0.5028
   53CHL1   H1A 3893   1.946   1.339   7.281 -0.6652  0.5533  0.2629
   53CHL1   H1B 3894   1.937   1.505   7.239  0.1643 -0.8142  3.3376
   53CHL1    C2 3895   2.016   1.376   7.081  0.3003  0.2253  0.1085
   53CHL1   H2A 3896   1.912   1.381   7.043  0.8059  0.7036 -1.2699
   53CHL1   H2B 3897   2.053   1.272   7.067  1.6440  0.9689 -2.2927
   53CHL1   C20 3898   2.104   1.561   7.999  0.2839 -0.1653  0.2634
   53CHL1   H20 3899   2.157   1.463   7.991  0.7264  0.2167 -1.9333
   53CHL1   C21 3900   1.952   1.532   8.011 -0.1274 -0.4637  0.4174
   53CHL1  H21A 3901   1.892   1.625   8.012  2.6747  1.4268  0.2684
   53CHL1  H21B 3902   1.935   1.480   8.107  1.6181  1.0270  1.5656
   53CHL1  H21C 3903   1.921   1.471   7.924 -2.3195  1.5754 -0.2682
   53CHL1   C22 3904   2.168   1.623   8.129  0.5038 -0.2332  0.0823
   53CHL1  H22A 3905   2.278   1.635   8.131  0.4331  1.9272 -3.7824
   53CHL1  H22B 3906   2.116   1.720   8.144 -0.1580 -0.0580 -3.1395
   53CHL1   C23 3907   2.127   1.537   8.245 -0.5778  0.4159 -0.0278
   53CHL1  H23A 3908   2.034   1.566   8.300 -0.7264 -1.0275  0.5007
   53CHL1  H23B 3909   2.108   1.432   8.213 -3.0053  1.1896 -1.2333
   53CHL1   C24 3910   2.249   1.534   8.347  0.6990  0.6401 -0.0637
   53CHL1  H24A 3911   2.333   1.486   8.293  1.8558 -1.5179  3.5158
   53CHL1  H24B 3912   2.276   1.638   8.374  0.4956  0.8945 -0.8238
   53CHL1   C25 3913   2.226   1.439   8.465 -0.2354  0.5795 -0.0024
   53CHL1   H25 3914   2.126   1.470   8.502 -0.7815  0.6185 -1.5181
   53CHL1   C26 3915   2.211   1.299   8.413  0.1917  0.2803  0.6821
   53CHL1  H26A 3916   2.234   1.220   8.488 -1.0734  0.3213  1.1291
   53CHL1  H26B 3917   2.108   1.280   8.377  1.1763  0.5234 -2.3859
   53CHL1  H26C 3918   2.294   1.298   8.340  1.5360  1.0886  2.1488
   53CHL1   C27 3919   2.330   1.455   8.581 -0.6985 -0.0798  0.4568
   53CHL1  H27A 3920   2.287   1.415   8.676  1.3974 -0.5565  1.2437
   53CHL1  H27B 3921   2.423   1.399   8.558 -0.2450  1.2284 -1.0033
   53CHL1  H27C 3922   2.362   1.559   8.602  1.1014 -0.2271 -1.4178
   54CHL1    C3 3923   2.957   3.010   6.923 -0.0079  0.2079 -0.7898
   54CHL1    H3 3924   3.064   3.026   6.947 -0.0607  0.7668 -0.9128
   54CHL1    O3 3925   2.938   3.045   6.785  0.2060 -0.2363  0.4639
   54CHL1   H3' 3926   2.987   2.977   6.738  1.0842  0.5940  0.1517
   54CHL1    C4 3927   2.907   2.878   6.957 -0.8517  0.3156  1.3610
   54CHL1   H4A 3928   2.797   2.865   6.946 -0.8201  1.9806 -1.5004
   54CHL1   H4B 3929   2.956   2.807   6.887 -0.6234  2.2992 -0.5185
   54CHL1    C5 3930   2.936   2.848   7.105 -0.6120 -0.3593 -0.2760
   54CHL1    C6 3931   3.027   2.750   7.139  1.2826  0.5418  0.3060
   54CHL1    H6 3932   3.078   2.684   7.067 -0.0745  0.1937 -0.3663
   54CHL1    C7 3933   3.059   2.720   7.284  0.1236 -0.3128 -0.7426
   54CHL1   H7A 3934   3.079   2.612   7.301  2.8716  0.3951  0.8246
   54CHL1   H7B 3935   3.162   2.759   7.298  0.4584 -1.7130  0.8353
   54CHL1    C8 3936   2.957   2.780   7.382  0.0004 -0.2247  0.0301
   54CHL1    H8 3937   2.864   2.720   7.378 -0.9742  1.3431 -1.6943
   54CHL1   C14 3938   3.011   2.768   7.524 -0.8891 -0.2016 -0.1179
   54CHL1   H14 3939   3.102   2.831   7.527 -0.4347 -0.8840  0.3237
   54CHL1   C15 3940   3.046   2.630   7.565 -0.4946 -0.2132 -1.3064
   54CHL1  H15A 3941   2.964   2.562   7.536 -1.9183  1.2607 -0.7989
   54CHL1  H15B 3942   3.143   2.607   7.515  0.7432 -0.1555  0.9844
   54CHL1   C16 3943   3.076   2.643   7.716 -0.0392 -0.1671  0.1893
   54CHL1  H16A 3944   3.019   2.565   7.771  0.8055  0.3101  1.7921
   54CHL1  H16B 3945   3.184   2.635   7.738 -0.3419 -0.7789  1.5340
   54CHL1   C17 3946   3.019   2.782   7.750  0.2762 -1.0130 -0.2652
   54CHL1   H17 3947   3.106   2.852   7.750 -0.0680 -0.5584  2.2327
   54CHL1   C13 3948   2.930   2.830   7.633  0.4649  0.5534 -0.4683
   54CHL1   C18 3949   2.790   2.761   7.643 -0.0244  1.0506  0.2780
   54CHL1  H18A 3950   2.735   2.769   7.546  0.5657 -1.6379 -0.3262
   54CHL1  H18B 3951   2.796   2.656   7.678  0.9496  0.3102 -2.0004
   54CHL1  H18C 3952   2.741   2.820   7.723 -0.2841  0.8033  0.3022
   54CHL1   C12 3953   2.922   2.981   7.600 -0.6146  0.0394 -0.4299
   54CHL1  H12A 3954   2.869   3.027   7.686  0.2942  2.2860 -1.0312
   54CHL1  H12B 3955   3.024   3.025   7.596 -0.5581 -0.1101 -0.6231
   54CHL1   C11 3956   2.857   3.002   7.462 -0.0333 -1.0416  0.2504
   54CHL1  H11A 3957   2.747   2.986   7.457 -0.3681  0.9846  0.5178
   54CHL1  H11B 3958   2.875   3.110   7.441  1.5815 -1.3884 -0.1907
   54CHL1    C9 3959   2.926   2.930   7.350 -0.4665  0.5799 -0.4305
   54CHL1    H9 3960   3.019   2.990   7.343 -1.2616  1.8479 -0.2846
   54CHL1   C10 3961   2.867   2.944   7.207  0.6743  0.2869 -0.0113
   54CHL1   C19 3962   2.711   2.923   7.210  0.0677 -0.4901  0.0805
   54CHL1  H19A 3963   2.679   2.823   7.246  4.6007 -1.5371  1.5669
   54CHL1  H19B 3964   2.661   3.000   7.273 -0.7706 -0.7630 -0.2456
   54CHL1  H19C 3965   2.662   2.933   7.111 -0.3002  2.2834  0.5042
   54CHL1    C1 3966   2.896   3.091   7.149  0.5296  0.0642 -1.0390
   54CHL1   H1A 3967   2.839   3.158   7.217  0.4566 -1.2492  0.2151
   54CHL1   H1B 3968   3.004   3.111   7.166  0.8977  0.4105 -3.5876
   54CHL1    C2 3969   2.876   3.114   7.008  0.9032  0.6279  0.0312
   54CHL1   H2A 3970   2.909   3.214   6.972  0.7238 -0.2301 -2.6716
   54CHL1   H2B 3971   2.772   3.095   6.973  0.4993 -0.8572  1.9836
   54CHL1   C20 3972   2.971   2.787   7.901 -0.1959  0.0257  0.0738
   54CHL1   H20 3973   2.878   2.727   7.911  0.0611 -0.8031 -2.2145
   54CHL1   C21 3974   2.947   2.933   7.941 -1.1009 -0.3433 -0.5552
   54CHL1  H21A 3975   2.933   2.936   8.051 -0.1305 -1.2823 -0.3943
   54CHL1  H21B 3976   2.854   2.970   7.892 -1.4827 -0.2327  0.2605
   54CHL1  H21C 3977   3.037   2.998   7.931 -2.7704  1.7364 -2.7476
   54CHL1   C22 3978   3.089   2.735   8.002  0.4369 -0.1753  0.1231
   54CHL1  H22A 3979   3.146   2.652   7.955 -0.2695 -0.2038 -0.7038
   54CHL1  H22B 3980   3.157   2.823   8.011  0.9368 -0.4575 -0.7762
   54CHL1   C23 3981   3.016   2.689   8.128 -0.0424  0.4425 -0.1167
   54CHL1  H23A 3982   2.964   2.772   8.180  1.4981  1.8663 -0.8015
   54CHL1  H23B 3983   2.934   2.624   8.088 -1.0158  1.4090  0.2807
   54CHL1   C24 3984   3.108   2.621   8.221 -0.3315 -0.2132 -0.2735
   54CHL1  H24A 3985   3.177   2.548   8.173  0.9028  1.0658 -0.4896
   54CHL1  H24B 3986   3.176   2.700   8.260 -0.8065  0.5178 -0.9258
   54CHL1   C25 3987   3.047   2.568   8.354  0.2688 -0.2433  0.5910
   54CHL1   H25 3988   2.995   2.657   8.396 -0.3536 -0.0063 -0.6412
   54CHL1   C26 3989   2.951   2.452   8.338 -0.3400  0.0294  0.7071
   54CHL1  H26A 3990   2.868   2.476   8.269  0.9877  1.3278 -0.4794
   54CHL1  H26B 3991   3.012   2.367   8.301 -0.7360  0.2885 -0.5634
   54CHL1  H26C 3992   2.916   2.420   8.439  1.6112  1.4378  1.8831
   54CHL1   C27 3993   3.162   2.532   8.455 -0.2383  0.6006 -0.7560
   54CHL1  H27A 3994   3.116   2.487   8.546 -0.1856  1.2071 -0.4256
   54CHL1  H27B 3995   3.220   2.454   8.401  2.1562  1.6452  0.2387
   54CHL1  H27C 3996   3.224   2.624   8.469 -1.7148  1.2355  2.0492
   55CHL1    C3 3997   2.839   5.159   6.899  0.8836  0.7526  0.4063
   55CHL1    H3 3998   2.753   5.228   6.885 -0.7436 -1.3495 -0.1334
   55CHL1    O3 3999   2.860   5.100   6.774  0.4652 -0.8091 -0.2316
   55CHL1   H3' 4000   2.903   5.164   6.717 -1.0996  0.9785  0.5288
   55CHL1    C4 4001   2.971   5.214   6.952 -0.4908 -0.5357 -0.1919
   55CHL1   H4A 4002   3.055   5.143   6.939  1.6629  1.3826  2.4321
   55CHL1   H4B 4003   2.985   5.306   6.891  0.4865  1.0346  2.2781
   55CHL1    C5 4004   2.975   5.252   7.097  0.5153  0.6064  0.2878
   55CHL1    C6 4005   3.025   5.372   7.135 -0.1455 -0.3206  0.2690
   55CHL1    H6 4006   3.078   5.431   7.059 -0.4174 -0.9089 -0.3798
   55CHL1    C7 4007   3.026   5.413   7.281 -0.0304 -0.0553  0.4930
   55CHL1   H7A 4008   3.130   5.440   7.310  0.2330  0.1505 -0.6131
   55CHL1   H7B 4009   2.958   5.500   7.292 -1.3721 -1.2269  1.7244
   55CHL1    C8 4010   2.975   5.305   7.385 -0.5130  0.7942 -0.3524
   55CHL1    H8 4011   3.062   5.240   7.409 -1.1390 -0.1606 -0.6361
   55CHL1   C14 4012   2.934   5.364   7.519  0.0558 -0.2514  1.4253
   55CHL1   H14 4013   2.848   5.432   7.496 -0.2149 -1.3515 -0.9209
   55CHL1   C15 4014   3.035   5.460   7.597 -0.3552 -0.0511  0.3361
   55CHL1  H15A 4015   3.135   5.410   7.593 -0.2002  0.2772  0.0212
   55CHL1  H15B 4016   3.042   5.559   7.548 -1.7381 -0.1591 -0.0999
   55CHL1   C16 4017   2.983   5.459   7.734 -0.0053  0.4801 -0.0208
   55CHL1  H16A 4018   3.059   5.455   7.815  0.2425  1.0073 -0.2253
   55CHL1  H16B 4019   2.935   5.558   7.751 -0.7765  0.1249 -0.0862
   55CHL1   C17 4020   2.870   5.343   7.736  0.9510 -0.4790  0.5223
   55CHL1   H17 4021   2.774   5.393   7.713  1.2738  0.7730  1.8504
   55CHL1   C13 4022   2.901   5.253   7.621 -0.7418  0.4165  0.3514
   55CHL1   C18 4023   3.014   5.151   7.658  0.2135 -0.3581  0.1867
   55CHL1  H18A 4024   3.062   5.096   7.574 -0.6170 -2.2198  0.9122
   55CHL1  H18B 4025   3.087   5.191   7.732  0.1751 -1.2372  0.7083
   55CHL1  H18C 4026   2.980   5.065   7.719  1.1880 -0.4114  0.6780
   55CHL1   C12 4027   2.787   5.177   7.567 -0.0099 -0.0304  0.5766
   55CHL1  H12A 4028   2.756   5.099   7.640 -1.5114  2.3822  2.5959
   55CHL1  H12B 4029   2.691   5.231   7.552 -0.0658 -0.0170  0.9873
   55CHL1   C11 4030   2.821   5.098   7.433 -0.3975 -0.8715 -0.0499
   55CHL1  H11A 4031   2.901   5.021   7.445  0.4047  0.0753  0.7956
   55CHL1  H11B 4032   2.738   5.042   7.387  0.3854 -0.6640 -1.7605
   55CHL1    C9 4033   2.871   5.205   7.325  0.3029 -0.1886  0.5064
   55CHL1    H9 4034   2.781   5.267   7.305 -0.8013 -1.2672  2.0598
   55CHL1   C10 4035   2.913   5.143   7.189  0.0828 -0.2532  0.1108
   55CHL1   C19 4036   3.020   5.027   7.209  0.0513 -0.1832 -0.6423
   55CHL1  H19A 4037   2.977   4.944   7.268  0.2756  1.2668  1.6246
   55CHL1  H19B 4038   3.059   4.991   7.112 -0.1858 -1.7393 -0.1722
   55CHL1  H19C 4039   3.106   5.049   7.276 -1.0033 -0.5089  0.8276
   55CHL1    C1 4040   2.776   5.082   7.125 -0.2770  0.2257 -0.4579
   55CHL1   H1A 4041   2.733   4.994   7.177  1.1608  0.4455  1.1444
   55CHL1   H1B 4042   2.700   5.162   7.131  1.8910  2.2751  0.7713
   55CHL1    C2 4043   2.796   5.037   6.985 -0.5498  0.2802 -0.6331
   55CHL1   H2A 4044   2.706   4.989   6.941 -1.3094  0.7200  0.4260
   55CHL1   H2B 4045   2.874   4.958   6.982 -0.5894  0.2601 -1.2508
   55CHL1   C20 4046   2.847   5.278   7.873  0.4016 -0.4458  0.0589
   55CHL1   H20 4047   2.826   5.171   7.848 -0.2013 -0.3614  0.1988
   55CHL1   C21 4048   2.728   5.356   7.941  0.4295  0.1584  0.2046
   55CHL1  H21A 4049   2.755   5.463   7.952 -0.9607  0.7302 -1.7408
   55CHL1  H21B 4050   2.691   5.325   8.041 -2.3673  1.3874 -0.4230
   55CHL1  H21C 4051   2.641   5.353   7.872  0.6609  0.1348 -0.0908
   55CHL1   C22 4052   2.970   5.279   7.969  0.1079  0.0120  0.3316
   55CHL1  H22A 4053   3.065   5.276   7.912 -0.2112  0.6243 -0.2444
   55CHL1  H22B 4054   2.963   5.376   8.024  0.8333 -1.1905  2.6244
   55CHL1   C23 4055   2.961   5.161   8.058 -0.1373 -0.1189  0.5078
   55CHL1  H23A 4056   2.864   5.158   8.112  0.0843  3.6546  1.2492
   55CHL1  H23B 4057   2.981   5.065   8.006  0.4785 -1.3384  2.8914
   55CHL1   C24 4058   3.066   5.163   8.173  0.1153 -0.0598 -0.3013
   55CHL1  H24A 4059   3.167   5.170   8.128 -0.2958  2.5251 -0.9466
   55CHL1  H24B 4060   3.042   5.249   8.240 -1.4732  0.0006 -0.9294
   55CHL1   C25 4061   3.048   5.035   8.256 -0.0255 -0.8788 -0.2505
   55CHL1   H25 4062   3.059   4.948   8.188 -1.2447 -0.6975 -0.7141
   55CHL1   C26 4063   3.146   5.015   8.364  0.4204  0.2742  0.3226
   55CHL1  H26A 4064   3.248   4.995   8.326 -0.5841 -2.7852 -0.8835
   55CHL1  H26B 4065   3.153   5.107   8.427  3.0151 -0.0374  0.5472
   55CHL1  H26C 4066   3.114   4.937   8.437 -0.4637 -1.8986 -2.2880
   55CHL1   C27 4067   2.904   5.028   8.320 -0.1145  0.2480 -0.1064
   55CHL1  H27A 4068   2.905   4.966   8.412 -3.3657  2.2551  1.3819
   55CHL1  H27B 4069   2.872   5.130   8.350 -0.8351 -1.2726  4.6640
   55CHL1  H27C 4070   2.840   4.987   8.239  1.0655 -1.0046 -0.4237
   56CHL1    C3 4071   1.772   2.838   6.804 -0.2656  0.4086  0.5659
   56CHL1    H3 4072   1.695   2.764   6.773  0.8353 -0.4149 -0.2970
   56CHL1    O3 4073   1.864   2.855   6.690  0.5439 -0.0572  0.1330
   56CHL1   H3' 4074   1.939   2.880   6.743  0.1123 -1.9329  1.6633
   56CHL1    C4 4075   1.719   2.978   6.843  0.1601 -0.4957 -0.0999
   56CHL1   H4A 4076   1.803   3.051   6.854 -0.9847  1.1215 -1.8710
   56CHL1   H4B 4077   1.650   3.021   6.768  0.1405  1.5771  1.0623
   56CHL1    C5 4078   1.649   2.961   6.972  0.2703  1.2589 -0.1218
   56CHL1    C6 4079   1.525   3.005   6.975  0.5575  0.0376  0.0652
   56CHL1    H6 4080   1.474   3.040   6.884  0.2441 -2.5535 -0.8180
   56CHL1    C7 4081   1.442   3.008   7.102  0.6031 -0.3515 -0.0292
   56CHL1   H7A 4082   1.380   3.099   7.115 -1.7400 -2.0806  1.3677
   56CHL1   H7B 4083   1.365   2.927   7.101 -0.8168  0.9790 -0.8992
   56CHL1    C8 4084   1.530   2.993   7.238  0.2162 -0.8678 -0.4444
   56CHL1    H8 4085   1.570   3.097   7.245 -1.3332 -0.2892  0.0252
   56CHL1   C14 4086   1.442   2.959   7.352 -0.2547 -0.5719 -0.4117
   56CHL1   H14 4087   1.389   2.864   7.331 -0.1038 -0.9124  0.7013
   56CHL1   C15 4088   1.326   3.053   7.384  0.4927  0.6210  0.0106
   56CHL1  H15A 4089   1.355   3.159   7.366 -1.0138  1.0203 -0.1823
   56CHL1  H15B 4090   1.246   3.027   7.311  0.5210 -3.4560  1.3164
   56CHL1   C16 4091   1.290   3.021   7.533 -0.2279  0.8210 -0.4437
   56CHL1  H16A 4092   1.294   3.113   7.595 -0.1317 -0.4671  1.5191
   56CHL1  H16B 4093   1.193   2.967   7.537 -0.3028  1.0589  1.3777
   56CHL1   C17 4094   1.396   2.917   7.580 -0.1806  0.1044 -0.0307
   56CHL1   H17 4095   1.352   2.818   7.553  2.3623 -0.7706 -1.0916
   56CHL1   C13 4096   1.518   2.938   7.487  0.1365  0.6719  0.1281
   56CHL1   C18 4097   1.605   3.054   7.534 -0.1275 -0.2681 -0.6004
   56CHL1  H18A 4098   1.674   3.079   7.451  0.0007  0.8563 -0.1566
   56CHL1  H18B 4099   1.547   3.145   7.559  1.7926  0.5725  0.8984
   56CHL1  H18C 4100   1.680   3.036   7.614 -1.6204  0.7053  1.0314
   56CHL1   C12 4101   1.607   2.815   7.450  0.2751  0.1798 -0.7165
   56CHL1  H12A 4102   1.664   2.779   7.539 -0.6091  1.0181  0.2063
   56CHL1  H12B 4103   1.542   2.732   7.418  0.2444  0.2298 -0.7836
   56CHL1   C11 4104   1.709   2.841   7.338  0.3023 -0.1270 -1.0995
   56CHL1  H11A 4105   1.790   2.906   7.377  0.0954 -0.6963  0.2914
   56CHL1  H11B 4106   1.754   2.743   7.310  2.7528  0.2031  1.4942
   56CHL1    C9 4107   1.633   2.880   7.211  0.4031  0.5517 -0.6357
   56CHL1    H9 4108   1.570   2.790   7.190  1.4119 -0.6728  1.4192
   56CHL1   C10 4109   1.725   2.893   7.087  0.4234 -0.8015  0.5956
   56CHL1   C19 4110   1.848   2.987   7.136 -0.5312  0.3416  0.0236
   56CHL1  H19A 4111   1.902   2.932   7.216 -3.2912 -1.3054  0.8236
   56CHL1  H19B 4112   1.925   3.011   7.060  0.4330  1.1886  1.2537
   56CHL1  H19C 4113   1.802   3.084   7.161 -0.1820  1.0719 -2.1010
   56CHL1    C1 4114   1.774   2.753   7.043  0.8157  0.0996  0.5166
   56CHL1   H1A 4115   1.828   2.705   7.128 -1.0668 -1.6913  0.7407
   56CHL1   H1B 4116   1.694   2.679   7.024  0.1991  0.0883  2.9609
   56CHL1    C2 4117   1.851   2.763   6.916  0.5312 -0.3071 -0.0191
   56CHL1   H2A 4118   1.879   2.664   6.875 -0.8812 -0.7887  0.1276
   56CHL1   H2B 4119   1.945   2.813   6.946 -1.1434  1.1248  3.1380
   56CHL1   C20 4120   1.418   2.928   7.731 -0.0691  0.7742  0.0981
   56CHL1   H20 4121   1.455   3.028   7.762  1.4406 -0.4619  2.4252
   56CHL1   C21 4122   1.528   2.830   7.768  0.1257 -0.2799  0.2231
   56CHL1  H21A 4123   1.547   2.839   7.878 -0.2371 -1.7175  0.4094
   56CHL1  H21B 4124   1.627   2.859   7.725 -0.9800 -0.3500 -2.4557
   56CHL1  H21C 4125   1.504   2.729   7.728 -0.7005  0.3296 -0.8484
   56CHL1   C22 4126   1.283   2.909   7.808 -0.3396  0.0532  0.2393
   56CHL1  H22A 4127   1.203   2.979   7.778 -0.6526 -0.9531 -1.3491
   56CHL1  H22B 4128   1.252   2.804   7.789  1.5208 -0.2259 -1.4271
   56CHL1   C23 4129   1.294   2.913   7.957 -0.2176  0.3714 -0.1040
   56CHL1  H23A 4130   1.386   2.857   7.985 -0.0796 -0.1586 -1.6081
   56CHL1  H23B 4131   1.314   3.018   7.987 -1.1984  0.9832 -1.5673
   56CHL1   C24 4132   1.162   2.872   8.022  0.0737 -0.5766  0.4231
   56CHL1  H24A 4133   1.080   2.932   7.978  1.2747  1.3539  0.7292
   56CHL1  H24B 4134   1.143   2.765   8.001 -0.8457 -0.1273 -1.0472
   56CHL1   C25 4135   1.152   2.895   8.180 -0.9541  0.2747  0.9453
   56CHL1   H25 4136   1.195   2.996   8.201  1.8916 -0.0978 -2.6515
   56CHL1   C26 4137   1.009   2.890   8.229 -0.2643  0.5712  0.3808
   56CHL1  H26A 4138   0.960   2.796   8.198 -1.1167  1.4187 -0.9028
   56CHL1  H26B 4139   0.955   2.974   8.181  0.5836 -0.9971 -3.4362
   56CHL1  H26C 4140   1.006   2.885   8.340 -0.7694  0.4275  0.3605
   56CHL1   C27 4141   1.230   2.790   8.261  0.3274  0.8753 -0.2621
   56CHL1  H27A 4142   1.182   2.691   8.245  1.7975 -0.2717  2.0697
   56CHL1  H27B 4143   1.334   2.791   8.224  0.8289  3.4946  1.1093
   56CHL1  H27C 4144   1.233   2.814   8.370  0.3064 -0.5192  0.0599
   57SAPC     N 4145   1.446   5.835  10.957 -0.0837  0.4025  0.2706
   57SAPC   C12 4146   1.430   5.693  10.901  0.6018 -0.6537  0.0987
   57SAPC  H12A 4147   1.334   5.657  10.937  0.6717 -0.7845  0.1568
   57SAPC  H12B 4148   1.500   5.628  10.951  0.5144 -0.6513  0.2260
   57SAPC   C13 4149   1.328   5.913  10.926 -0.2902 -0.2972 -0.4816
   57SAPC  H13A 4150   1.306   6.000  10.987  0.1598 -0.9841  0.6844
   57SAPC  H13B 4151   1.324   5.945  10.823  0.2329 -0.4300 -0.5478
   57SAPC  H13C 4152   1.247   5.844  10.941 -0.1715  0.3548  3.9001
   57SAPC   C14 4153   1.447   5.839  11.107  0.1949 -0.1239 -0.4623
   57SAPC  H14A 4154   1.469   5.939  11.141 -3.1340  1.0499 -1.4943
   57SAPC  H14B 4155   1.354   5.809  11.154  0.4491  0.6076  0.5245
   57SAPC  H14C 4156   1.535   5.786  11.140  1.4836  2.9065  1.1904
   57SAPC   C15 4157   1.564   5.898  10.904 -0.0329  0.2511  0.0467
   57SAPC  H15A 4158   1.556   5.887  10.797  0.3385 -0.9887  0.1370
   57SAPC  H15B 4159   1.573   6.003  10.931 -1.6359  0.5989 -0.7122
   57SAPC  H15C 4160   1.653   5.845  10.933 -0.3245  1.0635  2.5578
   57SAPC   C11 4161   1.438   5.669  10.751  0.4555  0.2506 -0.3103
   57SAPC  H11A 4162   1.365   5.734  10.696  0.2831  2.3341  2.2840
   57SAPC  H11B 4163   1.405   5.565  10.729  3.0600 -0.5451 -0.6217
   57SAPC     P 4164   1.695   5.616  10.726  0.1039  0.4466 -0.4415
   57SAPC   O13 4165   1.789   5.700  10.807 -0.0923  0.0938  0.2740
   57SAPC   O14 4166   1.666   5.476  10.773 -0.3698  0.4226 -0.2719
   57SAPC   O12 4167   1.564   5.701  10.696  0.4988 -0.4057  0.0305
   57SAPC   O11 4168   1.746   5.609  10.577  0.1829 -0.3953  0.2367
   57SAPC    C1 4169   1.730   5.502  10.487  0.9301  0.1442  0.1772
   57SAPC    HA 4170   1.821   5.438  10.484 -0.3019 -1.6791  1.0716
   57SAPC    HB 4171   1.650   5.437  10.526  1.5202 -0.9205 -0.3701
   57SAPC    C2 4172   1.679   5.557  10.351  0.2647 -0.1147 -0.2178
   57SAPC    HS 4173   1.713   5.488  10.271  0.6791 -1.9625  1.5099
   57SAPC   O21 4174   1.725   5.686  10.322 -0.3798 -0.4720  0.0499
   57SAPC   C21 4175   1.857   5.697  10.318  0.3345 -0.1185  1.1252
   57SAPC   O22 4176   1.938   5.606  10.320 -0.1686 -0.9113  0.0390
   57SAPC   C22 4177   1.900   5.841  10.299  0.8455 -0.0928  0.7527
   57SAPC   H2R 4178   1.926   5.835  10.191  0.1975 -0.2424  0.6026
   57SAPC   H2S 4179   1.810   5.901  10.323 -0.6132 -1.8962 -0.0737
   57SAPC    C3 4180   1.520   5.561  10.344 -0.2829  0.1065  0.0613
   57SAPC    HX 4181   1.480   5.579  10.446 -0.2045 -0.6337  0.2250
   57SAPC    HY 4182   1.486   5.458  10.318 -0.4920  0.6779 -1.9576
   57SAPC   O31 4183   1.451   5.662  10.264  0.5117 -0.0423  0.7077
   57SAPC   C31 4184   1.321   5.639  10.263 -0.1463 -0.3049  0.3592
   57SAPC   O32 4185   1.271   5.545  10.327 -0.0697  0.0476  0.5412
   57SAPC   C32 4186   1.252   5.744  10.174  0.3402  0.6059  0.0989
   57SAPC   H2X 4187   1.298   5.842  10.199 -0.0301  1.0534 -0.9680
   57SAPC   H2Y 4188   1.149   5.754  10.214  0.4183  0.9658  0.2132
   57SAPC   C23 4189   2.011   5.887  10.395  0.4299 -1.5684 -0.2163
   57SAPC   H3R 4190   2.108   5.861  10.347 -0.0303 -0.6570 -1.6783
   57SAPC   H3S 4191   2.005   5.845  10.497  3.6348  2.2245  1.6812
   57SAPC   C24 4192   2.011   6.044  10.416 -0.7222 -0.0161  0.0733
   57SAPC   H4R 4193   1.931   6.065  10.491 -1.9981 -0.6987 -1.0730
   57SAPC   H4S 4194   1.982   6.098  10.324  1.4701  1.5978  0.2781
   57SAPC   C25 4195   2.137   6.103  10.464  0.4125 -0.3444 -0.4388
   57SAPC   H5R 4196   2.137   6.121  10.573 -2.6013  0.6063 -0.5452
   57SAPC   C26 4197   2.255   6.120  10.402 -0.2098  0.1039  0.4698
   57SAPC   H6R 4198   2.337   6.161  10.463 -0.0894 -0.5502  0.7465
   57SAPC   C27 4199   2.280   6.079  10.263 -0.1544  0.3979  0.2602
   57SAPC   H7R 4200   2.248   5.972  10.263 -1.5695  0.8016 -1.0839
   57SAPC   H7S 4201   2.390   6.088  10.254 -0.0700 -1.7352 -1.4097
   57SAPC   C28 4202   2.216   6.171  10.159  0.7151  0.0806  0.3941
   57SAPC   H8R 4203   2.238   6.275  10.186 -1.5006  0.7991 -0.5337
   57SAPC   C29 4204   2.148   6.139  10.045 -0.2665 -0.2480 -0.6364
   57SAPC   H9R 4205   2.099   6.218   9.988  1.1592  0.4663 -0.9106
   57SAPC  C210 4206   2.111   6.000  10.006 -0.5221  0.4992 -0.5489
   57SAPC  H10R 4207   2.006   6.008   9.973 -0.4522  2.6971 -0.3210
   57SAPC  H10S 4208   2.113   5.930  10.091  0.0240  1.8958  0.6198
   57SAPC  C211 4209   2.197   5.952   9.892  0.2430  0.4255  0.0895
   57SAPC  H11R 4210   2.303   5.945   9.919  0.0968  1.5115  1.0009
   57SAPC  C212 4211   2.164   5.926   9.761 -0.6971 -0.1371  0.0917
   57SAPC  H12R 4212   2.244   5.878   9.703  0.7624  0.3194  1.6774
   57SAPC  C213 4213   2.031   5.941   9.698  0.3153  0.3478  0.3961
   57SAPC  H13R 4214   1.954   5.917   9.774 -1.5553 -0.4255 -1.7009
   57SAPC  H13S 4215   2.019   5.863   9.619  0.2432 -0.6155  1.3372
   57SAPC  C214 4216   2.002   6.078   9.656 -0.2417 -0.2484 -0.0242
   57SAPC  H14R 4217   2.069   6.159   9.690  0.1027 -1.1006  1.3646
   57SAPC  C215 4218   1.917   6.106   9.557  0.7028  0.2983 -0.1072
   57SAPC  H15R 4219   1.894   6.212   9.535  0.4690 -0.2954 -2.9142
   57SAPC  C216 4220   1.827   6.011   9.488  0.0757  0.3289  0.0069
   57SAPC  H16R 4221   1.730   6.059   9.465 -1.2269 -1.6938  1.0742
   57SAPC  H16S 4222   1.816   5.917   9.546 -2.3737  0.8818  0.4784
   57SAPC  C217 4223   1.895   5.960   9.359 -0.4841  0.2233 -0.8132
   57SAPC  H17R 4224   1.975   5.891   9.394 -1.7593 -0.2078  1.3752
   57SAPC  H17S 4225   1.940   6.047   9.305  1.3556 -0.1383  0.0935
   57SAPC  C218 4226   1.799   5.878   9.266 -0.5005  0.0980  0.3043
   57SAPC  H18R 4227   1.739   5.813   9.332  1.0505 -0.3449  1.3138
   57SAPC  H18S 4228   1.863   5.810   9.206  1.0250  1.6934  0.0767
   57SAPC  C219 4229   1.713   5.955   9.170  0.8898  0.5813  0.6282
   57SAPC  H19R 4230   1.763   6.026   9.100 -0.2049  1.9592  1.2010
   57SAPC  H19S 4231   1.648   6.018   9.235 -0.7355 -0.6268  0.1780
   57SAPC  C220 4232   1.628   5.855   9.087 -0.4614  0.0860  0.1552
   57SAPC  H20R 4233   1.552   5.800   9.147 -0.4058  1.0578  1.1344
   57SAPC  H20S 4234   1.687   5.786   9.023  0.9641  2.2185 -0.8889
   57SAPC  H20T 4235   1.578   5.919   9.011  0.7168  2.6772  1.4924
   57SAPC   C33 4236   1.249   5.696  10.026 -0.5889  0.9634 -0.1039
   57SAPC   H3X 4237   1.183   5.607  10.025 -0.4720  0.8434  1.2505
   57SAPC   H3Y 4238   1.345   5.663   9.983 -1.4440  0.0436 -1.3484
   57SAPC   C34 4239   1.199   5.806   9.924 -0.0411 -0.0559  0.4702
   57SAPC   H4X 4240   1.264   5.896   9.929 -1.5387  1.0988 -0.5371
   57SAPC   H4Y 4241   1.094   5.824   9.956 -0.1155  0.8328 -0.2596
   57SAPC   C35 4242   1.212   5.746   9.785  0.3765  0.5507 -0.5269
   57SAPC   H5X 4243   1.139   5.664   9.763  0.7717  0.4145 -1.3431
   57SAPC   H5Y 4244   1.312   5.704   9.764  1.0758  2.1592 -0.4413
   57SAPC   C36 4245   1.180   5.857   9.684 -0.2927  0.2524 -0.0502
   57SAPC   H6X 4246   1.257   5.936   9.699 -0.3510  0.2042  0.4962
   57SAPC   H6Y 4247   1.076   5.891   9.703 -1.0813 -2.1241 -0.0290
   57SAPC   C37 4248   1.204   5.802   9.538  0.2673  0.0029  0.0558
   57SAPC   H7X 4249   1.132   5.721   9.513  0.0155 -0.0473  0.9169
   57SAPC   H7Y 4250   1.308   5.762   9.539  0.1347 -0.3428 -0.0324
   57SAPC   C38 4251   1.193   5.913   9.433 -0.6635  0.4601 -0.1414
   57SAPC   H8X 4252   1.254   5.999   9.466  1.4241 -0.5160 -1.3661
   57SAPC   H8Y 4253   1.087   5.948   9.428 -0.6513  0.5398  0.2047
   57SAPC   C39 4254   1.221   5.862   9.294 -0.1664 -0.3649 -0.8633
   57SAPC   H9X 4255   1.153   5.777   9.270 -2.5403  0.7277  1.6360
   57SAPC   H9Y 4256   1.324   5.824   9.279  0.0654  0.0658 -0.3861
   57SAPC  C310 4257   1.184   5.964   9.187  0.1813 -0.4582  0.3861
   57SAPC  H10X 4258   1.251   6.053   9.192 -2.0536  1.2011  1.8038
   57SAPC  H10Y 4259   1.079   6.001   9.194  1.1943  2.4922  0.5464
   57SAPC  C311 4260   1.207   5.906   9.050 -0.2473  0.7200  0.6817
   57SAPC  H11X 4261   1.141   5.819   9.031 -2.3294  2.4797 -0.5249
   57SAPC  H11Y 4262   1.312   5.870   9.045  0.3398  2.2536  1.4142
   57SAPC  C312 4263   1.189   6.008   8.933  0.2348  0.4191 -0.0338
   57SAPC  H12X 4264   1.248   6.096   8.968 -0.2974 -0.3547  2.8550
   57SAPC  H12Y 4265   1.083   6.042   8.937 -0.3473 -1.1932 -1.2520
   57SAPC  C313 4266   1.224   5.956   8.796 -0.0157  0.2232  0.8948
   57SAPC  H13X 4267   1.211   6.033   8.717 -3.5828 -0.3646  0.8417
   57SAPC  H13Y 4268   1.157   5.872   8.771 -0.0607  0.5395 -0.0791
   57SAPC  C314 4269   1.366   5.906   8.781 -0.7268 -0.4620  0.3904
   57SAPC  H14X 4270   1.362   5.816   8.846  0.9575 -0.8251  0.0162
   57SAPC  H14Y 4271   1.439   5.978   8.823  0.1754  0.0347 -1.9831
   57SAPC  C315 4272   1.393   5.861   8.636 -0.0259 -0.1316  0.7681
   57SAPC  H15X 4273   1.379   5.950   8.570 -0.1854  0.2293  1.2820
   57SAPC  H15Y 4274   1.315   5.788   8.606  0.2845 -0.3812  0.5674
   57SAPC  C316 4275   1.525   5.792   8.610  0.3088 -0.7055 -0.0412
   57SAPC  H16X 4276   1.538   5.751   8.507  0.6326 -0.4278 -0.1115
   57SAPC  H16Y 4277   1.514   5.703   8.676  0.6341 -0.8653 -0.1998
   57SAPC  C317 4278   1.650   5.876   8.648  0.3983  0.1886 -0.0455
   57SAPC  H17X 4279   1.650   5.918   8.751  1.3106  0.1691 -0.0255
   57SAPC  H17Y 4280   1.652   5.960   8.574  3.6439 -1.0811 -1.5381
   57SAPC  C318 4281   1.765   5.780   8.628  0.7206 -0.6329  0.5333
   57SAPC  H18X 4282   1.786   5.753   8.523 -3.4644  1.2020 -0.8689
   57SAPC  H18Y 4283   1.746   5.691   8.692  1.1801  0.1346  1.7666
   57SAPC  H18Z 4284   1.855   5.826   8.674  1.0101  2.5135 -2.9826
   58SAPC     N 4285   3.734   3.332  10.867  0.1627 -0.7943  0.5071
   58SAPC   C12 4286   3.746   3.298  10.722  0.1923  0.4449  0.1287
   58SAPC  H12A 4287   3.797   3.376  10.666  0.0852 -0.5359 -1.3750
   58SAPC  H12B 4288   3.647   3.279  10.685 -0.7341  2.3649  1.5111
   58SAPC   C13 4289   3.870   3.355  10.928 -0.0902  0.2296  0.2551
   58SAPC  H13A 4290   3.873   3.355  11.036  1.7996 -0.8651  0.2225
   58SAPC  H13B 4291   3.931   3.271  10.899  1.0782  0.3990  2.1177
   58SAPC  H13C 4292   3.910   3.445  10.884  1.0665 -0.3823  0.0429
   58SAPC   C14 4293   3.648   3.452  10.893 -0.5218 -0.6050 -0.2741
   58SAPC  H14A 4294   3.657   3.540  10.831  1.0781  1.6926  3.1131
   58SAPC  H14B 4295   3.545   3.423  10.876 -1.4214  1.3491  1.6066
   58SAPC  H14C 4296   3.658   3.469  10.999  0.4359 -1.5159 -0.2083
   58SAPC   C15 4297   3.670   3.216  10.935 -0.5582 -0.4747  0.1509
   58SAPC  H15A 4298   3.703   3.225  11.038  3.8514 -5.6971 -0.5356
   58SAPC  H15B 4299   3.563   3.202  10.930 -0.3235 -1.6918 -2.3696
   58SAPC  H15C 4300   3.725   3.127  10.907  0.3478  0.1793 -0.1652
   58SAPC   C11 4301   3.836   3.174  10.682 -0.0178 -0.1150 -0.2825
   58SAPC  H11A 4302   3.801   3.144  10.581 -1.3298  0.2188  0.0593
   58SAPC  H11B 4303   3.805   3.086  10.743  1.7793 -0.6059 -0.0358
   58SAPC     P 4304   4.055   3.261  10.569 -0.3973 -0.0003  0.5282
   58SAPC   O13 4305   4.198   3.274  10.602  0.0577 -0.0728  0.3909
   58SAPC   O14 4306   4.020   3.189  10.437 -0.8231 -0.4520 -0.2081
   58SAPC   O12 4307   3.983   3.191  10.693  0.1876 -0.6018  0.1262
   58SAPC   O11 4308   3.990   3.403  10.575  0.7770 -0.3280 -0.1777
   58SAPC    C1 4309   3.931   3.457  10.450 -0.1156  0.0371  0.4590
   58SAPC    HA 4310   3.877   3.379  10.393  0.8062 -0.2732  0.0026
   58SAPC    HB 4311   3.856   3.534  10.478 -0.9863 -0.4734 -0.4572
   58SAPC    C2 4312   4.034   3.521  10.353  0.1266 -0.7456 -0.6443
   58SAPC    HS 4313   4.118   3.456  10.320  0.5786 -0.2953 -0.3926
   58SAPC   O21 4314   4.095   3.637  10.413 -0.3261 -0.2247 -0.9527
   58SAPC   C21 4315   4.213   3.675  10.356  0.0664  0.3481  0.0891
   58SAPC   O22 4316   4.278   3.610  10.280  0.4755  0.8783  0.2063
   58SAPC   C22 4317   4.250   3.815  10.406 -0.1324  0.9084  0.0785
   58SAPC   H2R 4318   4.160   3.880  10.409 -2.2166 -1.8840 -0.3666
   58SAPC   H2S 4319   4.295   3.795  10.506 -2.3102 -1.7307  0.5931
   58SAPC    C3 4320   3.961   3.574  10.224  0.5053  0.3244 -0.5680
   58SAPC    HX 4321   4.029   3.645  10.171 -0.0442  0.3852 -1.2013
   58SAPC    HY 4322   3.876   3.640  10.252 -1.1293 -1.3892 -1.3465
   58SAPC   O31 4323   3.924   3.461  10.137 -0.2144 -0.0279  0.0441
   58SAPC   C31 4324   3.869   3.489  10.021  0.0095  0.0422 -0.5067
   58SAPC   O32 4325   3.858   3.599   9.969 -0.2824 -0.7323 -0.4040
   58SAPC   C32 4326   3.807   3.359   9.971 -0.3842  0.0077 -0.1160
   58SAPC   H2X 4327   3.706   3.347  10.017  0.7987 -0.8133  2.3275
   58SAPC   H2Y 4328   3.861   3.271  10.012 -1.9033  0.0468  2.0573
   58SAPC   C23 4329   4.351   3.894  10.312  0.1996  0.3587  0.2077
   58SAPC   H3R 4330   4.447   3.840  10.303 -1.3544 -1.9311 -3.8736
   58SAPC   H3S 4331   4.372   3.992  10.359 -0.8699  0.8620 -0.3420
   58SAPC   C24 4332   4.301   3.902  10.164  0.3203  0.1277  0.4244
   58SAPC   H4R 4333   4.295   3.799  10.123  1.1854 -0.2896  1.2896
   58SAPC   H4S 4334   4.377   3.957  10.105  1.9924 -2.9966 -0.4366
   58SAPC   C25 4335   4.178   3.974  10.120 -0.1391  0.2796  0.1916
   58SAPC   H5R 4336   4.139   4.046  10.193 -2.0389  0.1236 -0.6443
   58SAPC   C26 4337   4.101   3.951  10.011  0.1122 -0.5894 -0.3685
   58SAPC   H6R 4338   4.005   4.005  10.006  0.3402 -0.0592  0.7891
   58SAPC   C27 4339   4.118   3.859   9.895 -0.0802 -0.1969 -0.6375
   58SAPC   H7R 4340   4.023   3.849   9.838 -0.3011 -1.5842 -0.0660
   58SAPC   H7S 4341   4.138   3.758   9.938 -0.3553 -0.3791 -0.9306
   58SAPC   C28 4342   4.226   3.893   9.798 -0.5499  0.1643 -0.0522
   58SAPC   H8R 4343   4.326   3.893   9.843 -0.4244 -1.4253 -0.2823
   58SAPC   C29 4344   4.213   3.933   9.670  0.5030  0.0578 -0.2425
   58SAPC   H9R 4345   4.306   3.954   9.615  0.1998 -1.6219 -1.4382
   58SAPC  C210 4346   4.087   3.952   9.591  0.0555  1.2645  0.0781
   58SAPC  H10R 4347   4.088   4.042   9.525  0.7463 -0.1361 -1.8917
   58SAPC  H10S 4348   4.012   3.966   9.671 -1.0876 -2.4672 -0.2191
   58SAPC  C211 4349   4.037   3.827   9.513  0.2371  0.1636 -0.0846
   58SAPC  H11R 4350   4.050   3.732   9.566  1.4029  0.8299  0.8611
   58SAPC  C212 4351   3.994   3.814   9.387 -0.2642  0.0093  0.0052
   58SAPC  H12R 4352   3.952   3.716   9.359 -2.1047  1.3220 -2.0178
   58SAPC  C213 4353   3.987   3.916   9.274 -0.1053 -0.2309 -0.9984
   58SAPC  H13R 4354   4.055   3.881   9.193 -1.3616 -2.7691 -1.0179
   58SAPC  H13S 4355   4.023   4.014   9.313  1.2954 -1.5801  1.2283
   58SAPC  C214 4356   3.855   3.943   9.217  0.7935  0.3095 -0.3752
   58SAPC  H14R 4357   3.793   4.016   9.271 -0.7468 -1.7354  0.6882
   58SAPC  C215 4358   3.796   3.879   9.109  0.1370 -0.3705 -1.1415
   58SAPC  H15R 4359   3.688   3.889   9.091 -0.5344  0.9312  2.9717
   58SAPC  C216 4360   3.855   3.767   9.035 -0.5645  0.0016 -0.3188
   58SAPC  H16R 4361   3.785   3.686   9.006 -0.7643  0.7187 -1.9141
   58SAPC  H16S 4362   3.937   3.714   9.088  0.9291  2.1454 -0.4152
   58SAPC  C217 4363   3.924   3.816   8.910 -0.7947 -1.1030 -0.2505
   58SAPC  H17R 4364   3.963   3.724   8.861  2.0327 -1.9725  3.3533
   58SAPC  H17S 4365   4.011   3.882   8.932 -1.4298 -0.3576  0.0182
   58SAPC  C218 4366   3.834   3.876   8.797  0.2625 -0.1985  0.2220
   58SAPC  H18R 4367   3.894   3.904   8.708 -2.3570 -1.2591 -1.9403
   58SAPC  H18S 4368   3.775   3.963   8.833  0.1619 -0.1299 -0.1069
   58SAPC  C219 4369   3.726   3.775   8.750  0.1919 -0.0808  0.4813
   58SAPC  H19R 4370   3.645   3.827   8.696 -1.6538  1.6601  4.6687
   58SAPC  H19S 4371   3.676   3.724   8.835  3.3632 -0.2519  2.3240
   58SAPC  C220 4372   3.781   3.683   8.643 -0.6081  0.2976  0.0632
   58SAPC  H20R 4373   3.856   3.620   8.696  0.3607  1.2027 -0.2161
   58SAPC  H20S 4374   3.826   3.732   8.554  1.7409 -0.0203  1.0604
   58SAPC  H20T 4375   3.695   3.626   8.602 -1.3361  0.4888  1.3077
   58SAPC   C33 4376   3.783   3.352   9.818 -0.4601  0.2258  0.4312
   58SAPC   H3X 4377   3.729   3.447   9.799  0.9913  1.6677  3.1820
   58SAPC   H3Y 4378   3.718   3.270   9.781  3.2742 -1.7466 -2.1881
   58SAPC   C34 4379   3.902   3.359   9.723  0.0623  0.7162 -0.1383
   58SAPC   H4X 4380   3.963   3.270   9.749 -2.0546 -0.2757  1.5599
   58SAPC   H4Y 4381   3.977   3.440   9.741  1.3589 -0.7849  1.4211
   58SAPC   C35 4382   3.869   3.335   9.572  0.3287  0.2266 -0.5277
   58SAPC   H5X 4383   3.807   3.242   9.568 -0.3348  0.6820 -0.9551
   58SAPC   H5Y 4384   3.962   3.335   9.512  0.6259  0.0994 -0.0753
   58SAPC   C36 4385   3.793   3.453   9.501  0.2472  0.7296 -0.4351
   58SAPC   H6X 4386   3.849   3.549   9.498  0.5616  0.5374 -0.8604
   58SAPC   H6Y 4387   3.695   3.467   9.552  0.2783 -3.1359  0.8616
   58SAPC   C37 4388   3.767   3.419   9.347  0.4242 -0.2625  0.0122
   58SAPC   H7X 4389   3.732   3.314   9.337 -1.5167  0.1963  1.5652
   58SAPC   H7Y 4390   3.861   3.447   9.295  0.6848  1.6129  1.4364
   58SAPC   C38 4391   3.656   3.504   9.279 -0.0431  0.7922  0.3937
   58SAPC   H8X 4392   3.681   3.612   9.270  0.2331  0.6546 -0.6044
   58SAPC   H8Y 4393   3.560   3.492   9.334  0.6506 -0.5278  1.3486
   58SAPC   C39 4394   3.635   3.443   9.140 -0.0073  0.9452  0.3054
   58SAPC   H9X 4395   3.602   3.338   9.151  1.9019  0.1016 -1.7554
   58SAPC   H9Y 4396   3.737   3.431   9.097 -1.0721  0.8241 -2.2485
   58SAPC  C310 4397   3.551   3.525   9.044 -0.2795  0.7624 -0.1591
   58SAPC  H10X 4398   3.582   3.631   9.043  2.2244  0.0624  0.7938
   58SAPC  H10Y 4399   3.448   3.524   9.086  0.5456 -0.9778  1.9342
   58SAPC  C311 4400   3.561   3.470   8.904  0.3785  0.6183  0.3075
   58SAPC  H11X 4401   3.550   3.363   8.930  0.8396  0.7198  0.9314
   58SAPC  H11Y 4402   3.655   3.478   8.844  1.0240 -0.2436  1.2007
   58SAPC  C312 4403   3.444   3.515   8.817 -0.8738 -0.1716 -0.4778
   58SAPC  H12X 4404   3.459   3.478   8.713 -0.1379  3.2114 -1.6397
   58SAPC  H12Y 4405   3.450   3.625   8.808  0.4192 -0.3356 -1.7522
   58SAPC  C313 4406   3.300   3.465   8.863 -0.1970 -0.4415 -0.3726
   58SAPC  H13X 4407   3.289   3.533   8.950  3.5068  2.1795 -1.8153
   58SAPC  H13Y 4408   3.318   3.369   8.916 -1.2612  0.1010  0.9961
   58SAPC  C314 4409   3.195   3.486   8.751  0.1708 -0.1753  0.1218
   58SAPC  H14X 4410   3.207   3.588   8.707 -0.8776 -1.1672 -2.5242
   58SAPC  H14Y 4411   3.098   3.489   8.805  1.0472 -1.4100  1.8041
   58SAPC  C315 4412   3.185   3.375   8.660 -0.3374 -0.2369 -0.4408
   58SAPC  H15X 4413   3.171   3.273   8.701  0.2484 -1.5347 -3.3279
   58SAPC  H15Y 4414   3.280   3.380   8.602  1.3167 -1.2277  2.0961
   58SAPC  C316 4415   3.053   3.400   8.568 -0.5488  0.3135 -0.1752
   58SAPC  H16X 4416   2.970   3.431   8.636 -0.3417  0.8282 -0.1517
   58SAPC  H16Y 4417   3.031   3.314   8.502  0.8705 -0.3404  0.2002
   58SAPC  C317 4418   3.086   3.519   8.467  0.1072 -0.3260 -0.7677
   58SAPC  H17X 4419   3.189   3.501   8.431  0.1112 -2.8186  0.3648
   58SAPC  H17Y 4420   3.071   3.619   8.514 -0.8517  0.3820 -2.5209
   58SAPC  C318 4421   2.983   3.524   8.347 -0.1576  0.4112 -0.2999
   58SAPC  H18X 4422   2.905   3.599   8.372  0.8898  0.7433  2.0569
   58SAPC  H18Y 4423   2.940   3.422   8.336 -1.3237  0.6340  1.8762
   58SAPC  H18Z 4424   3.036   3.566   8.259 -0.2931  0.8625 -0.1649
   59SAPC     N 4425   5.019   5.315  11.414 -0.3122  0.2144  0.7568
   59SAPC   C12 4426   5.158   5.312  11.347 -0.4360  0.3757 -0.3299
   59SAPC  H12A 4427   5.177   5.220  11.293 -0.0644 -0.5131  1.2698
   59SAPC  H12B 4428   5.232   5.305  11.425 -1.3890  0.5394  0.5976
   59SAPC   C13 4429   4.983   5.171  11.458  0.4803  0.3401 -0.5751
   59SAPC  H13A 4430   5.018   5.152  11.558 -1.8512  0.0087  0.1946
   59SAPC  H13B 4431   4.877   5.152  11.454  0.6481 -0.5060 -1.3161
   59SAPC  H13C 4432   5.035   5.099  11.396  3.0633 -0.6726  2.5953
   59SAPC   C14 4433   5.030   5.396  11.540  0.8752 -0.5413  0.2049
   59SAPC  H14A 4434   4.929   5.407  11.577  1.4363 -2.0627  2.2708
   59SAPC  H14B 4435   5.086   5.339  11.612 -0.7225 -0.5015  1.4956
   59SAPC  H14C 4436   5.066   5.495  11.514  0.8394 -0.1474  1.6269
   59SAPC   C15 4437   4.920   5.377  11.323 -0.6819  0.7537  0.9709
   59SAPC  H15A 4438   4.858   5.451  11.372  0.5674  1.5035  1.4268
   59SAPC  H15B 4439   4.967   5.435  11.245 -1.7092  3.6413  2.4335
   59SAPC  H15C 4440   4.860   5.304  11.271 -1.6699  1.1303  1.5703
   59SAPC   C11 4441   5.197   5.420  11.248 -0.0946 -0.3534 -0.2764
   59SAPC  H11A 4442   5.307   5.431  11.244  0.2354 -2.5748  1.4427
   59SAPC  H11B 4443   5.161   5.518  11.285 -0.9349 -1.1620  1.0994
   59SAPC     P 4444   5.213   5.265  11.037 -0.0775  0.5432  0.2418
   59SAPC   O13 4445   5.225   5.139  11.115 -0.2712  0.0810  0.3736
   59SAPC   O14 4446   5.141   5.243  10.906 -0.0982 -0.2574 -0.2820
   59SAPC   O12 4447   5.153   5.395  11.114  0.2858 -0.0782  0.1009
   59SAPC   O11 4448   5.356   5.317  10.995 -0.3820  0.1678  0.4053
   59SAPC    C1 4449   5.373   5.437  10.914 -0.5563  1.0482  0.2613
   59SAPC    HA 4450   5.295   5.513  10.934 -3.1664 -0.8504 -2.1709
   59SAPC    HB 4451   5.465   5.486  10.952  0.1616  0.4598 -0.7044
   59SAPC    C2 4452   5.389   5.407  10.764  0.8650 -0.4734  0.3683
   59SAPC    HS 4453   5.305   5.343  10.731  1.6575 -0.8000 -1.0949
   59SAPC   O21 4454   5.511   5.335  10.742 -0.7223  0.5791 -0.1798
   59SAPC   C21 4455   5.505   5.250  10.645  0.1777  0.3715 -0.3112
   59SAPC   O22 4456   5.410   5.223  10.572 -0.5308 -0.0327 -0.5700
   59SAPC   C22 4457   5.638   5.186  10.634 -0.1531  0.3951 -0.0329
   59SAPC   H2R 4458   5.659   5.142  10.733 -2.2436 -0.7858 -0.0731
   59SAPC   H2S 4459   5.634   5.107  10.556  0.0779  0.8578 -0.5160
   59SAPC    C3 4460   5.400   5.535  10.674  0.0572 -0.1475  1.2509
   59SAPC    HX 4461   5.482   5.600  10.712 -0.4801  0.2775  1.6978
   59SAPC    HY 4462   5.321   5.613  10.676  0.7056  0.5504  0.1656
   59SAPC   O31 4463   5.426   5.509  10.535 -0.1706  0.2258  0.1033
   59SAPC   C31 4464   5.323   5.498  10.452 -0.0633 -0.5996  0.4023
   59SAPC   O32 4465   5.207   5.527  10.484  0.4258 -0.9952  0.6011
   59SAPC   C32 4466   5.372   5.451  10.314  0.1076 -0.0987 -0.1525
   59SAPC   H2X 4467   5.399   5.343  10.314 -1.7066 -0.5955  1.5759
   59SAPC   H2Y 4468   5.472   5.498  10.307  0.2665 -0.3413  0.4706
   59SAPC   C23 4469   5.740   5.285  10.579  0.0426 -0.1252  0.0235
   59SAPC   H3R 4470   5.840   5.236  10.577 -0.3099 -0.9131  1.1412
   59SAPC   H3S 4471   5.738   5.376  10.642 -1.0131  1.2413 -1.9523
   59SAPC   C24 4472   5.717   5.328  10.436 -0.2371  0.0883 -0.8866
   59SAPC   H4R 4473   5.622   5.385  10.428 -0.1767  0.4069  0.4680
   59SAPC   H4S 4474   5.691   5.235  10.380  0.6207 -2.0027  2.0223
   59SAPC   C25 4475   5.836   5.406  10.380  0.1999  0.5933 -0.3014
   59SAPC   H5R 4476   5.878   5.480  10.451 -0.0637  0.5007 -0.0465
   59SAPC   C26 4477   5.896   5.392  10.262  0.0178 -0.6014  0.5441
   59SAPC   H6R 4478   5.977   5.462  10.233 -0.0003 -0.5148  0.7039
   59SAPC   C27 4479   5.859   5.293  10.154  0.0935 -0.1193  0.1633
   59SAPC   H7R 4480   5.807   5.201  10.189 -0.8349  0.8519  1.3417
   59SAPC   H7S 4481   5.957   5.257  10.114  0.1343  0.9520 -0.7141
   59SAPC   C28 4482   5.773   5.344  10.044  0.1006  0.3769  0.4917
   59SAPC   H8R 4483   5.674   5.384  10.069  1.4179  4.5555 -0.6351
   59SAPC   C29 4484   5.796   5.333   9.906 -0.0646 -0.5322 -0.1592
   59SAPC   H9R 4485   5.726   5.379   9.834  2.4092  1.0779 -1.5847
   59SAPC  C210 4486   5.921   5.281   9.838 -0.2007  0.4397  0.7084
   59SAPC  H10R 4487   5.888   5.191   9.781  1.0849  1.0358 -1.0136
   59SAPC  H10S 4488   5.992   5.244   9.916  2.5462 -0.7214 -2.2270
   59SAPC  C211 4489   5.982   5.387   9.755 -0.1359  0.1616  0.0661
   59SAPC  H11R 4490   6.037   5.464   9.812 -0.4987  0.8421 -0.4929
   59SAPC  C212 4491   5.973   5.414   9.626 -0.1174 -0.1116 -0.2352
   59SAPC  H12R 4492   6.041   5.491   9.587 -2.5979  2.3968  0.2119
   59SAPC  C213 4493   5.893   5.341   9.523 -0.3057  1.6111 -0.8201
   59SAPC  H13R 4494   5.882   5.233   9.546 -1.3561  2.1748  1.4608
   59SAPC  H13S 4495   5.943   5.331   9.424  1.0039  1.1224 -0.1070
   59SAPC  C214 4496   5.759   5.406   9.510  0.2951 -0.1614 -0.3182
   59SAPC  H14R 4497   5.711   5.420   9.608  2.5260  1.5879  0.5840
   59SAPC  C215 4498   5.710   5.468   9.400  0.5103 -0.4933 -0.2774
   59SAPC  H15R 4499   5.611   5.517   9.405  1.1127  0.6541  0.6757
   59SAPC  C216 4500   5.772   5.493   9.263  0.1039 -0.1801 -0.0547
   59SAPC  H16R 4501   5.879   5.465   9.259  0.1730  0.1329 -0.4725
   59SAPC  H16S 4502   5.771   5.601   9.238 -0.3402 -0.0698  0.4424
   59SAPC  C217 4503   5.683   5.409   9.169  0.0256  0.3094  0.6668
   59SAPC  H17R 4504   5.573   5.423   9.167 -0.1506 -1.1678 -1.5521
   59SAPC  H17S 4505   5.692   5.301   9.193  2.2123  0.4713  0.6984
   59SAPC  C218 4506   5.743   5.413   9.020 -0.2757  0.1759 -0.0154
   59SAPC  H18R 4507   5.854   5.417   9.016 -0.2744  0.9829  0.7799
   59SAPC  H18S 4508   5.696   5.502   8.973 -1.4375 -0.5816 -0.2959
   59SAPC  C219 4509   5.708   5.285   8.939 -0.2718  0.4455  0.1767
   59SAPC  H19R 4510   5.601   5.263   8.955 -0.1913 -0.8941 -1.0753
   59SAPC  H19S 4511   5.764   5.201   8.986 -1.0433 -0.1488  0.0238
   59SAPC  C220 4512   5.725   5.290   8.788  0.3207 -0.4401 -0.2067
   59SAPC  H20R 4513   5.657   5.371   8.753  1.2238  0.2296 -0.4208
   59SAPC  H20S 4514   5.688   5.193   8.748 -0.8791  0.1375 -0.5140
   59SAPC  H20T 4515   5.824   5.315   8.745  0.5931 -2.0637 -0.5630
   59SAPC   C33 4516   5.284   5.480  10.194  0.1546 -0.0089 -0.2684
   59SAPC   H3X 4517   5.298   5.590  10.181 -1.3822  0.2478  0.1844
   59SAPC   H3Y 4518   5.177   5.460  10.213  0.3159 -0.8819 -0.2757
   59SAPC   C34 4519   5.314   5.395  10.064 -0.4406 -0.2360 -0.6390
   59SAPC   H4X 4520   5.296   5.287  10.078 -1.1039 -0.3224 -1.9923
   59SAPC   H4Y 4521   5.423   5.394  10.043 -0.1004 -1.3828  1.1203
   59SAPC   C35 4522   5.256   5.448   9.940  0.0944 -0.9663 -0.1444
   59SAPC   H5X 4523   5.294   5.549   9.914  1.1890 -1.4068 -0.2738
   59SAPC   H5Y 4524   5.146   5.463   9.943  0.3677  1.0088  0.9423
   59SAPC   C36 4525   5.280   5.365   9.805  0.9341 -0.4512 -0.2680
   59SAPC   H6X 4526   5.242   5.261   9.813  1.1979 -0.4892  0.5142
   59SAPC   H6Y 4527   5.391   5.370   9.801  1.0823 -0.3063  2.8973
   59SAPC   C37 4528   5.217   5.434   9.682  0.0197 -1.1689  0.1248
   59SAPC   H7X 4529   5.246   5.540   9.668  0.8404 -1.5058 -0.7776
   59SAPC   H7Y 4530   5.106   5.437   9.692 -0.1715 -2.6488 -1.3245
   59SAPC   C38 4531   5.255   5.360   9.548 -0.0443 -0.1664 -0.1904
   59SAPC   H8X 4532   5.190   5.270   9.555  0.2282 -0.6579 -3.3618
   59SAPC   H8Y 4533   5.359   5.321   9.560  0.5349  1.3654 -0.1143
   59SAPC   C39 4534   5.224   5.439   9.427 -0.1968 -0.9281 -0.4022
   59SAPC   H9X 4535   5.275   5.538   9.426 -1.0528 -0.4732 -0.0997
   59SAPC   H9Y 4536   5.117   5.469   9.426  0.4797  1.6629 -0.3022
   59SAPC  C310 4537   5.270   5.372   9.297 -0.5590 -0.2555 -0.1537
   59SAPC  H10X 4538   5.191   5.294   9.289 -0.1998 -0.8107  1.5682
   59SAPC  H10Y 4539   5.374   5.336   9.312 -0.6832  0.2000  1.9576
   59SAPC  C311 4540   5.261   5.474   9.180  1.0579 -0.6508  0.2090
   59SAPC  H11X 4541   5.331   5.559   9.196 -0.0937  0.1209  1.2153
   59SAPC  H11Y 4542   5.161   5.521   9.190  1.2048  0.3834 -2.7797
   59SAPC  C312 4543   5.280   5.402   9.046 -0.0661 -0.1188  0.5555
   59SAPC  H12X 4544   5.232   5.303   9.058  3.6703 -2.2042 -1.1321
   59SAPC  H12Y 4545   5.390   5.407   9.036 -0.0570  0.5992  0.9215
   59SAPC  C313 4546   5.208   5.469   8.923 -0.3031 -0.0632 -0.2675
   59SAPC  H13X 4547   5.251   5.570   8.904  2.0255 -0.4980  2.4951
   59SAPC  H13Y 4548   5.101   5.490   8.941 -0.2778 -0.6828  0.6258
   59SAPC  C314 4549   5.203   5.380   8.798 -0.4311 -0.0840 -1.2649
   59SAPC  H14X 4550   5.117   5.311   8.812  0.4726 -1.2726 -1.4945
   59SAPC  H14Y 4551   5.294   5.317   8.803  0.0307  0.5513 -1.5742
   59SAPC  C315 4552   5.175   5.458   8.673  0.1345 -0.1238 -0.1824
   59SAPC  H15X 4553   5.164   5.384   8.590 -1.0514 -0.1910  0.0225
   59SAPC  H15Y 4554   5.262   5.522   8.648  0.5053 -0.2553  0.7803
   59SAPC  C316 4555   5.044   5.545   8.662  0.2417 -0.5488  0.0483
   59SAPC  H16X 4556   5.055   5.623   8.740 -1.8142 -1.7937  1.6778
   59SAPC  H16Y 4557   4.960   5.478   8.691  0.3192  0.0002  1.5657
   59SAPC  C317 4558   5.045   5.618   8.517 -0.1005 -0.3114  0.3956
   59SAPC  H17X 4559   5.068   5.537   8.444  1.5312  1.8834 -1.5960
   59SAPC  H17Y 4560   5.134   5.684   8.519 -0.6781  0.4353  1.3087
   59SAPC  C318 4561   4.918   5.692   8.477 -0.5465  0.2091 -0.2535
   59SAPC  H18X 4562   4.889   5.771   8.550  0.0493 -1.3973  1.7471
   59SAPC  H18Y 4563   4.845   5.608   8.480 -0.9294  0.5425 -0.1867
   59SAPC  H18Z 4564   4.936   5.720   8.371 -0.7370  0.5953 -0.1858
   60SAPC     N 4565   6.379   4.126  11.043 -0.0158 -0.1137 -0.2333
   60SAPC   C12 4566   6.460   4.157  10.916 -0.3580  0.2489  0.3740
   60SAPC  H12A 4567   6.560   4.122  10.937 -0.0222  0.9639 -0.0041
   60SAPC  H12B 4568   6.471   4.262  10.894  0.6831  0.0244 -0.1994
   60SAPC   C13 4569   6.250   4.194  11.033  0.2673 -0.2775  0.1216
   60SAPC  H13A 4570   6.192   4.186  11.124 -0.9121  0.1247 -0.5789
   60SAPC  H13B 4571   6.262   4.298  11.007 -1.2060 -0.1366 -0.0694
   60SAPC  H13C 4572   6.187   4.149  10.958  1.4737  1.9620 -2.3153
   60SAPC   C14 4573   6.363   3.979  11.054  0.4513  0.1191 -0.3053
   60SAPC  H14A 4574   6.295   3.954  11.134 -1.0768 -2.7394 -2.4009
   60SAPC  H14B 4575   6.312   3.953  10.963  0.2515  0.8719 -0.4071
   60SAPC  H14C 4576   6.457   3.926  11.060  0.4662 -0.0205 -1.6540
   60SAPC   C15 4577   6.454   4.180  11.165 -0.4781 -0.5216  0.8240
   60SAPC  H15A 4578   6.392   4.178  11.254 -1.1826  2.0408  0.4387
   60SAPC  H15B 4579   6.532   4.114  11.201  0.8529 -0.2638 -1.4880
   60SAPC  H15C 4580   6.488   4.280  11.140 -1.6295 -0.3239  0.0460
   60SAPC   C11 4581   6.407   4.092  10.786  1.0083  0.4177  0.9393
   60SAPC  H11A 4582   6.430   3.983  10.790  0.4539  0.2982  0.8754
   60SAPC  H11B 4583   6.475   4.136  10.710 -1.0261  2.9648  0.5148
   60SAPC     P 4584   6.205   4.039  10.623 -0.0693 -0.3632 -0.1218
   60SAPC   O13 4585   6.146   3.911  10.651  0.2974  0.8348  0.6891
   60SAPC   O14 4586   6.128   4.141  10.557 -0.0263 -0.0033 -0.0068
   60SAPC   O12 4587   6.266   4.110  10.751 -0.2130 -0.3414 -0.6091
   60SAPC   O11 4588   6.337   4.002  10.540 -0.2806  0.6833  0.3237
   60SAPC    C1 4589   6.387   4.096  10.435 -0.8369 -0.1376  0.0419
   60SAPC    HA 4590   6.313   4.113  10.355 -0.3346  0.7002 -0.2507
   60SAPC    HB 4591   6.406   4.194  10.484  0.9556 -0.0280 -0.8184
   60SAPC    C2 4592   6.524   4.044  10.377 -0.3719  0.0649  0.7139
   60SAPC    HS 4593   6.562   4.128  10.315  0.6143 -0.0326  1.1647
   60SAPC   O21 4594   6.512   3.925  10.295 -0.1067 -0.3468  0.1664
   60SAPC   C21 4595   6.432   3.947  10.192 -0.6728  0.5411  0.7277
   60SAPC   O22 4596   6.399   4.053  10.146 -0.2979 -0.1360  0.0656
   60SAPC   C22 4597   6.400   3.818  10.126  0.2748 -0.2746  0.3033
   60SAPC   H2R 4598   6.328   3.766  10.193 -1.2425 -1.9994 -2.5802
   60SAPC   H2S 4599   6.344   3.843  10.034 -1.9419 -0.9595  1.4162
   60SAPC    C3 4600   6.628   4.023  10.490 -0.1089 -0.8485 -0.7419
   60SAPC    HX 4601   6.603   3.947  10.567 -0.1278  0.6317  0.7594
   60SAPC    HY 4602   6.625   4.120  10.545  1.7309 -0.6293 -1.0045
   60SAPC   O31 4603   6.761   4.005  10.432 -0.1304 -0.3502 -0.0420
   60SAPC   C31 4604   6.801   3.880  10.420  1.1770 -0.0960 -0.0362
   60SAPC   O32 4605   6.744   3.780  10.460 -0.5981 -0.6095 -0.3794
   60SAPC   C32 4606   6.926   3.868  10.344 -0.2021  0.2241  0.2134
   60SAPC   H2X 4607   6.914   3.768  10.297 -0.2565  0.7028 -0.7958
   60SAPC   H2Y 4608   7.018   3.873  10.407 -1.7727  3.7350  2.4003
   60SAPC   C23 4609   6.527   3.731  10.092 -0.7546 -0.2933  0.9481
   60SAPC   H3R 4610   6.478   3.639  10.052 -0.1631 -0.9063  1.6146
   60SAPC   H3S 4611   6.592   3.710  10.180  0.6940 -2.6681 -0.6301
   60SAPC   C24 4612   6.610   3.801   9.974  0.6196  0.1311  0.4921
   60SAPC   H4R 4613   6.639   3.904  10.004  0.7007  1.0682 -2.6539
   60SAPC   H4S 4614   6.533   3.801   9.894  0.3070  0.9815  0.7871
   60SAPC   C25 4615   6.731   3.720   9.931 -0.3457  0.9169 -0.6386
   60SAPC   H5R 4616   6.813   3.731  10.004  1.0687 -1.1078 -1.8857
   60SAPC   C26 4617   6.755   3.638   9.826  0.7620 -0.0324  0.4033
   60SAPC   H6R 4618   6.854   3.597   9.801  0.5130  0.1455 -0.9089
   60SAPC   C27 4619   6.654   3.609   9.722  0.3248 -0.4426 -0.7827
   60SAPC   H7R 4620   6.551   3.605   9.765 -0.2620 -0.0458 -2.1395
   60SAPC   H7S 4621   6.684   3.506   9.692  1.0315 -0.6328  0.5087
   60SAPC   C28 4622   6.649   3.712   9.606 -0.5243 -0.5232  0.1855
   60SAPC   H8R 4623   6.731   3.786   9.613 -1.7292  0.9201 -0.6925
   60SAPC   C29 4624   6.583   3.702   9.498  0.2274 -0.1754  0.1128
   60SAPC   H9R 4625   6.576   3.788   9.429  1.5973  1.2074  1.6475
   60SAPC  C210 4626   6.479   3.590   9.472 -1.0372 -0.1543 -0.1355
   60SAPC  H10R 4627   6.398   3.626   9.405  0.2789 -0.1253 -1.7518
   60SAPC  H10S 4628   6.423   3.553   9.561 -3.2143  1.1477 -0.9268
   60SAPC  C211 4629   6.552   3.480   9.404  0.1128  0.5091 -0.6458
   60SAPC  H11R 4630   6.615   3.424   9.474 -2.5742 -0.5806  1.0089
   60SAPC  C212 4631   6.560   3.451   9.274  0.3220 -0.5207  0.1311
   60SAPC  H12R 4632   6.619   3.360   9.257  0.3957 -1.0833  3.1837
   60SAPC  C213 4633   6.495   3.522   9.155 -0.1605  0.0932  0.2085
   60SAPC  H13R 4634   6.577   3.530   9.081  0.5027 -0.6079  0.8602
   60SAPC  H13S 4635   6.463   3.625   9.181  0.7780  0.1800  1.0383
   60SAPC  C214 4636   6.380   3.439   9.110 -0.4012 -0.4563 -0.5541
   60SAPC  H14R 4637   6.313   3.395   9.185 -2.4839  1.1991 -1.3823
   60SAPC  C215 4638   6.343   3.434   8.978  0.3154  0.5693  0.0178
   60SAPC  H15R 4639   6.246   3.388   8.955 -0.4521  1.7978  0.7614
   60SAPC  C216 4640   6.402   3.514   8.861 -0.0281  0.4082 -0.1984
   60SAPC  H16R 4641   6.462   3.599   8.899  0.5516 -0.2573  0.3925
   60SAPC  H16S 4642   6.334   3.567   8.791  1.8250  1.6185 -1.1056
   60SAPC  C217 4643   6.497   3.437   8.768 -0.5843  0.4357  0.1214
   60SAPC  H17R 4644   6.454   3.336   8.749 -1.7549  1.0304 -0.3916
   60SAPC  H17S 4645   6.593   3.411   8.819  0.2107  2.2250 -0.4244
   60SAPC  C218 4646   6.524   3.502   8.639 -0.2203 -0.5445 -0.0679
   60SAPC  H18R 4647   6.429   3.538   8.593  0.0177  1.2591  0.8116
   60SAPC  H18S 4648   6.578   3.434   8.570 -0.2333 -3.5200  2.6882
   60SAPC  C219 4649   6.590   3.639   8.661 -0.1120 -0.3159  0.6982
   60SAPC  H19R 4650   6.685   3.627   8.718  1.1893 -0.7178 -1.5086
   60SAPC  H19S 4651   6.526   3.695   8.732  1.7461  0.0579  2.1407
   60SAPC  C220 4652   6.588   3.724   8.533  0.2551  0.0774  0.1776
   60SAPC  H20R 4653   6.534   3.820   8.552 -0.6483 -0.2686 -0.6129
   60SAPC  H20S 4654   6.529   3.667   8.458  1.7485  0.6921 -1.5054
   60SAPC  H20T 4655   6.690   3.750   8.496  0.2591  0.2820  0.3298
   60SAPC   C33 4656   6.931   3.963  10.223 -0.3380 -1.1329  0.0449
   60SAPC   H3X 4657   6.964   4.063  10.259 -1.8618 -1.3673  2.1761
   60SAPC   H3Y 4658   6.829   3.977  10.183  0.2007 -1.9860 -1.6657
   60SAPC   C34 4659   7.019   3.918  10.103 -0.1983  0.1956  0.1731
   60SAPC   H4X 4660   7.012   3.807  10.105 -2.0376  0.2787 -1.2672
   60SAPC   H4Y 4661   7.126   3.948  10.110  0.0834 -0.2837 -1.8223
   60SAPC   C35 4662   6.977   3.983   9.979  0.1728  0.0360  0.6047
   60SAPC   H5X 4663   7.018   4.086   9.968 -0.0648 -0.1185 -1.9994
   60SAPC   H5Y 4664   6.867   3.984   9.971  0.0598  0.4477  2.0202
   60SAPC   C36 4665   7.044   3.933   9.846 -0.3637  0.2286 -0.2045
   60SAPC   H6X 4666   7.007   3.834   9.812 -1.2839  0.6512 -0.4401
   60SAPC   H6Y 4667   7.151   3.922   9.872 -0.5475 -0.5190  0.2568
   60SAPC   C37 4668   7.036   4.033   9.734 -0.3305  0.0719 -0.5067
   60SAPC   H7X 4669   7.083   4.129   9.766  3.7520 -1.8329 -0.3924
   60SAPC   H7Y 4670   6.931   4.063   9.714 -0.1920 -0.5262 -2.2634
   60SAPC   C38 4671   7.096   3.997   9.597  0.7090  0.0352 -0.0690
   60SAPC   H8X 4672   7.199   3.960   9.616  1.3571  2.0800  0.6192
   60SAPC   H8Y 4673   7.115   4.091   9.540  0.9975  0.9997  1.5688
   60SAPC   C39 4674   7.006   3.900   9.532  0.1184 -0.5769  0.1619
   60SAPC   H9X 4675   6.914   3.959   9.515  1.1149  0.1643 -2.8723
   60SAPC   H9Y 4676   6.979   3.813   9.597  0.0401 -1.2022 -0.7040
   60SAPC  C310 4677   7.048   3.840   9.396 -0.3253  0.3233  0.3676
   60SAPC  H10X 4678   7.155   3.814   9.379 -1.2124 -1.5528 -2.6476
   60SAPC  H10Y 4679   7.043   3.916   9.315 -0.0360 -1.1002 -1.0118
   60SAPC  C311 4680   6.980   3.710   9.362 -0.4230  0.7143 -0.0900
   60SAPC  H11X 4681   6.876   3.717   9.400  0.8385  0.5797  3.4821
   60SAPC  H11Y 4682   7.024   3.628   9.422  1.2003  1.3241 -0.4281
   60SAPC  C312 4683   7.014   3.665   9.217 -0.2848 -0.1513 -0.6234
   60SAPC  H12X 4684   7.103   3.599   9.214 -1.4500 -1.7283 -0.7144
   60SAPC  H12Y 4685   7.051   3.755   9.162 -0.9553  1.9905  2.3296
   60SAPC  C313 4686   6.906   3.585   9.143  0.2587 -1.3377 -0.3935
   60SAPC  H13X 4687   6.845   3.666   9.098 -0.1909 -2.4906 -1.8908
   60SAPC  H13Y 4688   6.848   3.519   9.210 -0.3204 -1.5870 -1.1336
   60SAPC  C314 4689   6.967   3.501   9.027  0.1229 -0.0879 -0.0873
   60SAPC  H14X 4690   6.990   3.399   9.065 -3.6640 -0.0770  2.4875
   60SAPC  H14Y 4691   7.062   3.552   8.998  0.0258  0.9743  1.3865
   60SAPC  C315 4692   6.880   3.477   8.910 -0.1560  0.1329 -0.0816
   60SAPC  H15X 4693   6.827   3.575   8.906 -2.7885 -1.0402  3.5295
   60SAPC  H15Y 4694   6.802   3.399   8.921  0.3709 -0.2752  0.7364
   60SAPC  C316 4695   6.967   3.461   8.782 -0.2232  0.1346 -0.2834
   60SAPC  H16X 4696   7.035   3.383   8.824 -0.7516 -0.3336 -0.2901
   60SAPC  H16Y 4697   7.025   3.551   8.751  2.1007 -1.2569 -0.0843
   60SAPC  C317 4698   6.896   3.411   8.662  0.3097 -0.1515  0.0861
   60SAPC  H17X 4699   6.896   3.492   8.587  4.7822  0.5791  0.7725
   60SAPC  H17Y 4700   6.796   3.365   8.679  0.4505 -0.1999  0.8325
   60SAPC  C318 4701   6.969   3.296   8.589 -0.1185  0.0005  0.0407
   60SAPC  H18X 4702   6.905   3.246   8.513 -0.2503 -2.5277  1.7546
   60SAPC  H18Y 4703   6.985   3.218   8.666  1.0585 -0.1064 -0.2992
   60SAPC  H18Z 4704   7.070   3.331   8.558  0.8553 -1.6279  1.3314
   61SAPC     N 4705   0.845   3.080  10.882  0.1880  0.2790 -0.2451
   61SAPC   C12 4706   0.826   2.928  10.865 -0.2684 -0.3529  0.4323
   61SAPC  H12A 4707   0.874   2.920  10.768 -0.8968  0.6124  0.0324
   61SAPC  H12B 4708   0.722   2.900  10.869 -0.7616  0.9789 -1.8535
   61SAPC   C13 4709   0.803   3.159  10.756 -0.0929 -0.3020 -0.6545
   61SAPC  H13A 4710   0.844   3.259  10.767  0.4981 -0.5350 -0.6803
   61SAPC  H13B 4711   0.838   3.127  10.659 -0.5896  0.2537 -1.0153
   61SAPC  H13C 4712   0.696   3.162  10.749 -0.2022 -2.0912 -0.1312
   61SAPC   C14 4713   0.779   3.133  11.004 -0.2456  0.3089  0.0579
   61SAPC  H14A 4714   0.831   3.116  11.097  1.6005 -2.2306 -1.3853
   61SAPC  H14B 4715   0.757   3.237  10.984  0.2972  0.0074 -2.1466
   61SAPC  H14C 4716   0.685   3.080  11.012 -1.5089  2.7210  2.5037
   61SAPC   C15 4717   0.995   3.110  10.881 -0.0891 -0.2801 -0.4376
   61SAPC  H15A 4718   1.045   3.071  10.794  1.1912 -2.0445  1.0508
   61SAPC  H15B 4719   1.016   3.215  10.892  1.1686 -0.6924  1.4041
   61SAPC  H15C 4720   1.030   3.071  10.976  2.1313  0.8785 -0.7378
   61SAPC   C11 4721   0.918   2.836  10.958 -0.3709  0.0435 -0.7194
   61SAPC  H11A 4722   0.878   2.852  11.060  0.1546  2.2975 -0.8422
   61SAPC  H11B 4723   1.024   2.868  10.945 -0.9216  1.4081 -1.9669
   61SAPC     P 4724   0.799   2.603  10.922 -0.0698  0.2309  0.6697
   61SAPC   O13 4725   0.796   2.558  11.066 -0.0555  0.6650  0.6682
   61SAPC   O14 4726   0.671   2.661  10.865 -0.7109 -0.2991 -0.0829
   61SAPC   O12 4727   0.916   2.707  10.896  0.6340 -0.6354 -0.0817
   61SAPC   O11 4728   0.839   2.481  10.819 -0.0614  0.2650  0.1423
   61SAPC    C1 4729   0.923   2.513  10.709 -0.1908 -0.2218  0.0985
   61SAPC    HA 4730   1.021   2.557  10.741  0.5613 -1.0672 -1.0035
   61SAPC    HB 4731   0.953   2.416  10.663 -1.3285 -0.9754  0.9271
   61SAPC    C2 4732   0.850   2.582  10.590 -0.4648 -0.3914  0.6547
   61SAPC    HS 4733   0.860   2.692  10.607 -2.2243 -0.0516 -0.4289
   61SAPC   O21 4734   0.705   2.567  10.592 -0.5717  0.1020  0.1707
   61SAPC   C21 4735   0.667   2.443  10.577 -0.1927  0.3987 -0.0470
   61SAPC   O22 4736   0.739   2.349  10.546  0.2689 -0.3833  0.1947
   61SAPC   C22 4737   0.511   2.437  10.580 -0.3029  0.3605 -0.6601
   61SAPC   H2R 4738   0.474   2.488  10.671 -1.8103 -1.3096 -0.3144
   61SAPC   H2S 4739   0.465   2.489  10.493 -0.7075  0.9912 -0.0614
   61SAPC    C3 4740   0.912   2.563  10.441  0.2309 -0.4217  0.5004
   61SAPC    HX 4741   0.859   2.631  10.370  1.3310 -1.2403 -1.1301
   61SAPC    HY 4742   0.895   2.458  10.411 -1.3263  0.1698 -0.7781
   61SAPC   O31 4743   1.053   2.598  10.454 -0.2895  0.2005 -0.9446
   61SAPC   C31 4744   1.137   2.502  10.416 -0.2791  0.2322  0.5513
   61SAPC   O32 4745   1.108   2.392  10.369  0.2229 -0.3369 -0.5144
   61SAPC   C32 4746   1.277   2.560  10.420 -0.5095  0.1838  0.2153
   61SAPC   H2X 4747   1.353   2.482  10.396 -0.1765  0.2268  1.1225
   61SAPC   H2Y 4748   1.292   2.591  10.525  0.2042 -0.4714  0.3136
   61SAPC   C23 4749   0.447   2.295  10.599 -0.7266  0.7376  0.2270
   61SAPC   H3R 4750   0.338   2.299  10.620 -1.1854 -3.9003 -0.8963
   61SAPC   H3S 4751   0.488   2.241  10.687 -1.5844 -1.5092 -0.7207
   61SAPC   C24 4752   0.482   2.197  10.483  0.4295 -0.1337 -0.3982
   61SAPC   H4R 4753   0.591   2.193  10.462  0.1131  0.1296 -2.1660
   61SAPC   H4S 4754   0.432   2.248  10.398 -1.4270  0.2410  0.8935
   61SAPC   C25 4755   0.418   2.058  10.499 -0.4997  0.4702 -0.5998
   61SAPC   H5R 4756   0.397   2.033  10.604  0.9857  2.8543  0.3043
   61SAPC   C26 4757   0.391   1.969  10.396 -0.2300  0.1571 -0.4168
   61SAPC   H6R 4758   0.347   1.872  10.425  0.2513  0.6407  2.0485
   61SAPC   C27 4759   0.414   1.994  10.249  0.4064 -0.0722 -0.3898
   61SAPC   H7R 4760   0.363   2.089  10.224  0.5585  0.0984 -0.0574
   61SAPC   H7S 4761   0.369   1.909  10.194 -0.8235  0.2133  0.1797
   61SAPC   C28 4762   0.567   1.985  10.217 -0.4776 -0.0832 -0.5244
   61SAPC   H8R 4763   0.626   1.951  10.304 -0.9544 -0.7068 -0.4377
   61SAPC   C29 4764   0.629   2.000  10.100  0.5393  0.7378  0.8653
   61SAPC   H9R 4765   0.738   1.984  10.099  0.5306  0.7218  0.0651
   61SAPC  C210 4766   0.567   2.034   9.967 -0.0402  0.2825 -0.2928
   61SAPC  H10R 4767   0.458   2.012   9.974 -0.0667 -0.6366 -2.9653
   61SAPC  H10S 4768   0.610   1.964   9.892  0.1040 -0.0928  0.1405
   61SAPC  C211 4769   0.575   2.175   9.923  0.0443 -0.3806 -0.4713
   61SAPC  H11R 4770   0.625   2.247   9.990  0.8564  0.4975 -1.9931
   61SAPC  C212 4771   0.550   2.230   9.805  0.7604 -0.4190 -0.3887
   61SAPC  H12R 4772   0.567   2.338   9.803  0.5017 -0.3489  0.7688
   61SAPC  C213 4773   0.501   2.178   9.673 -0.1566 -0.4865  0.6072
   61SAPC  H13R 4774   0.453   2.078   9.676  0.4570 -0.7546  3.2987
   61SAPC  H13S 4775   0.596   2.158   9.618  0.2173  1.6464  0.4435
   61SAPC  C214 4776   0.422   2.275   9.589 -0.4553 -0.2922 -0.3751
   61SAPC  H14R 4777   0.372   2.345   9.657 -1.1657 -1.9026  0.7964
   61SAPC  C215 4778   0.396   2.275   9.456  0.4452 -0.0947  0.1882
   61SAPC  H15R 4779   0.321   2.348   9.424  1.0407  0.5207  0.1964
   61SAPC  C216 4780   0.443   2.175   9.354  0.2460  0.1202 -0.4502
   61SAPC  H16R 4781   0.517   2.108   9.402 -0.0965  1.1410  1.5433
   61SAPC  H16S 4782   0.489   2.229   9.269  0.9779  1.7169  0.9333
   61SAPC  C217 4783   0.325   2.087   9.303 -0.0826 -0.3360  0.7386
   61SAPC  H17R 4784   0.267   2.038   9.384 -1.8365 -1.4909 -1.1592
   61SAPC  H17S 4785   0.362   2.005   9.238  2.0147  1.7450 -0.7781
   61SAPC  C218 4786   0.225   2.164   9.211 -0.0715 -0.1695 -0.5151
   61SAPC  H18R 4787   0.279   2.200   9.121  3.9382  2.2840  2.6456
   61SAPC  H18S 4788   0.187   2.251   9.268  0.7682 -0.3986  0.4274
   61SAPC  C219 4789   0.113   2.066   9.164 -0.3833 -1.2369  0.1775
   61SAPC  H19R 4790   0.081   1.995   9.243 -0.0086 -2.7544 -1.0069
   61SAPC  H19S 4791   0.158   2.004   9.084  1.6680 -0.4077  0.6521
   61SAPC  C220 4792  -0.003   2.142   9.102 -0.1977 -0.1088 -0.3520
   61SAPC  H20R 4793  -0.062   2.201   9.175  2.6741  2.0754  0.2593
   61SAPC  H20S 4794  -0.065   2.064   9.052 -1.2181 -0.1854  1.0043
   61SAPC  H20T 4795   0.041   2.208   9.024 -0.7729  0.2270 -0.4008
   61SAPC   C33 4796   1.300   2.678  10.319 -0.1198  0.3532 -0.1177
   61SAPC   H3X 4797   1.410   2.693  10.312  0.1808 -1.8431 -0.4632
   61SAPC   H3Y 4798   1.253   2.765  10.370 -3.2738 -1.5966  0.4331
   61SAPC   C34 4799   1.240   2.669  10.180  0.3426 -0.7235  0.2971
   61SAPC   H4X 4800   1.144   2.723  10.189  0.7052  0.0560 -0.4429
   61SAPC   H4Y 4801   1.225   2.562  10.153 -2.2624 -0.5319  0.9069
   61SAPC   C35 4802   1.317   2.741  10.063  0.0673  0.6779 -0.1209
   61SAPC   H5X 4803   1.417   2.694  10.053  0.1180  0.3131  1.8283
   61SAPC   H5Y 4804   1.333   2.846  10.095  1.8062  0.1714  0.7311
   61SAPC   C36 4805   1.242   2.732   9.932  0.3679 -0.5811 -0.0584
   61SAPC   H6X 4806   1.148   2.790   9.941  0.5685 -0.3996  0.9521
   61SAPC   H6Y 4807   1.206   2.627   9.927  1.0669 -0.8533  0.4841
   61SAPC   C37 4808   1.339   2.759   9.819  0.1855 -0.2459 -0.0422
   61SAPC   H7X 4809   1.411   2.675   9.828  2.7049  2.0634  2.4745
   61SAPC   H7Y 4810   1.391   2.857   9.827  1.0008 -0.5762 -1.2329
   61SAPC   C38 4811   1.268   2.754   9.680 -0.1321 -0.6873 -0.7603
   61SAPC   H8X 4812   1.192   2.835   9.676 -0.4044 -0.9796 -1.6129
   61SAPC   H8Y 4813   1.209   2.660   9.674 -2.2618  0.6211 -0.7175
   61SAPC   C39 4814   1.368   2.768   9.555  0.3986  0.0332 -0.3469
   61SAPC   H9X 4815   1.436   2.680   9.559  0.4106  0.1224  2.6813
   61SAPC   H9Y 4816   1.425   2.862   9.569 -1.8183  1.3168  0.3073
   61SAPC  C310 4817   1.306   2.781   9.423  0.4012 -0.2392 -0.6920
   61SAPC  H10X 4818   1.244   2.873   9.425  1.4061  0.4314  0.4585
   61SAPC  H10Y 4819   1.231   2.702   9.402  1.9676 -1.4241 -1.9131
   61SAPC  C311 4820   1.403   2.782   9.306 -0.7551 -0.6763  0.3489
   61SAPC  H11X 4821   1.429   2.677   9.283  1.5679  0.3624 -1.9647
   61SAPC  H11Y 4822   1.491   2.839   9.342 -0.7834 -0.0033 -0.6203
   61SAPC  C312 4823   1.344   2.836   9.182 -0.5523 -0.2957 -0.1803
   61SAPC  H12X 4824   1.290   2.929   9.210  0.7467 -0.3950  2.8324
   61SAPC  H12Y 4825   1.270   2.765   9.139 -0.7364  0.6878 -1.5264
   61SAPC  C313 4826   1.453   2.877   9.090  0.0251 -0.2220  0.1013
   61SAPC  H13X 4827   1.498   2.779   9.061  1.5339  0.2308  0.8532
   61SAPC  H13Y 4828   1.543   2.935   9.121  0.2800 -0.5081 -0.0984
   61SAPC  C314 4829   1.405   2.931   8.959 -0.0611 -0.1350 -0.3902
   61SAPC  H14X 4830   1.376   3.038   8.966 -0.2960 -0.1716 -0.7902
   61SAPC  H14Y 4831   1.324   2.867   8.918  0.2804 -1.3782  0.8546
   61SAPC  C315 4832   1.516   2.929   8.857 -0.0979  0.3034  0.4652
   61SAPC  H15X 4833   1.534   2.824   8.825  0.7196  0.8445 -0.9338
   61SAPC  H15Y 4834   1.613   2.976   8.882  0.3319 -1.0546  1.3901
   61SAPC  C316 4835   1.469   2.998   8.723 -0.2385 -0.1104  0.5277
   61SAPC  H16X 4836   1.460   3.108   8.732  2.3566  0.2537 -0.8361
   61SAPC  H16Y 4837   1.371   2.953   8.698 -0.7330  1.7187 -0.9265
   61SAPC  C317 4838   1.548   2.960   8.593 -0.4518 -0.0022 -0.2536
   61SAPC  H17X 4839   1.559   2.850   8.590  2.1459  0.2409 -0.7259
   61SAPC  H17Y 4840   1.650   3.004   8.587 -0.0829 -0.7739  0.3278
   61SAPC  C318 4841   1.480   2.994   8.463 -0.2011  0.1484  0.2027
   61SAPC  H18X 4842   1.375   2.959   8.457 -0.3763  0.4916  1.1413
   61SAPC  H18Y 4843   1.527   2.952   8.371  1.4267 -0.4130  1.2526
   61SAPC  H18Z 4844   1.477   3.103   8.442  0.4215 -0.0471 -0.9521
   62SAPC     N 4845   6.435   1.045  10.716  0.0590  0.0895  0.4323
   62SAPC   C12 4846   6.394   1.154  10.625  0.4602  0.7236 -0.1895
   62SAPC  H12A 4847   6.290   1.178  10.638  1.0058  3.5160 -0.5053
   62SAPC  H12B 4848   6.397   1.125  10.521 -1.7710  0.6954 -0.2699
   62SAPC   C13 4849   6.326   0.944  10.692  0.1769 -0.4709 -0.6447
   62SAPC  H13A 4850   6.232   0.981  10.730  0.1001 -1.3943  0.0652
   62SAPC  H13B 4851   6.305   0.927  10.587 -0.9281  2.8644 -1.0371
   62SAPC  H13C 4852   6.361   0.855  10.741 -1.0270 -1.2667 -1.2132
   62SAPC   C14 4853   6.569   0.992  10.673  0.3692  0.3305 -0.5998
   62SAPC  H14A 4854   6.574   0.973  10.566  0.0051 -1.4711 -0.3107
   62SAPC  H14B 4855   6.639   1.070  10.700  0.9910 -0.5743  0.4239
   62SAPC  H14C 4856   6.605   0.906  10.727 -0.2417 -0.2452 -1.0993
   62SAPC   C15 4857   6.444   1.086  10.863 -0.1509 -0.3855 -0.1070
   62SAPC  H15A 4858   6.497   1.012  10.921  0.8663  1.4570  1.3534
   62SAPC  H15B 4859   6.504   1.175  10.877  1.1291 -1.1490 -0.6463
   62SAPC  H15C 4860   6.341   1.105  10.891  0.0424 -1.4579  1.3953
   62SAPC   C11 4861   6.473   1.289  10.643  0.2038  0.6087  0.4469
   62SAPC  H11A 4862   6.452   1.325  10.746 -2.3472  1.0947 -0.1967
   62SAPC  H11B 4863   6.438   1.366  10.570  0.6559 -0.2680 -0.7040
   62SAPC     P 4864   6.714   1.384  10.595  0.0179  0.2499  0.1576
   62SAPC   O13 4865   6.704   1.476  10.707  0.4002  0.1389 -0.2548
   62SAPC   O14 4866   6.844   1.319  10.561  0.1694  0.3840  0.4261
   62SAPC   O12 4867   6.606   1.268  10.607  0.4382  0.2588  0.0403
   62SAPC   O11 4868   6.661   1.455  10.466  0.0085 -0.1428 -0.4187
   62SAPC    C1 4869   6.632   1.382  10.347 -0.0113  0.1841  0.1291
   62SAPC    HA 4870   6.622   1.274  10.374  3.1714  0.3737  2.3665
   62SAPC    HB 4871   6.532   1.414  10.310 -0.3172  0.9424  1.5877
   62SAPC    C2 4872   6.734   1.396  10.225 -0.0317 -0.3207  0.0087
   62SAPC    HS 4873   6.819   1.326  10.241 -0.8875 -1.3723  0.0175
   62SAPC   O21 4874   6.772   1.536  10.214 -0.2515  0.2993  0.1430
   62SAPC   C21 4875   6.897   1.550  10.168 -0.2791 -0.4687 -1.0729
   62SAPC   O22 4876   6.970   1.459  10.138 -0.0806  0.2784  0.4525
   62SAPC   C22 4877   6.935   1.698  10.166 -0.0059 -0.3363  0.2538
   62SAPC   H2R 4878   6.989   1.713  10.262 -0.1552 -0.5532  0.3708
   62SAPC   H2S 4879   7.004   1.711  10.080 -1.1826  1.5839 -0.4219
   62SAPC    C3 4880   6.671   1.352  10.088 -0.5360  0.4121 -0.2634
   62SAPC    HX 4881   6.617   1.437  10.041 -0.5987  0.1913 -0.5989
   62SAPC    HY 4882   6.599   1.268  10.100 -0.3281  0.1575 -0.7592
   62SAPC   O31 4883   6.771   1.315   9.993  0.0489 -0.3958 -0.0737
   62SAPC   C31 4884   6.824   1.198  10.007 -0.5351  0.0520  0.0490
   62SAPC   O32 4885   6.773   1.111  10.076 -0.1094  0.0495  0.9004
   62SAPC   C32 4886   6.952   1.184   9.932  1.7358  0.9069  0.9538
   62SAPC   H2X 4887   7.037   1.164  10.000  3.4744  0.4832 -1.2878
   62SAPC   H2Y 4888   6.973   1.275   9.872  1.4407  0.4360  0.1227
   62SAPC   C23 4889   6.815   1.799  10.152  0.1258  0.5350  0.3278
   62SAPC   H3R 4890   6.831   1.883  10.223  1.0881 -0.4836  1.3532
   62SAPC   H3S 4891   6.718   1.756  10.186 -0.6224  1.3061 -0.8093
   62SAPC   C24 4892   6.802   1.857  10.012  0.4262  0.0548  0.4810
   62SAPC   H4R 4893   6.722   1.934  10.021 -0.5928 -0.7103 -1.7782
   62SAPC   H4S 4894   6.751   1.791   9.939  0.7091  1.4726 -1.0461
   62SAPC   C25 4895   6.924   1.917   9.945  0.5589 -0.5800  0.5997
   62SAPC   H5R 4896   6.995   1.977  10.004 -0.3451  0.4243  0.6894
   62SAPC   C26 4897   6.959   1.893   9.821 -0.0520  0.4287  0.0701
   62SAPC   H6R 4898   7.055   1.929   9.783 -1.1790  4.5618  0.9468
   62SAPC   C27 4899   6.887   1.807   9.720 -0.2583 -0.7650  0.1277
   62SAPC   H7R 4900   6.928   1.838   9.622 -0.1401  0.6731  0.6250
   62SAPC   H7S 4901   6.778   1.831   9.726 -1.0642 -4.3334  0.9015
   62SAPC   C28 4902   6.896   1.658   9.731 -0.1969 -0.3489 -0.4941
   62SAPC   H8R 4903   6.928   1.623   9.831 -1.6182  0.4488  0.2584
   62SAPC   C29 4904   6.878   1.567   9.639  0.4763  0.0856 -0.0277
   62SAPC   H9R 4905   6.897   1.459   9.653  3.0165  0.5828  0.4979
   62SAPC  C210 4906   6.846   1.607   9.501  0.1395 -1.2245 -0.4169
   62SAPC  H10R 4907   6.928   1.663   9.451 -1.3480  1.2336 -0.1698
   62SAPC  H10S 4908   6.754   1.669   9.507  1.4338  0.7152 -0.3435
   62SAPC  C211 4909   6.820   1.490   9.415  0.2592 -1.3113  0.1932
   62SAPC  H11R 4910   6.806   1.394   9.466 -1.0779 -0.8210  0.7659
   62SAPC  C212 4911   6.817   1.493   9.281 -0.2354  0.3469  0.4935
   62SAPC  H12R 4912   6.800   1.398   9.229  1.6872 -0.9436  2.1691
   62SAPC  C213 4913   6.846   1.618   9.193  0.4493 -0.4798  0.4695
   62SAPC  H13R 4914   6.957   1.621   9.184  0.5384 -1.6918  0.9843
   62SAPC  H13S 4915   6.811   1.711   9.243 -2.2004 -0.9759 -0.3605
   62SAPC  C214 4916   6.785   1.617   9.051 -0.3603  0.5020 -0.5919
   62SAPC  H14R 4917   6.676   1.604   9.059  0.0051 -2.4421  0.0264
   62SAPC  C215 4918   6.846   1.610   8.931  0.6470 -0.1872 -0.3368
   62SAPC  H15R 4919   6.789   1.616   8.837  0.0649 -1.4498 -0.0854
   62SAPC  C216 4920   6.996   1.617   8.898  0.0152 -0.3090 -0.2000
   62SAPC  H16R 4921   7.048   1.528   8.856 -0.4492 -1.8987  2.4507
   62SAPC  H16S 4922   7.048   1.619   8.996  0.9217 -1.2904 -0.6550
   62SAPC  C217 4923   7.024   1.750   8.817  0.5100 -0.1928 -1.0624
   62SAPC  H17R 4924   6.970   1.836   8.861  1.5127 -0.1600  0.1002
   62SAPC  H17S 4925   6.984   1.739   8.714  1.2064 -0.7442 -1.2772
   62SAPC  C218 4926   7.181   1.758   8.816 -0.1520  0.0789  0.2417
   62SAPC  H18R 4927   7.217   1.659   8.781  0.5288  0.5916 -0.5125
   62SAPC  H18S 4928   7.216   1.783   8.919  0.9008 -2.0198  0.4121
   62SAPC  C219 4929   7.238   1.865   8.718 -0.0530 -0.0920  0.9217
   62SAPC  H19R 4930   7.217   1.967   8.754 -1.8656  0.1619 -0.7803
   62SAPC  H19S 4931   7.184   1.859   8.621  2.7604 -0.4604 -0.6997
   62SAPC  C220 4932   7.387   1.840   8.681  0.2073 -0.0366 -0.3914
   62SAPC  H20R 4933   7.421   1.897   8.592  0.0936  1.5475  0.5693
   62SAPC  H20S 4934   7.404   1.732   8.662  1.6941  0.3957 -1.6084
   62SAPC  H20T 4935   7.454   1.863   8.766 -0.4384  1.1130 -0.1908
   62SAPC   C33 4936   6.933   1.057   9.841  0.0290  0.3224 -0.4886
   62SAPC   H3X 4937   6.910   0.973   9.909 -1.0787  2.0050  1.2666
   62SAPC   H3Y 4938   7.033   1.036   9.796 -0.1831  0.4774 -1.0455
   62SAPC   C34 4939   6.829   1.081   9.732 -0.2908 -0.7791 -0.6859
   62SAPC   H4X 4940   6.881   1.134   9.649 -2.4056  1.9536 -0.3127
   62SAPC   H4Y 4941   6.746   1.145   9.769 -1.8898 -2.1817 -1.7688
   62SAPC   C35 4942   6.788   0.949   9.673  0.5616  0.4802  0.1373
   62SAPC   H5X 4943   6.730   0.892   9.749 -0.9588  0.1477 -1.2636
   62SAPC   H5Y 4944   6.884   0.893   9.664 -0.4874 -1.2636 -0.4281
   62SAPC   C36 4945   6.723   0.957   9.537  0.6369 -0.7309 -0.0471
   62SAPC   H6X 4946   6.622   1.003   9.545  1.1935  0.7239 -1.0342
   62SAPC   H6Y 4947   6.704   0.854   9.501  0.8278 -0.5504 -0.6747
   62SAPC   C37 4948   6.798   1.018   9.420 -0.1294 -0.3108 -0.0719
   62SAPC   H7X 4949   6.891   0.959   9.406  0.0771 -0.2267  0.9643
   62SAPC   H7Y 4950   6.832   1.119   9.452 -0.4788 -1.3299  3.6989
   62SAPC   C38 4951   6.738   1.029   9.280 -0.9785 -0.5313  0.7782
   62SAPC   H8X 4952   6.726   0.919   9.264  1.4842 -0.8611  1.0552
   62SAPC   H8Y 4953   6.815   1.071   9.212 -1.1600 -0.6307  0.5086
   62SAPC   C39 4954   6.613   1.113   9.245  0.0055 -0.0699 -0.3577
   62SAPC   H9X 4955   6.621   1.224   9.250  0.4041 -0.0617 -1.0646
   62SAPC   H9Y 4956   6.533   1.083   9.316 -0.2692 -0.7451 -0.9506
   62SAPC  C310 4957   6.565   1.097   9.100  0.7255  0.1218 -0.6673
   62SAPC  H10X 4958   6.467   1.148   9.085  0.2500 -1.0940 -1.7322
   62SAPC  H10Y 4959   6.553   0.987   9.095  0.5982 -0.0500  2.2349
   62SAPC  C311 4960   6.672   1.150   9.002  0.6552 -0.2664 -0.3923
   62SAPC  H11X 4961   6.774   1.131   9.042  0.9694  0.1247 -0.9894
   62SAPC  H11Y 4962   6.666   1.261   8.994 -0.0842 -0.1060  2.2224
   62SAPC  C312 4963   6.643   1.097   8.857  0.2069  0.0809  0.1048
   62SAPC  H12X 4964   6.545   1.137   8.822  0.4908  1.5578  0.9229
   62SAPC  H12Y 4965   6.634   0.987   8.857  0.0985  0.0896  0.5481
   62SAPC  C313 4966   6.756   1.134   8.765  0.2781  0.0781 -0.1395
   62SAPC  H13X 4967   6.856   1.108   8.806  0.5813 -1.2894 -1.6973
   62SAPC  H13Y 4968   6.749   1.245   8.757  0.8503  0.0109 -1.7324
   62SAPC  C314 4969   6.751   1.062   8.629  0.6558  0.6217  0.4148
   62SAPC  H14X 4970   6.648   1.066   8.589  0.3023  1.3762  1.3649
   62SAPC  H14Y 4971   6.771   0.955   8.652 -1.2200  0.5956  2.0843
   62SAPC  C315 4972   6.853   1.118   8.516  0.4192  0.4174  0.1438
   62SAPC  H15X 4973   6.955   1.080   8.540  0.9473  1.3637 -0.6028
   62SAPC  H15Y 4974   6.844   1.228   8.528 -1.1842  0.3724 -0.5204
   62SAPC  C316 4975   6.815   1.094   8.376 -0.0308  0.0897  0.3385
   62SAPC  H16X 4976   6.714   1.138   8.367 -0.7852 -1.1883  2.2614
   62SAPC  H16Y 4977   6.800   0.991   8.339  1.6532  0.0971 -0.4226
   62SAPC  C317 4978   6.909   1.152   8.271  0.1265 -0.0700 -0.4962
   62SAPC  H17X 4979   7.014   1.122   8.293  0.0098 -0.3800 -0.3697
   62SAPC  H17Y 4980   6.909   1.264   8.273  2.0315 -0.0441 -0.4957
   62SAPC  C318 4981   6.866   1.113   8.134  0.0753 -0.0637  0.4554
   62SAPC  H18X 4982   6.949   1.139   8.064  0.8105  0.7319  1.6150
   62SAPC  H18Y 4983   6.775   1.172   8.109 -0.8638 -1.4626  0.5344
   62SAPC  H18Z 4984   6.837   1.007   8.118 -1.0431  0.2771  0.2181
   63SAPC     N 4985   4.250   0.426   6.436 -0.1446 -0.2199 -0.0827
   63SAPC   C12 4986   4.340   0.541   6.488  0.1096  0.5675  0.0261
   63SAPC  H12A 4987   4.299   0.574   6.582  1.0170 -0.8870  0.9544
   63SAPC  H12B 4988   4.343   0.621   6.416 -1.2632  0.0596 -0.6161
   63SAPC   C13 4989   4.284   0.296   6.507 -0.3370 -0.4400  0.5472
   63SAPC  H13A 4990   4.389   0.283   6.486 -0.1517  1.3707  0.3274
   63SAPC  H13B 4991   4.255   0.305   6.611 -1.1607  0.7514  0.2317
   63SAPC  H13C 4992   4.226   0.213   6.468 -1.1003  0.6216 -0.5952
   63SAPC   C14 4993   4.106   0.455   6.460 -0.6982  0.1958 -0.0774
   63SAPC  H14A 4994   4.070   0.530   6.391  0.3954  0.0263 -0.8324
   63SAPC  H14B 4995   4.050   0.363   6.456 -0.5277  0.0194  1.1981
   63SAPC  H14C 4996   4.093   0.481   6.565 -1.0119 -0.8240  0.1441
   63SAPC   C15 4997   4.281   0.416   6.291  0.4767  0.4319 -0.4403
   63SAPC  H15A 4998   4.222   0.338   6.245  0.0639 -0.9837  2.4197
   63SAPC  H15B 4999   4.251   0.501   6.232  0.1145  0.8114  0.2852
   63SAPC  H15C 5000   4.384   0.394   6.267  0.0591 -0.3101 -1.6329
   63SAPC   C11 5001   4.495   0.508   6.508 -0.5384 -0.4673  0.1583
   63SAPC  H11A 5002   4.498   0.419   6.574  2.3757  0.0282  0.7738
   63SAPC  H11B 5003   4.542   0.598   6.554  2.3260 -1.0129 -1.5812
   63SAPC     P 5004   4.603   0.563   6.275 -0.4095  0.1263 -0.3081
   63SAPC   O13 5005   4.662   0.477   6.169  0.0711  0.0264  0.7552
   63SAPC   O14 5006   4.492   0.645   6.236  0.3618 -0.4234 -0.6034
   63SAPC   O12 5007   4.556   0.465   6.384  0.5784  0.4706  0.5622
   63SAPC   O11 5008   4.713   0.651   6.342  0.5248  0.1677 -0.5381
   63SAPC    C1 5009   4.817   0.590   6.411  0.6645  0.3737 -0.1770
   63SAPC    HA 5010   4.789   0.505   6.478 -1.5851  1.2025 -0.0396
   63SAPC    HB 5011   4.900   0.559   6.345 -0.8113 -0.9229 -1.4619
   63SAPC    C2 5012   4.880   0.700   6.504  0.5324  0.2191 -0.7208
   63SAPC    HS 5013   4.969   0.662   6.559 -0.7014 -2.3448 -0.4041
   63SAPC   O21 5014   4.783   0.759   6.595 -0.1314 -0.9459 -0.4428
   63SAPC   C21 5015   4.752   0.684   6.700 -0.2836  0.7117 -0.4699
   63SAPC   O22 5016   4.788   0.569   6.730  0.6071 -0.5212 -0.8663
   63SAPC   C22 5017   4.669   0.777   6.783  0.4360  0.2154 -0.6615
   63SAPC   H2R 5018   4.722   0.873   6.801 -1.0553  0.5925  1.8453
   63SAPC   H2S 5019   4.585   0.815   6.719 -2.0834 -1.5369  1.5019
   63SAPC    C3 5020   4.941   0.809   6.408 -0.1673 -0.5982 -0.0128
   63SAPC    HX 5021   4.876   0.842   6.324 -0.6595 -0.4725  0.4171
   63SAPC    HY 5022   5.015   0.756   6.344 -1.0529 -1.1688 -0.5643
   63SAPC   O31 5023   5.011   0.923   6.469  0.0192  0.0205  0.2689
   63SAPC   C31 5024   4.924   1.019   6.494 -0.1647 -0.4125  0.0335
   63SAPC   O32 5025   4.807   1.017   6.461  0.2202 -0.1902  0.0583
   63SAPC   C32 5026   5.001   1.144   6.551  0.2921  0.4031 -0.1878
   63SAPC   H2X 5027   5.089   1.168   6.488  0.7794 -1.9476 -0.4735
   63SAPC   H2Y 5028   5.046   1.117   6.649 -0.4268 -0.4372 -0.0723
   63SAPC   C23 5029   4.632   0.699   6.911  0.0909 -0.2681  0.4125
   63SAPC   H3R 5030   4.724   0.687   6.972 -0.9921 -1.0197  1.9187
   63SAPC   H3S 5031   4.579   0.604   6.890  0.7899 -0.5661 -0.0232
   63SAPC   C24 5032   4.525   0.775   6.998  0.2006  0.1856  0.0435
   63SAPC   H4R 5033   4.486   0.713   7.081  2.6766 -1.5985 -0.0536
   63SAPC   H4S 5034   4.444   0.788   6.924 -0.1016  0.7733  0.4695
   63SAPC   C25 5035   4.582   0.910   7.043  0.1995 -0.7910  0.3752
   63SAPC   H5R 5036   4.600   0.977   6.957 -1.9067 -1.4375 -0.6016
   63SAPC   C26 5037   4.595   0.969   7.168 -0.0766 -0.2565  0.1667
   63SAPC   H6R 5038   4.648   1.064   7.179 -0.2020  0.0134 -1.3417
   63SAPC   C27 5039   4.559   0.899   7.297 -0.4175  0.1198 -0.1813
   63SAPC   H7R 5040   4.541   0.791   7.280  0.6150 -0.5157  2.4875
   63SAPC   H7S 5041   4.461   0.940   7.330  0.4580  0.5962  1.9299
   63SAPC   C28 5042   4.667   0.923   7.408  0.4672  0.4765  0.4740
   63SAPC   H8R 5043   4.772   0.928   7.375  0.4828  1.6727  0.6960
   63SAPC   C29 5044   4.633   0.951   7.541  0.2272 -0.8514  0.1294
   63SAPC   H9R 5045   4.716   0.966   7.611  1.6977 -3.4212 -0.9454
   63SAPC  C210 5046   4.496   0.966   7.595 -0.0707 -0.8291  0.6101
   63SAPC  H10R 5047   4.412   0.936   7.529 -0.5226 -0.4282  0.9925
   63SAPC  H10S 5048   4.488   1.077   7.596 -0.9492 -0.8892  1.1757
   63SAPC  C211 5049   4.490   0.924   7.740 -0.3577  0.0645  0.1419
   63SAPC  H11R 5050   4.446   0.823   7.747  0.0145 -0.2691 -1.9408
   63SAPC  C212 5051   4.520   0.991   7.851  0.2392  0.2168 -0.1286
   63SAPC  H12R 5052   4.487   0.943   7.944 -1.3930  2.1165  0.2845
   63SAPC  C213 5053   4.567   1.133   7.865  0.9387  0.7574 -0.0465
   63SAPC  H13R 5054   4.604   1.160   7.764  1.8574 -0.3024  0.0034
   63SAPC  H13S 5055   4.647   1.154   7.939  0.6388 -0.4122  0.6335
   63SAPC  C214 5056   4.441   1.214   7.873 -0.6014 -0.1763 -0.2815
   63SAPC  H14R 5057   4.396   1.230   7.774  3.2336 -0.0463 -2.0939
   63SAPC  C215 5058   4.395   1.294   7.978 -0.2541  0.4935  0.6182
   63SAPC  H15R 5059   4.308   1.359   7.960  0.6118  2.0525  1.9635
   63SAPC  C216 5060   4.463   1.299   8.115  0.6956  0.3689  0.0147
   63SAPC  H16R 5061   4.491   1.396   8.161 -1.8126  0.1036  2.1482
   63SAPC  H16S 5062   4.569   1.266   8.109  0.4872 -0.2783 -0.1777
   63SAPC  C217 5063   4.394   1.214   8.227 -0.8842  0.1077  0.5004
   63SAPC  H17R 5064   4.385   1.109   8.192  4.5913  0.1068 -1.3935
   63SAPC  H17S 5065   4.288   1.247   8.239 -0.3759  2.3388 -0.8948
   63SAPC  C218 5066   4.486   1.223   8.351  0.3406  0.3169  0.2948
   63SAPC  H18R 5067   4.470   1.317   8.407 -2.6780 -0.1807  0.3345
   63SAPC  H18S 5068   4.594   1.217   8.326  0.2101  1.1872 -0.4961
   63SAPC  C219 5069   4.468   1.105   8.454 -0.3045 -0.1250 -0.2208
   63SAPC  H19R 5070   4.470   1.008   8.400  1.6202 -0.2855  0.0951
   63SAPC  H19S 5071   4.369   1.106   8.506 -1.1155 -3.2845 -1.5919
   63SAPC  C220 5072   4.583   1.114   8.556  0.2480  0.1023  0.1848
   63SAPC  H20R 5073   4.681   1.112   8.503 -0.6470 -0.3530 -1.4883
   63SAPC  H20S 5074   4.578   1.025   8.622 -0.5890  0.9063  1.2326
   63SAPC  H20T 5075   4.582   1.209   8.613  1.3820  0.4105 -0.2962
   63SAPC   C33 5076   4.922   1.264   6.589  0.2650 -0.4966 -0.7866
   63SAPC   H3X 5077   4.815   1.235   6.598  0.1392 -0.1818 -1.2943
   63SAPC   H3Y 5078   4.928   1.332   6.502  0.8144 -0.0192 -0.3785
   63SAPC   C34 5079   4.965   1.331   6.724 -0.0359 -0.6074 -0.4401
   63SAPC   H4X 5080   4.945   1.254   6.801 -2.7216 -0.9456 -1.4170
   63SAPC   H4Y 5081   4.902   1.420   6.749  1.2686 -0.0144  0.7747
   63SAPC   C35 5082   5.107   1.385   6.723 -0.3324  0.5387  1.2805
   63SAPC   H5X 5083   5.105   1.481   6.666 -1.7641  0.0755  0.5372
   63SAPC   H5Y 5084   5.174   1.324   6.658  0.9229  2.6994  0.4740
   63SAPC   C36 5085   5.178   1.376   6.862  0.1335 -0.0999 -1.1230
   63SAPC   H6X 5086   5.271   1.434   6.847 -0.4947  1.2249 -0.0072
   63SAPC   H6Y 5087   5.204   1.272   6.893 -0.9049 -0.9005 -2.9176
   63SAPC   C37 5088   5.092   1.447   6.970 -0.0680 -0.2177 -0.6045
   63SAPC   H7X 5089   5.000   1.390   6.997 -1.2756  0.4062 -3.2368
   63SAPC   H7Y 5090   5.062   1.544   6.924  0.1259 -0.0883 -0.4586
   63SAPC   C38 5091   5.180   1.479   7.094 -0.1079  0.4068  0.1219
   63SAPC   H8X 5092   5.266   1.544   7.068 -3.4046  4.2006 -1.9434
   63SAPC   H8Y 5093   5.209   1.382   7.139 -1.2873  0.2481  0.5688
   63SAPC   C39 5094   5.099   1.558   7.203 -0.4837  0.1920  0.6857
   63SAPC   H9X 5095   4.998   1.513   7.213  0.0562 -0.8977  1.3664
   63SAPC   H9Y 5096   5.073   1.659   7.166 -0.4710 -0.3373 -0.7863
   63SAPC  C310 5097   5.169   1.559   7.345 -0.7397  0.3076 -0.2591
   63SAPC  H10X 5098   5.260   1.622   7.344  0.2859 -1.0844  1.5821
   63SAPC  H10Y 5099   5.220   1.461   7.356  2.3722  1.4220 -3.8495
   63SAPC  C311 5100   5.074   1.584   7.461 -0.2733  0.5491  0.0838
   63SAPC  H11X 5101   5.014   1.493   7.480  1.7224 -1.1046 -1.4084
   63SAPC  H11Y 5102   4.993   1.654   7.432  0.3423  2.1074  1.9518
   63SAPC  C312 5103   5.151   1.631   7.583  0.2962 -0.2965  0.1083
   63SAPC  H12X 5104   5.177   1.736   7.559  1.2480 -0.3690  0.7956
   63SAPC  H12Y 5105   5.245   1.573   7.598  1.3288  1.3925  0.3286
   63SAPC  C313 5106   5.065   1.626   7.712  0.0382  0.7407 -0.4022
   63SAPC  H13X 5107   5.037   1.520   7.731  0.5081  0.9833  1.7263
   63SAPC  H13Y 5108   4.971   1.685   7.698 -0.7977  0.3556  3.1592
   63SAPC  C314 5109   5.147   1.676   7.827 -0.0516  0.0138  0.1101
   63SAPC  H14X 5110   5.176   1.780   7.804  0.7150  0.0316  1.0921
   63SAPC  H14Y 5111   5.237   1.614   7.846 -0.3354 -0.8679 -1.3330
   63SAPC  C315 5112   5.056   1.694   7.957 -0.6735  0.7688  0.0118
   63SAPC  H15X 5113   4.995   1.602   7.962 -0.6218  0.7136 -0.3632
   63SAPC  H15Y 5114   4.990   1.777   7.923  1.8889  2.0897 -1.9089
   63SAPC  C316 5115   5.137   1.713   8.090  0.2421  0.0172  0.5059
   63SAPC  H16X 5116   5.209   1.797   8.077 -0.7222  0.8077  0.2036
   63SAPC  H16Y 5117   5.171   1.613   8.123 -0.9995  0.0933  2.0848
   63SAPC  C317 5118   5.049   1.778   8.197  0.2815  0.6012  0.2827
   63SAPC  H17X 5119   5.016   1.878   8.162  0.8825 -0.1677 -2.6879
   63SAPC  H17Y 5120   5.115   1.792   8.285 -0.2005 -1.5856  1.0176
   63SAPC  C318 5121   4.925   1.698   8.231 -0.7805 -0.3811 -0.0490
   63SAPC  H18X 5122   4.954   1.619   8.304 -0.3106  0.1028  0.2886
   63SAPC  H18Y 5123   4.883   1.648   8.141 -0.6890  0.0933 -0.3526
   63SAPC  H18Z 5124   4.860   1.772   8.283  2.7253  1.4060  1.9787
   64SAPC     N 5125   0.041   1.795   6.000  0.7734  0.0855  0.3985
   64SAPC   C12 5126   0.039   1.792   6.148 -0.2519  0.1875 -0.1677
   64SAPC  H12A 5127   0.070   1.886   6.191 -0.9923 -0.3892  1.6657
   64SAPC  H12B 5128   0.111   1.724   6.191  0.3289  0.3726 -0.8292
   64SAPC   C13 5129   0.008   1.667   5.945  0.1388  0.0126  0.6270
   64SAPC  H13A 5130  -0.010   1.682   5.839 -0.7978 -1.2207  0.6051
   64SAPC  H13B 5131   0.092   1.601   5.957  0.4243  0.0956 -0.8103
   64SAPC  H13C 5132  -0.072   1.619   5.998 -1.3727  0.9051 -0.7991
   64SAPC   C14 5133  -0.062   1.893   5.940 -0.6761 -0.3124  0.3005
   64SAPC  H14A 5134  -0.028   1.993   5.964 -0.9939 -0.7189  2.5605
   64SAPC  H14B 5135  -0.059   1.894   5.832 -1.3370 -0.0181  0.2786
   64SAPC  H14C 5136  -0.165   1.882   5.972 -0.7038 -1.6014 -0.2181
   64SAPC   C15 5137   0.173   1.840   5.940 -0.8376 -0.2059 -0.2707
   64SAPC  H15A 5138   0.260   1.782   5.968  0.3739  1.7102  0.0251
   64SAPC  H15B 5139   0.159   1.843   5.833 -2.9341  0.7794 -0.0093
   64SAPC  H15C 5140   0.188   1.942   5.973  2.0526 -0.5927 -0.3091
   64SAPC   C11 5141  -0.102   1.752   6.209 -0.3326 -0.6840  0.0297
   64SAPC  H11A 5142  -0.191   1.798   6.162  0.1838 -0.4581 -0.7290
   64SAPC  H11B 5143  -0.100   1.774   6.318  0.8323  2.3484 -0.5565
   64SAPC     P 5144  -0.248   1.540   6.264 -0.1449 -0.2523 -0.0452
   64SAPC   O13 5145  -0.328   1.640   6.338 -0.4719 -0.5709  0.0920
   64SAPC   O14 5146  -0.322   1.459   6.163  0.1952  0.2213  0.4408
   64SAPC   O12 5147  -0.116   1.611   6.202 -0.2413 -0.4287  0.4583
   64SAPC   O11 5148  -0.176   1.442   6.360 -0.0462  0.5387  0.3642
   64SAPC    C1 5149  -0.165   1.464   6.507  0.2950 -0.5181  0.1251
   64SAPC    HA 5150  -0.164   1.573   6.531  1.3377 -0.4839 -0.0764
   64SAPC    HB 5151  -0.250   1.422   6.565 -0.5543  2.5486  1.2012
   64SAPC    C2 5152  -0.030   1.423   6.562  0.2792 -0.5728 -0.7876
   64SAPC    HS 5153   0.040   1.504   6.533  1.3905 -1.5325 -0.8617
   64SAPC   O21 5154   0.014   1.298   6.504 -0.3953  0.1937 -0.3904
   64SAPC   C21 5155   0.157   1.286   6.510 -0.4279 -0.1555  0.0163
   64SAPC   O22 5156   0.229   1.375   6.544 -0.3045  0.2526 -0.5367
   64SAPC   C22 5157   0.199   1.162   6.441  0.7180  0.2329 -0.0684
   64SAPC   H2R 5158   0.156   1.168   6.339  1.4931  1.3942 -0.3300
   64SAPC   H2S 5159   0.310   1.158   6.434  0.8791 -0.4405  2.4809
   64SAPC    C3 5160  -0.039   1.415   6.720  0.1609  0.2551  0.0599
   64SAPC    HX 5161   0.062   1.397   6.764 -0.8410  0.2443  2.4480
   64SAPC    HY 5162  -0.109   1.333   6.747  0.3968  0.1501  0.3603
   64SAPC   O31 5163  -0.096   1.534   6.791  0.4260  0.0182  0.1637
   64SAPC   C31 5164  -0.015   1.636   6.818  0.3533 -0.4740  0.1738
   64SAPC   O32 5165   0.107   1.634   6.797 -0.8119  0.3457 -0.2345
   64SAPC   C32 5166  -0.090   1.747   6.881 -0.2972 -0.0716  0.1181
   64SAPC   H2X 5167  -0.197   1.731   6.859 -0.0378 -0.9392 -0.5327
   64SAPC   H2Y 5168  -0.063   1.837   6.821  1.2637 -0.7731 -0.2617
   64SAPC   C23 5169   0.144   1.022   6.497 -0.5442 -0.0589  0.2906
   64SAPC   H3R 5170   0.196   0.932   6.458 -1.1658  0.5315 -2.0340
   64SAPC   H3S 5171   0.036   1.007   6.475 -0.5466 -0.9728  0.9241
   64SAPC   C24 5172   0.159   1.011   6.652  0.0261  0.4246  0.2981
   64SAPC   H4R 5173   0.087   0.937   6.692  1.4012 -1.4277 -0.5750
   64SAPC   H4S 5174   0.114   1.102   6.698  1.4670  0.9919  0.6400
   64SAPC   C25 5175   0.291   0.970   6.705 -0.3366 -0.0849  0.0990
   64SAPC   H5R 5176   0.344   0.880   6.673  1.6042  1.3372 -0.7951
   64SAPC   C26 5177   0.350   1.045   6.800 -0.0632 -0.3626  0.2129
   64SAPC   H6R 5178   0.445   1.010   6.842 -0.0982  1.3030  1.7335
   64SAPC   C27 5179   0.288   1.170   6.861  0.2218 -0.2752 -0.2902
   64SAPC   H7R 5180   0.185   1.142   6.893 -0.2071 -0.4393 -1.7910
   64SAPC   H7S 5181   0.269   1.251   6.788 -0.5049 -1.8606 -1.8975
   64SAPC   C28 5182   0.356   1.243   6.975 -0.6667  0.0046 -0.3363
   64SAPC   H8R 5183   0.428   1.321   6.944 -0.2099 -0.5362 -0.6524
   64SAPC   C29 5184   0.353   1.210   7.106 -0.4824 -0.1537 -0.0680
   64SAPC   H9R 5185   0.416   1.260   7.182  0.4632 -2.4394  0.6861
   64SAPC  C210 5186   0.264   1.101   7.155 -0.7372 -0.0047  0.0186
   64SAPC  H10R 5187   0.242   1.021   7.081 -0.1792 -0.8641  0.7651
   64SAPC  H10S 5188   0.161   1.138   7.173 -0.4926 -0.1930  1.8393
   64SAPC  C211 5189   0.307   1.024   7.281 -0.3274  0.5027  0.2323
   64SAPC  H11R 5190   0.356   0.931   7.248 -1.0448  0.2245 -0.0583
   64SAPC  C212 5191   0.283   1.051   7.411  0.6314  0.8197  0.2833
   64SAPC  H12R 5192   0.324   0.985   7.489 -0.6425 -1.1892 -0.7075
   64SAPC  C213 5193   0.217   1.167   7.487 -0.0037  0.1907  0.2025
   64SAPC  H13R 5194   0.146   1.226   7.426 -0.9399  1.0442  2.0560
   64SAPC  H13S 5195   0.299   1.241   7.505 -2.4063  3.2932 -1.2509
   64SAPC  C214 5196   0.153   1.133   7.624 -0.2098 -0.0962 -0.5080
   64SAPC  H14R 5197   0.043   1.136   7.626 -0.2220 -0.4040 -0.6340
   64SAPC  C215 5198   0.219   1.113   7.735 -0.2123 -0.3062  0.0352
   64SAPC  H15R 5199   0.165   1.087   7.828 -1.7565  0.5072 -0.6277
   64SAPC  C216 5200   0.369   1.111   7.762  0.5720  0.0415 -0.0675
   64SAPC  H16R 5201   0.394   1.204   7.816  0.0224  1.3540 -2.0322
   64SAPC  H16S 5202   0.427   1.105   7.668 -1.6014 -0.6969 -1.4071
   64SAPC  C217 5203   0.384   0.988   7.852  0.0837  0.3163 -0.2104
   64SAPC  H17R 5204   0.338   0.894   7.815  1.7956 -1.4354  2.0344
   64SAPC  H17S 5205   0.329   1.016   7.945 -2.5586  0.1635 -1.6677
   64SAPC  C218 5206   0.529   0.954   7.897  0.2216 -0.0334 -0.3604
   64SAPC  H18R 5207   0.585   1.044   7.933 -1.0282  0.0002  1.6300
   64SAPC  H18S 5208   0.579   0.916   7.806  1.8209  1.1917 -0.0274
   64SAPC  C219 5209   0.533   0.848   8.005  0.5859  0.2377 -0.1851
   64SAPC  H19R 5210   0.636   0.805   8.007  1.1250  1.5057 -0.3317
   64SAPC  H19S 5211   0.461   0.771   7.970  1.0872  0.3654 -1.5403
   64SAPC  C220 5212   0.499   0.896   8.138  0.6710 -0.2966 -0.5731
   64SAPC  H20R 5213   0.512   0.815   8.213 -1.4023 -0.8718 -0.8102
   64SAPC  H20S 5214   0.393   0.928   8.140 -0.5053 -3.9821  0.7370
   64SAPC  H20T 5215   0.567   0.978   8.170 -1.4926  2.2167 -2.2882
   64SAPC   C33 5216  -0.065   1.762   7.031 -0.2309 -0.6594 -0.3910
   64SAPC   H3X 5217   0.044   1.772   7.050 -0.4683  1.2273  0.0134
   64SAPC   H3Y 5218  -0.103   1.677   7.092  2.1386 -1.6344 -0.2226
   64SAPC   C34 5219  -0.119   1.898   7.072  0.1221  0.0673 -0.0565
   64SAPC   H4X 5220  -0.229   1.895   7.060 -0.0021 -0.7657  1.1631
   64SAPC   H4Y 5221  -0.086   1.974   6.998  2.0864 -2.4169 -1.8093
   64SAPC   C35 5222  -0.086   1.944   7.211  0.9651  0.3455 -0.6802
   64SAPC   H5X 5223  -0.100   2.054   7.225 -1.3635 -0.2960  2.7379
   64SAPC   H5Y 5224   0.022   1.925   7.229  0.6972 -1.1007 -0.5263
   64SAPC   C36 5225  -0.165   1.878   7.321  0.3780  0.0744 -0.7990
   64SAPC   H6X 5226  -0.143   1.769   7.328 -2.2898 -0.5291 -0.9018
   64SAPC   H6Y 5227  -0.273   1.888   7.293  0.0564  0.1818  0.4685
   64SAPC   C37 5228  -0.147   1.919   7.465 -0.5936  0.0631  0.0461
   64SAPC   H7X 5229  -0.175   2.026   7.466 -0.4499  0.0933  1.7091
   64SAPC   H7Y 5230  -0.039   1.898   7.477 -1.0789 -2.4956  0.1331
   64SAPC   C38 5231  -0.230   1.840   7.570 -0.4865 -0.8306 -0.4891
   64SAPC   H8X 5232  -0.189   1.739   7.551  0.1824 -0.7210  0.3311
   64SAPC   H8Y 5233  -0.336   1.835   7.537  0.1250 -1.5545 -2.3900
   64SAPC   C39 5234  -0.217   1.901   7.712 -0.0669  1.1469  0.6656
   64SAPC   H9X 5235  -0.116   1.938   7.741 -0.4728  1.9027  1.1356
   64SAPC   H9Y 5236  -0.249   1.826   7.787 -0.0669 -0.0759 -0.5303
   64SAPC  C310 5237  -0.303   2.021   7.730 -0.2052  0.5347  0.6328
   64SAPC  H10X 5238  -0.400   1.987   7.689  0.1419  0.8527 -0.4465
   64SAPC  H10Y 5239  -0.268   2.108   7.671 -0.6528 -0.7677 -1.5962
   64SAPC  C311 5240  -0.339   2.052   7.880 -0.5939  0.5039  1.1594
   64SAPC  H11X 5241  -0.246   2.086   7.929 -0.1951 -0.0683  0.8144
   64SAPC  H11Y 5242  -0.372   1.956   7.925 -0.7389 -0.3404 -0.6980
   64SAPC  C312 5243  -0.447   2.159   7.879 -0.0196  0.1295  0.3586
   64SAPC  H12X 5244  -0.549   2.124   7.853  0.7302 -1.3767 -0.6202
   64SAPC  H12Y 5245  -0.433   2.242   7.805  1.4512  0.3640  0.9003
   64SAPC  C313 5246  -0.445   2.224   8.023  0.3932  0.3683 -0.6190
   64SAPC  H13X 5247  -0.341   2.235   8.059  0.2409  0.3110 -0.1615
   64SAPC  H13Y 5248  -0.480   2.147   8.095  0.6293  0.0735 -0.8169
   64SAPC  C314 5249  -0.525   2.355   8.034 -0.1095 -0.0247 -0.4759
   64SAPC  H14X 5250  -0.626   2.331   7.995  0.0867  0.3641 -1.2186
   64SAPC  H14Y 5251  -0.479   2.432   7.969 -1.5654 -0.9658 -2.6939
   64SAPC  C315 5252  -0.542   2.402   8.179 -0.4669 -0.6925 -0.1972
   64SAPC  H15X 5253  -0.610   2.490   8.183  0.3980  0.1832 -3.4049
   64SAPC  H15Y 5254  -0.441   2.432   8.215 -0.3314  0.0133 -1.1539
   64SAPC  C316 5255  -0.581   2.296   8.288  0.9250 -0.5761  0.0886
   64SAPC  H16X 5256  -0.486   2.250   8.321  0.2907 -1.8780  0.1228
   64SAPC  H16Y 5257  -0.645   2.217   8.245  0.7961  0.1849 -1.1318
   64SAPC  C317 5258  -0.638   2.355   8.418 -0.3120  0.2870  0.4083
   64SAPC  H17X 5259  -0.635   2.273   8.493  2.6490  0.5646  0.6583
   64SAPC  H17Y 5260  -0.746   2.382   8.413 -0.4181  0.1597  1.6725
   64SAPC  C318 5261  -0.558   2.469   8.480 -0.2476  0.2452 -0.2634
   64SAPC  H18X 5262  -0.621   2.507   8.562 -0.2605 -0.1388 -0.0912
   64SAPC  H18Y 5263  -0.536   2.555   8.414  0.5184  1.2474  1.2669
   64SAPC  H18Z 5264  -0.459   2.437   8.520 -1.7524 -2.4220  1.4474
   65SAPC     N 5265   0.671   2.881   6.045  0.3515 -0.1675 -0.7495
   65SAPC   C12 5266   0.638   2.845   6.183  0.4140 -0.0226 -0.7875
   65SAPC  H12A 5267   0.590   2.928   6.234  4.4666 -0.2820  3.8261
   65SAPC  H12B 5268   0.726   2.815   6.238  0.6927 -1.1721 -1.8460
   65SAPC   C13 5269   0.775   2.990   6.052 -0.4718 -0.2307  0.1431
   65SAPC  H13A 5270   0.746   3.074   6.113  1.0053 -1.0199  1.9710
   65SAPC  H13B 5271   0.865   2.964   6.105  0.7215  0.6528 -1.3866
   65SAPC  H13C 5272   0.810   3.026   5.956 -1.7067  2.0153  0.5028
   65SAPC   C14 5273   0.734   2.755   5.979  0.9514  0.0212 -0.0027
   65SAPC  H14A 5274   0.652   2.699   5.936  1.6005 -1.2373  0.3967
   65SAPC  H14B 5275   0.795   2.795   5.899 -0.2679  1.8019 -0.0695
   65SAPC  H14C 5276   0.798   2.708   6.052 -1.9651 -1.0189  1.9783
   65SAPC   C15 5277   0.568   2.936   5.961 -0.0477  0.8376  0.4229
   65SAPC  H15A 5278   0.520   3.021   6.007 -1.1666 -0.1530  1.1041
   65SAPC  H15B 5279   0.604   2.965   5.863  1.4217 -1.1913  0.3200
   65SAPC  H15C 5280   0.491   2.861   5.954  0.4769  0.4147 -1.0024
   65SAPC   C11 5281   0.528   2.724   6.186  0.6251 -0.9450  0.2605
   65SAPC  H11A 5282   0.509   2.697   6.292  3.6962  1.8781  1.6240
   65SAPC  H11B 5283   0.567   2.629   6.143 -0.6453 -0.6644 -1.5580
   65SAPC     P 5284   0.312   2.625   6.082 -0.2097  0.0467  0.0336
   65SAPC   O13 5285   0.186   2.683   6.033  0.2601  0.3821  0.4785
   65SAPC   O14 5286   0.379   2.543   5.981 -0.1642  0.3531 -0.3059
   65SAPC   O12 5287   0.404   2.760   6.117 -0.3659  0.7229 -0.3703
   65SAPC   O11 5288   0.303   2.563   6.226 -0.3837 -0.3595 -0.2874
   65SAPC    C1 5289   0.184   2.597   6.300  0.6114 -0.6116 -0.2165
   65SAPC    HA 5290   0.097   2.574   6.234  0.5874  0.4873 -0.5821
   65SAPC    HB 5291   0.174   2.525   6.384  1.6678  1.0765  1.4041
   65SAPC    C2 5292   0.188   2.739   6.356 -0.4419 -0.6850  0.0088
   65SAPC    HS 5293   0.195   2.800   6.263  0.6160 -0.9606 -0.0921
   65SAPC   O21 5294   0.298   2.751   6.447  0.2932  0.8008  0.3428
   65SAPC   C21 5295   0.346   2.863   6.494  0.2180 -0.6560  0.7472
   65SAPC   O22 5296   0.323   2.976   6.451  0.0500  0.7180  0.1767
   65SAPC   C22 5297   0.441   2.827   6.609  0.3137 -0.2808  0.1647
   65SAPC   H2R 5298   0.395   2.748   6.673  2.3136 -1.6654 -0.0617
   65SAPC   H2S 5299   0.525   2.779   6.554 -0.8621 -0.9000 -1.1256
   65SAPC    C3 5300   0.059   2.811   6.419  0.1249  0.9176 -0.6619
   65SAPC    HX 5301  -0.019   2.837   6.344 -1.2437  2.0562  1.1045
   65SAPC    HY 5302   0.086   2.913   6.452 -0.0216  0.7205  0.0698
   65SAPC   O31 5303   0.001   2.746   6.541 -0.4160  0.5478 -0.3090
   65SAPC   C31 5304  -0.115   2.681   6.526  0.3181  0.1448  0.1648
   65SAPC   O32 5305  -0.185   2.692   6.427 -0.0953  0.1381 -0.4662
   65SAPC   C32 5306  -0.137   2.592   6.644 -0.0759 -0.1572  0.1473
   65SAPC   H2X 5307  -0.042   2.578   6.701  0.4446 -1.3398 -0.9802
   65SAPC   H2Y 5308  -0.163   2.494   6.599 -0.2132  0.5717 -1.4056
   65SAPC   C23 5309   0.493   2.958   6.667  0.1315  0.5399  0.4404
   65SAPC   H3R 5310   0.412   3.018   6.714 -0.4516 -1.3955  1.9686
   65SAPC   H3S 5311   0.547   3.030   6.602  1.5684  0.2837  1.3181
   65SAPC   C24 5312   0.589   2.923   6.782 -0.8679  0.4868  0.6080
   65SAPC   H4R 5313   0.540   2.842   6.841 -1.4884 -0.4835 -1.1975
   65SAPC   H4S 5314   0.598   3.008   6.852 -0.3077 -0.2479  1.4296
   65SAPC   C25 5315   0.720   2.862   6.728 -0.0217  0.6484 -0.0264
   65SAPC   H5R 5316   0.708   2.766   6.674 -0.2583 -0.2953  1.6791
   65SAPC   C26 5317   0.844   2.908   6.743 -0.3699 -0.8212 -0.1113
   65SAPC   H6R 5318   0.936   2.861   6.706 -0.0218  0.4782 -0.9143
   65SAPC   C27 5319   0.868   3.037   6.821 -0.3277  0.3320  0.1172
   65SAPC   H7R 5320   0.805   3.036   6.913 -1.2798  1.5394 -0.4936
   65SAPC   H7S 5321   0.847   3.125   6.755  1.5815  0.3204 -0.5402
   65SAPC   C28 5322   1.004   3.055   6.873 -0.1816  0.8325  0.1732
   65SAPC   H8R 5323   1.064   3.129   6.817 -0.2969 -0.6473 -1.9370
   65SAPC   C29 5324   1.067   2.990   6.970  1.3194 -0.5296 -0.7023
   65SAPC   H9R 5325   1.174   3.012   6.984  0.3456  2.9817  1.9245
   65SAPC  C210 5326   1.015   2.872   7.053  0.6936  0.1747 -0.1951
   65SAPC  H10R 5327   1.091   2.793   7.041 -1.8341 -2.2881 -0.5556
   65SAPC  H10S 5328   0.929   2.821   7.003  1.8420 -0.7103 -1.2776
   65SAPC  C211 5329   0.989   2.881   7.201 -0.6157 -0.5743 -0.4903
   65SAPC  H11R 5330   1.084   2.877   7.257 -1.3352 -0.1071  0.7802
   65SAPC  C212 5331   0.876   2.881   7.270 -0.2947  0.5385 -0.4467
   65SAPC  H12R 5332   0.878   2.901   7.378  1.5863 -1.6569 -0.0613
   65SAPC  C213 5333   0.744   2.872   7.200  0.1566  0.1192  0.1016
   65SAPC  H13R 5334   0.691   2.790   7.253  0.1133  0.3915  0.4773
   65SAPC  H13S 5335   0.758   2.839   7.095 -1.0929  0.4963 -0.1920
   65SAPC  C214 5336   0.669   3.002   7.222 -0.0814  0.5798  0.3890
   65SAPC  H14R 5337   0.688   3.071   7.138  1.3631 -0.3359 -0.0594
   65SAPC  C215 5338   0.592   3.035   7.324  0.3006  0.0353 -0.9936
   65SAPC  H15R 5339   0.535   3.129   7.319 -0.9130 -0.6135  0.3942
   65SAPC  C216 5340   0.563   2.952   7.453 -0.2014  0.0012  0.5906
   65SAPC  H16R 5341   0.625   2.861   7.461  1.3518  0.8345 -1.4427
   65SAPC  H16S 5342   0.457   2.917   7.449 -0.3652  0.6354 -3.9886
   65SAPC  C217 5343   0.580   3.032   7.583  0.2053 -0.6615  0.0122
   65SAPC  H17R 5344   0.494   3.103   7.577 -2.0406 -3.3531 -0.9913
   65SAPC  H17S 5345   0.674   3.091   7.584  0.2425 -0.7304  0.7846
   65SAPC  C218 5346   0.579   2.954   7.711 -0.3046 -0.5015 -0.4883
   65SAPC  H18R 5347   0.496   2.882   7.730  0.4754 -1.8104 -1.9570
   65SAPC  H18S 5348   0.579   3.026   7.796 -0.4515 -0.4855 -0.5012
   65SAPC  C219 5349   0.697   2.865   7.723  0.1374 -0.6177  0.1544
   65SAPC  H19R 5350   0.711   2.793   7.639 -2.7378 -0.3884 -0.5576
   65SAPC  H19S 5351   0.690   2.803   7.815  1.0599 -0.4742  0.3290
   65SAPC  C220 5352   0.838   2.938   7.725  0.0180 -0.3804 -0.2134
   65SAPC  H20R 5353   0.814   3.023   7.793  2.1572 -0.0962  0.2142
   65SAPC  H20S 5354   0.864   2.975   7.623  0.3523 -0.2988 -0.1003
   65SAPC  H20T 5355   0.918   2.878   7.773 -0.4510  1.8956  3.6411
   65SAPC   C33 5356  -0.246   2.626   6.748  0.1135  0.6527 -0.3031
   65SAPC   H3X 5357  -0.341   2.644   6.693 -0.7897  0.8234  1.2888
   65SAPC   H3Y 5358  -0.223   2.721   6.800 -2.3133 -1.9268  6.0099
   65SAPC   C34 5359  -0.249   2.509   6.855  0.1968  0.0053  0.0369
   65SAPC   H4X 5360  -0.227   2.415   6.798  3.6336  1.7405 -1.6799
   65SAPC   H4Y 5361  -0.344   2.500   6.911  1.2218  1.4996  2.0824
   65SAPC   C35 5362  -0.135   2.533   6.959 -0.7119  0.4570 -0.0538
   65SAPC   H5X 5363  -0.132   2.641   6.987 -3.0364  0.6501 -0.4331
   65SAPC   H5Y 5364  -0.038   2.513   6.909 -1.5844  0.6890 -1.9154
   65SAPC   C36 5365  -0.161   2.444   7.073 -0.2998 -0.2792  0.6087
   65SAPC   H6X 5366  -0.151   2.338   7.042  1.7177  0.2255 -0.6030
   65SAPC   H6Y 5367  -0.267   2.465   7.099 -1.3603 -1.1361 -2.8268
   65SAPC   C37 5368  -0.077   2.472   7.190  0.2838  0.8215 -0.4713
   65SAPC   H7X 5369   0.032   2.478   7.169 -0.0110  0.2056 -2.1943
   65SAPC   H7Y 5370  -0.098   2.395   7.267 -0.5630 -0.1161 -1.6255
   65SAPC   C38 5371  -0.107   2.616   7.254  0.2567 -0.1664 -0.8900
   65SAPC   H8X 5372  -0.215   2.619   7.280  0.0320 -1.3686 -1.6574
   65SAPC   H8Y 5373  -0.085   2.699   7.184  1.0590  0.3956  0.0129
   65SAPC   C39 5374  -0.021   2.646   7.378 -0.5199 -0.5989  0.0921
   65SAPC   H9X 5375  -0.060   2.742   7.418 -2.8487 -2.0931  1.5324
   65SAPC   H9Y 5376   0.084   2.665   7.348 -1.4432  1.6823 -1.8309
   65SAPC  C310 5377  -0.027   2.550   7.497  0.9756 -0.3772  0.6790
   65SAPC  H10X 5378   0.058   2.574   7.565  0.7761  0.1488  0.7475
   65SAPC  H10Y 5379  -0.021   2.442   7.473  0.7005  0.1315 -1.9113
   65SAPC  C311 5380  -0.156   2.581   7.579 -0.2329 -0.0417 -0.1314
   65SAPC  H11X 5381  -0.180   2.487   7.633  0.0219  0.0437  0.1282
   65SAPC  H11Y 5382  -0.243   2.595   7.511 -1.1144  0.6564  1.1197
   65SAPC  C312 5383  -0.153   2.708   7.670  0.9008  0.3826  0.2363
   65SAPC  H12X 5384  -0.249   2.747   7.709 -0.8859 -4.7133  1.1985
   65SAPC  H12Y 5385  -0.101   2.786   7.610  1.6863  0.5130  1.0821
   65SAPC  C313 5386  -0.078   2.692   7.793 -0.0108  0.7845  0.2676
   65SAPC  H13X 5387  -0.083   2.780   7.861 -1.2067  1.0266 -0.1239
   65SAPC  H13Y 5388   0.029   2.677   7.769 -0.2290  0.4543 -0.4805
   65SAPC  C314 5389  -0.135   2.582   7.883 -0.1550 -0.9086 -0.4096
   65SAPC  H14X 5390  -0.142   2.487   7.827 -2.6377 -1.0375  0.0648
   65SAPC  H14Y 5391  -0.243   2.606   7.894  0.7554  4.0435 -0.8617
   65SAPC  C315 5392  -0.065   2.568   8.022  0.2730 -0.1030  0.2028
   65SAPC  H15X 5393  -0.053   2.661   8.082  2.3317  1.1840 -2.1063
   65SAPC  H15Y 5394   0.038   2.532   8.002 -0.2208 -1.3797 -0.0856
   65SAPC  C316 5395  -0.154   2.476   8.101 -0.5729  0.2675  0.0112
   65SAPC  H16X 5396  -0.173   2.380   8.047  0.6023  0.0525 -0.0379
   65SAPC  H16Y 5397  -0.249   2.528   8.124  0.4894  1.6250  1.4261
   65SAPC  C317 5398  -0.080   2.445   8.233 -0.1723 -0.4431  0.0828
   65SAPC  H17X 5399  -0.075   2.543   8.284  0.3632 -1.1894  1.5108
   65SAPC  H17Y 5400   0.021   2.401   8.217 -0.1132 -0.1318 -0.3955
   65SAPC  C318 5401  -0.151   2.349   8.325 -0.6662 -0.2805  0.1177
   65SAPC  H18X 5402  -0.174   2.254   8.272 -2.0391 -0.6925  1.4083
   65SAPC  H18Y 5403  -0.241   2.407   8.355 -1.3739 -0.9675 -0.6366
   65SAPC  H18Z 5404  -0.082   2.330   8.409 -0.9762 -0.8516  0.2456
   66SAPC     N 5405   4.011   2.105   5.770  0.0855 -0.0691 -0.5941
   66SAPC   C12 5406   4.127   2.181   5.821  0.4495  0.3703  0.4858
   66SAPC  H12A 5407   4.186   2.230   5.745  1.6544  0.3324  1.3842
   66SAPC  H12B 5408   4.198   2.109   5.858 -0.9430 -2.5078 -2.2246
   66SAPC   C13 5409   4.060   2.031   5.651  0.1970  1.0883  0.2344
   66SAPC  H13A 5410   4.104   2.097   5.578  0.8095  1.3055  0.7972
   66SAPC  H13B 5411   4.131   1.955   5.682  0.3680  0.2557 -2.1613
   66SAPC  H13C 5412   3.979   1.975   5.607  1.1030 -1.5349  1.7477
   66SAPC   C14 5413   3.966   2.007   5.874 -0.1754  0.2810 -0.3546
   66SAPC  H14A 5414   3.939   2.049   5.969 -0.2748 -0.4402 -0.0635
   66SAPC  H14B 5415   3.879   1.950   5.845 -0.4967  1.5592 -2.0010
   66SAPC  H14C 5416   4.040   1.932   5.897  0.7420  1.8307  1.8528
   66SAPC   C15 5417   3.901   2.191   5.721  0.3751 -0.5305 -0.1099
   66SAPC  H15A 5418   3.869   2.250   5.806  3.6259  0.3603  0.5950
   66SAPC  H15B 5419   3.937   2.257   5.644 -2.2275  0.3777 -0.5858
   66SAPC  H15C 5420   3.809   2.149   5.685  0.2399 -1.0741  0.8642
   66SAPC   C11 5421   4.095   2.291   5.937  0.4971 -0.6400 -0.3380
   66SAPC  H11A 5422   4.009   2.354   5.906 -1.0723 -1.6690  1.7763
   66SAPC  H11B 5423   4.189   2.351   5.944 -0.5860  0.9931  0.8245
   66SAPC     P 5424   4.172   2.186   6.155  0.3101  0.3232 -0.5957
   66SAPC   O13 5425   4.247   2.078   6.089  0.0917 -0.1771 -0.3800
   66SAPC   O14 5426   4.249   2.308   6.202 -0.2511 -0.3298  0.0344
   66SAPC   O12 5427   4.056   2.229   6.062  0.1499  0.3576  0.1924
   66SAPC   O11 5428   4.090   2.130   6.272  0.0362 -0.4147 -0.4136
   66SAPC    C1 5429   4.030   2.189   6.385 -0.2023 -0.6487 -0.0219
   66SAPC    HA 5430   4.080   2.280   6.425  0.2305  0.4412 -2.8832
   66SAPC    HB 5431   3.923   2.213   6.370 -0.0382  0.3645  0.3894
   66SAPC    C2 5432   4.028   2.092   6.510 -0.2361 -0.0737 -0.6027
   66SAPC    HS 5433   3.954   2.126   6.584  1.5522  1.8867  0.3325
   66SAPC   O21 5434   4.160   2.098   6.567 -0.8612 -0.4087  0.3691
   66SAPC   C21 5435   4.167   2.054   6.691  0.8112  0.4214 -0.6026
   66SAPC   O22 5436   4.072   2.042   6.767 -0.5633  0.8039 -0.0799
   66SAPC   C22 5437   4.318   2.039   6.729  0.1222 -0.0065  0.7715
   66SAPC   H2R 5438   4.356   1.952   6.672 -1.2367 -1.6167  2.2988
   66SAPC   H2S 5439   4.377   2.124   6.688 -3.0435  0.7198 -2.6132
   66SAPC    C3 5440   3.972   1.948   6.480  0.3163  0.6653 -0.6301
   66SAPC    HX 5441   4.043   1.897   6.410 -1.2658 -0.1030 -1.7069
   66SAPC    HY 5442   3.870   1.946   6.436  0.3489  0.3798 -0.6918
   66SAPC   O31 5443   3.969   1.855   6.587  0.4653  0.0100 -0.0726
   66SAPC   C31 5444   3.870   1.870   6.671 -0.7291  0.5308 -0.2503
   66SAPC   O32 5445   3.787   1.961   6.672  0.4154 -0.3104  0.0315
   66SAPC   C32 5446   3.872   1.756   6.770 -0.9735  0.4388  0.4554
   66SAPC   H2X 5447   3.975   1.757   6.813 -1.3260  0.3061  1.3096
   66SAPC   H2Y 5448   3.867   1.667   6.704  0.7018  1.3508 -0.9208
   66SAPC   C23 5449   4.354   2.006   6.871  0.3758 -1.0140 -0.3139
   66SAPC   H3R 5450   4.445   1.944   6.859 -0.0392 -1.5142 -0.9495
   66SAPC   H3S 5451   4.273   1.948   6.920 -0.4247  0.9426  0.7166
   66SAPC   C24 5452   4.395   2.124   6.970 -0.2736 -0.3779  0.0526
   66SAPC   H4R 5453   4.489   2.164   6.927 -2.0342  2.9355 -0.9315
   66SAPC   H4S 5454   4.417   2.082   7.070  2.7614 -2.0050 -1.2475
   66SAPC   C25 5455   4.276   2.218   6.968 -0.0447 -0.7626  0.4502
   66SAPC   H5R 5456   4.178   2.171   6.985  0.3708 -1.5637  0.6579
   66SAPC   C26 5457   4.281   2.350   6.963 -0.4419 -0.6041  0.6901
   66SAPC   H6R 5458   4.182   2.398   6.971 -0.6419 -1.0197  0.7326
   66SAPC   C27 5459   4.403   2.447   6.951  0.2998 -0.3278  0.3239
   66SAPC   H7R 5460   4.495   2.386   6.960  0.4477 -0.3805 -1.4689
   66SAPC   H7S 5461   4.403   2.521   7.034  1.3402 -2.1595  2.0171
   66SAPC   C28 5462   4.390   2.515   6.820  0.8209 -0.0868 -1.3578
   66SAPC   H8R 5463   4.363   2.450   6.736  1.0727 -0.6589 -0.9957
   66SAPC   C29 5464   4.427   2.638   6.783 -0.1513  0.1776  0.3996
   66SAPC   H9R 5465   4.409   2.673   6.680  1.3166 -0.0307  0.0635
   66SAPC  C210 5466   4.494   2.740   6.878  0.4415 -0.3918  0.8728
   66SAPC  H10R 5467   4.408   2.779   6.936 -0.3526 -0.3827 -0.2961
   66SAPC  H10S 5468   4.531   2.813   6.802  2.3589 -2.1551  0.0749
   66SAPC  C211 5469   4.611   2.717   6.967 -0.2925 -0.4485  0.8061
   66SAPC  H11R 5470   4.663   2.621   6.964  0.9411  0.2218  0.2224
   66SAPC  C212 5471   4.647   2.809   7.059 -0.7060  0.6272  0.4316
   66SAPC  H12R 5472   4.735   2.794   7.123  0.7982 -1.7062 -2.0795
   66SAPC  C213 5473   4.587   2.943   7.087  0.0884  0.4661  0.3591
   66SAPC  H13R 5474   4.532   2.944   7.184  1.0306 -0.8599  0.9348
   66SAPC  H13S 5475   4.523   2.966   6.999  1.4953 -1.3544 -1.1924
   66SAPC  C214 5476   4.696   3.053   7.078 -0.6248 -0.7267 -0.0516
   66SAPC  H14R 5477   4.755   3.064   6.986  3.0390 -2.6648  1.9498
   66SAPC  C215 5478   4.734   3.127   7.188 -0.4173 -0.3957 -0.3308
   66SAPC  H15R 5479   4.802   3.212   7.174 -2.4602  1.4111  0.4164
   66SAPC  C216 5480   4.681   3.103   7.327 -0.0254 -0.1474  0.2828
   66SAPC  H16R 5481   4.743   3.021   7.369  1.9543  1.3135  0.2601
   66SAPC  H16S 5482   4.573   3.074   7.334  0.1193 -0.5747  0.8192
   66SAPC  C217 5483   4.699   3.222   7.414  0.5151 -0.6882  0.4613
   66SAPC  H17R 5484   4.622   3.299   7.393  1.0710 -0.5637 -1.1747
   66SAPC  H17S 5485   4.797   3.274   7.416  0.0183  0.3126 -0.8204
   66SAPC  C218 5486   4.687   3.180   7.560  0.1898 -0.3635 -0.5074
   66SAPC  H18R 5487   4.764   3.103   7.582  1.6188  0.7812 -1.4033
   66SAPC  H18S 5488   4.588   3.133   7.574 -1.0195  2.1404 -0.4135
   66SAPC  C219 5489   4.706   3.298   7.660 -0.3454  0.2415  0.2557
   66SAPC  H19R 5490   4.604   3.336   7.685 -0.3858 -0.2241  0.8198
   66SAPC  H19S 5491   4.766   3.374   7.607  1.7649 -1.3099  0.3505
   66SAPC  C220 5492   4.777   3.253   7.785  0.2507  0.0548  0.1958
   66SAPC  H20R 5493   4.879   3.215   7.760 -0.7748 -1.4918 -1.8117
   66SAPC  H20S 5494   4.709   3.188   7.845 -1.3219  1.9302  0.4685
   66SAPC  H20T 5495   4.802   3.334   7.856  1.7491  0.4573 -0.7720
   66SAPC   C33 5496   3.765   1.752   6.883 -0.2920  0.1868  0.1715
   66SAPC   H3X 5497   3.760   1.652   6.933  2.2874 -0.7546 -1.3199
   66SAPC   H3Y 5498   3.664   1.780   6.848 -0.9159  0.1918  1.9401
   66SAPC   C34 5499   3.817   1.839   7.002  0.0578  0.0067  0.1231
   66SAPC   H4X 5500   3.847   1.937   6.960  1.8569 -0.8088 -0.5635
   66SAPC   H4Y 5501   3.901   1.790   7.055 -0.8392  0.6056  2.1177
   66SAPC   C35 5502   3.717   1.854   7.112 -0.1679 -0.0464  0.2723
   66SAPC   H5X 5503   3.685   1.756   7.152  1.3860 -0.9153 -0.5330
   66SAPC   H5Y 5504   3.630   1.902   7.063  0.4279  0.9305  0.1545
   66SAPC   C36 5505   3.779   1.943   7.222 -0.1816  0.4411  0.3304
   66SAPC   H6X 5506   3.796   2.047   7.187 -0.7489  0.1665 -0.7871
   66SAPC   H6Y 5507   3.881   1.906   7.244 -0.9273 -1.5572  0.5061
   66SAPC   C37 5508   3.705   1.944   7.357  0.3843  0.1935 -0.6846
   66SAPC   H7X 5509   3.659   1.845   7.373  1.4786  0.0297  1.5679
   66SAPC   H7Y 5510   3.618   2.012   7.343 -0.3873 -0.5320  0.5232
   66SAPC   C38 5511   3.771   1.971   7.493  0.8164 -0.2171 -0.5329
   66SAPC   H8X 5512   3.814   2.073   7.484 -0.1680  0.2673  0.1750
   66SAPC   H8Y 5513   3.865   1.916   7.512  0.4405  0.4560  3.6392
   66SAPC   C39 5514   3.680   1.974   7.614  0.2565 -0.2592  0.3356
   66SAPC   H9X 5515   3.612   1.886   7.615 -2.0922  1.5102  1.7740
   66SAPC   H9Y 5516   3.605   2.054   7.636  0.9328  0.1345  1.2685
   66SAPC  C310 5517   3.761   1.985   7.746  0.2688  0.1490  0.5046
   66SAPC  H10X 5518   3.781   2.093   7.763 -1.3235 -0.0027  3.7089
   66SAPC  H10Y 5519   3.864   1.942   7.743  0.8066  1.4898 -0.5978
   66SAPC  C311 5520   3.683   1.934   7.870 -0.6010 -0.3098  0.4444
   66SAPC  H11X 5521   3.673   1.824   7.858 -0.7739 -0.0414 -2.2659
   66SAPC  H11Y 5522   3.586   1.988   7.864  0.2782  1.0117 -2.6551
   66SAPC  C312 5523   3.749   1.978   7.999  0.8044  0.1231  0.7888
   66SAPC  H12X 5524   3.733   2.088   8.004  0.6579  0.2064 -1.0438
   66SAPC  H12Y 5525   3.859   1.962   7.998  0.3549 -3.3834  1.8833
   66SAPC  C313 5526   3.679   1.929   8.125 -0.1784  0.2496  0.7395
   66SAPC  H13X 5527   3.679   1.818   8.115 -1.7234  0.2256  0.8875
   66SAPC  H13Y 5528   3.576   1.968   8.121 -0.1695  0.1308 -5.3234
   66SAPC  C314 5529   3.752   1.976   8.252  1.0382 -0.6255 -0.3920
   66SAPC  H14X 5530   3.788   2.080   8.235  2.2591 -1.2291 -1.6408
   66SAPC  H14Y 5531   3.840   1.909   8.257  0.8079 -0.9936 -1.2332
   66SAPC  C315 5532   3.671   1.962   8.380 -0.3591 -0.0667  0.7186
   66SAPC  H15X 5533   3.626   1.861   8.371 -1.1636  0.3360  0.1940
   66SAPC  H15Y 5534   3.580   2.026   8.373 -0.7273 -0.5001  1.4167
   66SAPC  C316 5535   3.737   1.995   8.514  0.4311 -0.6226 -0.0300
   66SAPC  H16X 5536   3.671   2.040   8.592  2.4152  1.2688  0.6017
   66SAPC  H16Y 5537   3.802   2.080   8.483  0.4739 -0.8348 -0.5268
   66SAPC  C317 5538   3.826   1.884   8.574 -0.2422 -0.0349 -0.3603
   66SAPC  H17X 5539   3.905   1.853   8.503 -1.1785 -2.5393 -0.3639
   66SAPC  H17Y 5540   3.759   1.799   8.595  0.0748 -0.1933  0.0068
   66SAPC  C318 5541   3.892   1.919   8.705  0.2773 -0.6896  0.2987
   66SAPC  H18X 5542   3.943   1.829   8.747 -1.4698 -1.9636 -0.2455
   66SAPC  H18Y 5543   3.814   1.949   8.778  0.0007  1.1841 -0.7463
   66SAPC  H18Z 5544   3.970   1.998   8.700  0.1810 -0.5568  0.8282
   67SAPC     N 5545   0.659   4.144   6.284 -0.1844 -0.2852 -0.1232
   67SAPC   C12 5546   0.622   4.167   6.429 -0.5365 -0.5607 -0.0198
   67SAPC  H12A 5547   0.675   4.253   6.467 -2.0922  0.5300 -0.2821
   67SAPC  H12B 5548   0.663   4.082   6.482 -2.0373 -0.8567  0.6848
   67SAPC   C13 5549   0.649   3.997   6.250  0.2997 -0.0303 -0.1521
   67SAPC  H13A 5550   0.683   3.936   6.333 -1.5438 -0.6523  0.1609
   67SAPC  H13B 5551   0.547   3.967   6.230  1.0789 -1.8388 -1.4866
   67SAPC  H13C 5552   0.704   3.975   6.160  1.2860 -0.2802  0.5042
   67SAPC   C14 5553   0.573   4.227   6.193 -0.3509 -0.6678 -0.9032
   67SAPC  H14A 5554   0.598   4.217   6.089 -1.2202  2.2589 -1.4371
   67SAPC  H14B 5555   0.468   4.207   6.209 -0.4083  0.0264 -0.3792
   67SAPC  H14C 5556   0.585   4.332   6.215  1.0091 -1.0607  0.2424
   67SAPC   C15 5557   0.807   4.177   6.264 -0.0230 -0.3880  0.6498
   67SAPC  H15A 5558   0.822   4.279   6.294  1.4159 -0.0406 -1.1927
   67SAPC  H15B 5559   0.868   4.106   6.318 -1.4288 -2.6792 -0.6863
   67SAPC  H15C 5560   0.824   4.160   6.159  0.7935 -0.1041  0.7372
   67SAPC   C11 5561   0.468   4.183   6.464  0.3065 -0.4914 -0.4131
   67SAPC  H11A 5562   0.441   4.287   6.439  2.3884 -0.2922 -1.9735
   67SAPC  H11B 5563   0.447   4.167   6.572  2.1560 -1.5483 -0.1854
   67SAPC     P 5564   0.346   3.957   6.419  0.1219 -0.2208  0.2802
   67SAPC   O13 5565   0.218   3.955   6.495 -0.1600 -0.2449  0.4837
   67SAPC   O14 5566   0.352   3.876   6.296  0.4249  0.3799  0.5326
   67SAPC   O12 5567   0.378   4.102   6.380  0.2283 -0.3465 -0.1313
   67SAPC   O11 5568   0.472   3.908   6.510  0.6367  0.4716  0.1104
   67SAPC    C1 5569   0.472   3.781   6.576 -0.1239  0.3255 -0.3206
   67SAPC    HA 5570   0.401   3.710   6.529  1.4468  0.5238 -3.0949
   67SAPC    HB 5571   0.573   3.734   6.571  0.2863  1.1843 -0.2183
   67SAPC    C2 5572   0.427   3.793   6.727 -0.1585 -0.3638 -0.2324
   67SAPC    HS 5573   0.356   3.879   6.729  0.2441 -0.0063 -1.3377
   67SAPC   O21 5574   0.541   3.812   6.810 -0.4899  0.0375  0.1652
   67SAPC   C21 5575   0.524   3.884   6.921  0.1329 -0.4428 -0.0320
   67SAPC   O22 5576   0.416   3.927   6.958 -0.1271 -0.5135  0.2552
   67SAPC   C22 5577   0.662   3.907   6.987  0.5987 -0.0764  0.0943
   67SAPC   H2R 5578   0.703   3.804   6.990 -1.0782 -0.8238 -1.5337
   67SAPC   H2S 5579   0.726   3.964   6.916 -1.3094 -0.4228 -1.9702
   67SAPC    C3 5580   0.336   3.666   6.769  0.0318  0.1583  0.4070
   67SAPC    HX 5581   0.390   3.574   6.738  0.4082  0.6086 -0.2933
   67SAPC    HY 5582   0.244   3.689   6.712 -0.0487  1.0523  0.8778
   67SAPC   O31 5583   0.324   3.670   6.907 -0.1720 -0.4476 -0.2324
   67SAPC   C31 5584   0.215   3.715   6.973 -0.2711  0.7377 -0.0148
   67SAPC   O32 5585   0.113   3.757   6.918  0.1284  0.0496  0.0154
   67SAPC   C32 5586   0.240   3.703   7.126  0.7374 -0.2074 -0.6889
   67SAPC   H2X 5587   0.349   3.693   7.144  1.0358  1.9476 -1.1548
   67SAPC   H2Y 5588   0.187   3.609   7.152  0.3172  0.0154 -0.7265
   67SAPC   C23 5589   0.650   3.982   7.123 -0.4241 -0.2918  0.1846
   67SAPC   H3R 5590   0.595   4.077   7.108 -1.5592 -0.9930 -0.1270
   67SAPC   H3S 5591   0.755   3.999   7.154 -0.7450  0.6453  0.7616
   67SAPC   C24 5592   0.585   3.898   7.231 -0.1346 -0.1243 -0.2404
   67SAPC   H4R 5593   0.486   3.869   7.188  0.3006 -0.4575 -1.0152
   67SAPC   H4S 5594   0.568   3.968   7.316  0.4559 -0.0795 -0.1616
   67SAPC   C25 5595   0.678   3.786   7.268 -0.8133 -0.1525 -0.1657
   67SAPC   H5R 5596   0.665   3.694   7.210 -0.7259 -1.2220  1.4968
   67SAPC   C26 5597   0.764   3.783   7.370  0.0894  0.2414 -0.2009
   67SAPC   H6R 5598   0.821   3.690   7.386  2.8199  1.7911 -0.7502
   67SAPC   C27 5599   0.786   3.904   7.455 -0.3689 -0.2639  0.1932
   67SAPC   H7R 5600   0.768   3.992   7.391  0.3832  0.0509  0.4175
   67SAPC   H7S 5601   0.892   3.907   7.486 -0.3304 -0.5411  0.0927
   67SAPC   C28 5602   0.692   3.912   7.576 -0.0474 -0.2577 -0.8664
   67SAPC   H8R 5603   0.588   3.926   7.544 -0.7947 -1.7833  0.7918
   67SAPC   C29 5604   0.716   3.892   7.702 -0.3782 -0.6331  0.0010
   67SAPC   H9R 5605   0.629   3.906   7.768  0.0926 -1.0831  0.7262
   67SAPC  C210 5606   0.850   3.866   7.770  0.0704  0.5861  0.5127
   67SAPC  H10R 5607   0.887   3.960   7.815  1.7563 -0.0657  0.5179
   67SAPC  H10S 5608   0.936   3.848   7.702 -0.6350 -0.2711 -0.1608
   67SAPC  C211 5609   0.825   3.749   7.867  0.4991  0.1782 -0.3806
   67SAPC  H11R 5610   0.822   3.652   7.815 -1.3485 -0.4607  0.8849
   67SAPC  C212 5611   0.826   3.759   7.998  0.7988 -0.2881  0.2660
   67SAPC  H12R 5612   0.806   3.669   8.057 -0.0660 -0.4224 -0.2363
   67SAPC  C213 5613   0.843   3.890   8.068  0.0107 -0.6421 -1.0340
   67SAPC  H13R 5614   0.785   3.968   8.014  1.1733  1.5162  0.7565
   67SAPC  H13S 5615   0.948   3.924   8.060 -0.3019  0.0598 -2.3258
   67SAPC  C214 5616   0.805   3.882   8.209  0.3830  0.3569 -0.3796
   67SAPC  H14R 5617   0.885   3.899   8.282  0.9566 -0.3898 -0.8290
   67SAPC  C215 5618   0.678   3.869   8.260 -0.7969  1.1468 -0.2090
   67SAPC  H15R 5619   0.674   3.857   8.370 -0.0602 -1.6820 -0.4410
   67SAPC  C216 5620   0.549   3.866   8.181  0.0793 -0.7748  0.8077
   67SAPC  H16R 5621   0.571   3.855   8.072  0.1141  2.2596  0.4801
   67SAPC  H16S 5622   0.485   3.954   8.198  0.9582 -0.2781  1.6070
   67SAPC  C217 5623   0.463   3.734   8.211  0.6866 -0.0450  0.8884
   67SAPC  H17R 5624   0.520   3.650   8.166  0.1413  0.3797 -0.6226
   67SAPC  H17S 5625   0.368   3.751   8.156  1.1693  2.4154  0.7494
   67SAPC  C218 5626   0.414   3.712   8.353 -0.2583  0.8677  0.0832
   67SAPC  H18R 5627   0.380   3.811   8.389 -0.8307  0.8151 -0.3069
   67SAPC  H18S 5628   0.498   3.685   8.422 -0.6565 -1.9718 -0.4652
   67SAPC  C219 5629   0.295   3.615   8.372  0.1044  0.4507 -0.4346
   67SAPC  H19R 5630   0.278   3.612   8.482  1.1304  0.4451 -0.2727
   67SAPC  H19S 5631   0.311   3.514   8.329 -2.7591  0.0312 -0.6069
   67SAPC  C220 5632   0.168   3.659   8.301 -0.0218  0.3707 -0.3160
   67SAPC  H20R 5633   0.081   3.619   8.358  0.4195 -1.9552 -1.2228
   67SAPC  H20S 5634   0.168   3.623   8.196 -3.3938  0.0359 -0.2782
   67SAPC  H20T 5635   0.163   3.770   8.298  1.6772  0.5848  2.5783
   67SAPC   C33 5636   0.169   3.821   7.201 -0.2297 -0.0439  0.2197
   67SAPC   H3X 5637   0.063   3.834   7.171 -0.3615  2.7479  1.7211
   67SAPC   H3Y 5638   0.214   3.914   7.160 -1.1627 -0.2363 -1.2726
   67SAPC   C34 5639   0.175   3.801   7.351  0.5268 -0.2706 -0.2053
   67SAPC   H4X 5640   0.249   3.727   7.386 -1.4146 -1.2671  1.8771
   67SAPC   H4Y 5641   0.078   3.760   7.387 -0.5595  1.8537 -0.6052
   67SAPC   C35 5642   0.203   3.930   7.439 -0.0438  0.1656  1.4877
   67SAPC   H5X 5643   0.105   3.977   7.458  0.5594  0.6422  3.6061
   67SAPC   H5Y 5644   0.265   3.988   7.368  0.1508  0.2471  1.7254
   67SAPC   C36 5645   0.282   3.903   7.573  0.0797  0.5728  0.5485
   67SAPC   H6X 5646   0.392   3.891   7.558 -0.4652 -0.8682 -2.7887
   67SAPC   H6Y 5647   0.253   3.810   7.625  1.0509 -0.4374 -0.6826
   67SAPC   C37 5648   0.261   4.027   7.666  0.2331  0.0943  0.2288
   67SAPC   H7X 5649   0.150   4.024   7.678  0.4586 -0.0830  2.3941
   67SAPC   H7Y 5650   0.300   4.117   7.614 -1.0279 -1.5229 -3.6777
   67SAPC   C38 5651   0.324   4.004   7.813 -0.5038  0.1568  0.5543
   67SAPC   H8X 5652   0.429   4.038   7.810 -0.2621 -0.6701 -0.3184
   67SAPC   H8Y 5653   0.318   3.897   7.840  1.1887 -0.9095 -3.1032
   67SAPC   C39 5654   0.248   4.078   7.916 -0.0068  0.2657 -0.3020
   67SAPC   H9X 5655   0.144   4.039   7.908 -0.3618  1.2750 -0.7180
   67SAPC   H9Y 5656   0.244   4.187   7.891 -1.2003 -0.0451 -1.5149
   67SAPC  C310 5657   0.306   4.067   8.056  0.1411  0.7992 -0.5589
   67SAPC  H10X 5658   0.411   4.103   8.051  0.1496  0.7061 -1.0267
   67SAPC  H10Y 5659   0.302   3.959   8.079  0.8814  0.3060 -2.6380
   67SAPC  C311 5660   0.232   4.157   8.153 -0.2292 -0.1254 -0.8596
   67SAPC  H11X 5661   0.141   4.202   8.109 -1.9556 -1.7763  0.9570
   67SAPC  H11Y 5662   0.303   4.235   8.191  0.8104 -0.9083 -1.1736
   67SAPC  C312 5663   0.186   4.079   8.278  0.0172  0.4851 -0.2330
   67SAPC  H12X 5664   0.276   4.055   8.338 -0.9054 -1.6761  0.3188
   67SAPC  H12Y 5665   0.142   3.983   8.245  2.1887 -1.3146  1.9095
   67SAPC  C313 5666   0.099   4.161   8.374  0.3715  0.2187  0.2216
   67SAPC  H13X 5667   0.003   4.195   8.329 -1.3983 -2.6954  1.5935
   67SAPC  H13Y 5668   0.149   4.244   8.428  0.7848 -1.2607  2.1968
   67SAPC  C314 5669   0.048   4.088   8.504 -0.5660  0.3874 -0.6188
   67SAPC  H14X 5670   0.005   3.990   8.475  2.3559 -2.1369  3.0509
   67SAPC  H14Y 5671  -0.027   4.149   8.559 -1.5470 -2.6684  1.5924
   67SAPC  C315 5672   0.159   4.060   8.606  0.0096  1.0545  0.6537
   67SAPC  H15X 5673   0.200   4.159   8.634 -0.7927  1.4253  0.5359
   67SAPC  H15Y 5674   0.243   4.004   8.559 -1.1010  1.0331 -1.3753
   67SAPC  C316 5675   0.113   4.003   8.743  0.4529  0.2090  0.2687
   67SAPC  H16X 5676   0.042   3.920   8.723 -0.5082  1.0730  0.0229
   67SAPC  H16Y 5677   0.056   4.082   8.797 -0.3247 -0.9166  1.1122
   67SAPC  C317 5678   0.233   3.966   8.840 -0.2628 -0.3847 -0.3592
   67SAPC  H17X 5679   0.184   3.906   8.920 -0.9573  1.4446  0.6208
   67SAPC  H17Y 5680   0.272   4.051   8.900 -2.1447  0.5180 -0.3530
   67SAPC  C318 5681   0.352   3.884   8.776  0.1120  0.1847  1.3298
   67SAPC  H18X 5682   0.317   3.816   8.695 -1.6966  0.8172  1.5443
   67SAPC  H18Y 5683   0.429   3.839   8.842  2.3598  1.0074 -0.6273
   67SAPC  H18Z 5684   0.408   3.967   8.729  1.0418 -0.0336  2.0516
   68SAPC     N 5685   4.158   2.658   6.171  0.5811 -0.1337 -0.5083
   68SAPC   C12 5686   4.235   2.614   6.296 -0.1536 -0.2948  0.3516
   68SAPC  H12A 5687   4.306   2.540   6.262 -1.8274 -1.9292  0.3069
   68SAPC  H12B 5688   4.177   2.566   6.373  2.9489 -2.8938  1.1698
   68SAPC   C13 5689   4.055   2.555   6.138  0.2272  0.2258 -0.2795
   68SAPC  H13A 5690   3.998   2.565   6.047 -1.9429  0.1215  1.0324
   68SAPC  H13B 5691   4.100   2.459   6.117  0.1054 -0.2257  1.4993
   68SAPC  H13C 5692   3.998   2.532   6.227 -2.8279  0.3232 -2.1372
   68SAPC   C14 5693   4.085   2.783   6.183 -0.4896 -0.4354  0.2931
   68SAPC  H14A 5694   4.007   2.804   6.111 -1.0010  0.6827  1.1595
   68SAPC  H14B 5695   4.031   2.786   6.276 -0.9373  0.1372  0.0170
   68SAPC  H14C 5696   4.153   2.867   6.194  0.0764 -0.8717  0.1410
   68SAPC   C15 5697   4.255   2.673   6.047  0.4742  0.5379 -0.5051
   68SAPC  H15A 5698   4.335   2.736   6.084  0.6235  0.6442 -0.9957
   68SAPC  H15B 5699   4.294   2.575   6.024 -0.4075 -0.5276  2.3442
   68SAPC  H15C 5700   4.199   2.718   5.966 -1.3432  0.1973  0.5346
   68SAPC   C11 5701   4.318   2.729   6.366 -0.0018 -0.0072  0.1806
   68SAPC  H11A 5702   4.358   2.685   6.460 -2.1013 -2.1885  0.1192
   68SAPC  H11B 5703   4.255   2.811   6.406 -0.2987 -0.6304  0.9895
   68SAPC     P 5704   4.551   2.701   6.245 -0.1221 -0.0787 -0.1611
   68SAPC   O13 5705   4.510   2.555   6.216 -0.0749 -0.5282  0.4536
   68SAPC   O14 5706   4.614   2.777   6.135  0.4310 -0.0157  0.5336
   68SAPC   O12 5707   4.423   2.785   6.283 -0.0307 -0.6345 -0.0855
   68SAPC   O11 5708   4.646   2.701   6.371 -0.0635  0.5255 -0.1333
   68SAPC    C1 5709   4.667   2.822   6.437 -0.5885  0.1199 -0.2675
   68SAPC    HA 5710   4.689   2.907   6.369 -0.0644  0.2728  0.0908
   68SAPC    HB 5711   4.575   2.842   6.496  0.0902  0.3644  0.7250
   68SAPC    C2 5712   4.780   2.804   6.552 -0.2844  0.1668 -0.9347
   68SAPC    HS 5713   4.878   2.801   6.498 -1.4614 -2.6850 -2.9845
   68SAPC   O21 5714   4.762   2.688   6.635  0.3219  0.0696 -0.5583
   68SAPC   C21 5715   4.806   2.570   6.586 -0.1799  0.1434  0.1214
   68SAPC   O22 5716   4.865   2.556   6.482 -0.4808 -0.4282 -0.2452
   68SAPC   C22 5717   4.749   2.448   6.667  0.1743  0.3225 -0.2760
   68SAPC   H2R 5718   4.682   2.487   6.747 -1.5041  1.8034 -2.3530
   68SAPC   H2S 5719   4.704   2.373   6.598 -0.3643 -0.2963  0.7383
   68SAPC    C3 5720   4.779   2.938   6.630  0.3868 -0.4789  0.4357
   68SAPC    HX 5721   4.692   2.926   6.698  0.6219  1.2122  1.0443
   68SAPC    HY 5722   4.757   3.015   6.554  0.1829 -0.2369  0.7407
   68SAPC   O31 5723   4.890   2.982   6.713 -0.6547 -0.4595 -0.2420
   68SAPC   C31 5724   4.990   3.036   6.646  0.3904 -0.2084 -0.3387
   68SAPC   O32 5725   4.996   3.062   6.529 -0.0788  1.0042  0.4622
   68SAPC   C32 5726   5.110   3.055   6.739  0.0436 -0.0968  0.3433
   68SAPC   H2X 5727   5.139   3.161   6.728 -1.0411 -0.0832 -3.0111
   68SAPC   H2Y 5728   5.194   2.991   6.703  1.2904  1.4081  0.5636
   68SAPC   C23 5729   4.860   2.363   6.738  0.1016  0.0891 -0.2582
   68SAPC   H3R 5730   4.954   2.360   6.680  0.4509 -0.0817  0.3155
   68SAPC   H3S 5731   4.839   2.254   6.740 -0.7833  0.2542  0.0573
   68SAPC   C24 5732   4.881   2.400   6.884 -0.5925 -0.9425 -1.0388
   68SAPC   H4R 5733   4.945   2.319   6.925  0.6424  0.2388 -0.5691
   68SAPC   H4S 5734   4.780   2.390   6.928 -0.0053  0.2848  0.6420
   68SAPC   C25 5735   4.941   2.534   6.903  0.4835 -0.8274 -1.2247
   68SAPC   H5R 5736   4.962   2.583   6.808  2.2933  0.7768 -0.0194
   68SAPC   C26 5737   4.984   2.588   7.011 -0.1485 -0.1015 -0.2755
   68SAPC   H6R 5738   5.011   2.695   7.007 -1.0774  0.4376  4.6344
   68SAPC   C27 5739   4.973   2.523   7.143 -0.5841 -0.1796  0.2342
   68SAPC   H7R 5740   5.038   2.433   7.136 -0.7386 -0.2656 -0.1107
   68SAPC   H7S 5741   4.866   2.495   7.156 -1.2957  1.6819 -1.2474
   68SAPC   C28 5742   5.027   2.613   7.252 -0.2460  0.4205  0.1667
   68SAPC   H8R 5743   5.135   2.635   7.247 -0.1809  0.4586  1.4491
   68SAPC   C29 5744   4.952   2.660   7.356 -0.6782  0.3833  0.4473
   68SAPC   H9R 5745   4.999   2.716   7.438  0.2039  0.7568 -0.3042
   68SAPC  C210 5746   4.803   2.633   7.379  0.0226 -0.0381 -0.5331
   68SAPC  H10R 5747   4.780   2.525   7.395 -1.3852  0.3782  0.3928
   68SAPC  H10S 5748   4.746   2.641   7.284 -2.0137 -1.3281  0.5235
   68SAPC  C211 5749   4.736   2.720   7.486 -0.3282  0.1657  0.5966
   68SAPC  H11R 5750   4.769   2.822   7.509 -0.0688  0.7565 -2.1791
   68SAPC  C212 5751   4.625   2.685   7.550 -0.4488  0.7706  0.1631
   68SAPC  H12R 5752   4.587   2.754   7.626  0.0413  4.1253 -2.5382
   68SAPC  C213 5753   4.552   2.553   7.530  0.2649 -0.2994 -0.3024
   68SAPC  H13R 5754   4.487   2.537   7.619  2.2468  0.8399  1.4126
   68SAPC  H13S 5755   4.621   2.466   7.534  0.5456 -0.0133  2.0268
   68SAPC  C214 5756   4.475   2.536   7.397 -0.4644 -0.3260 -0.4692
   68SAPC  H14R 5757   4.507   2.602   7.315  1.7445  1.2842  1.6264
   68SAPC  C215 5758   4.370   2.459   7.369  0.8147 -0.6020 -0.7198
   68SAPC  H15R 5759   4.328   2.474   7.268  2.6842  0.6302 -1.3551
   68SAPC  C216 5760   4.305   2.358   7.460  0.1899  0.5216 -0.1599
   68SAPC  H16R 5761   4.343   2.368   7.564  0.9123 -1.3789 -0.2144
   68SAPC  H16S 5762   4.335   2.261   7.415 -1.6375  0.0222 -0.3432
   68SAPC  C217 5763   4.154   2.392   7.457  1.0239 -0.5077  0.3105
   68SAPC  H17R 5764   4.124   2.494   7.488  0.0976 -0.1602 -1.6769
   68SAPC  H17S 5765   4.100   2.318   7.521 -2.4973 -0.0096 -1.9379
   68SAPC  C218 5766   4.091   2.350   7.312 -0.6443  0.1487  0.1757
   68SAPC  H18R 5767   4.144   2.262   7.270  0.1348  0.3463  0.7372
   68SAPC  H18S 5768   4.114   2.431   7.239  0.8459  0.4354  0.9433
   68SAPC  C219 5769   3.938   2.324   7.320  0.2356 -0.4634  0.7623
   68SAPC  H19R 5770   3.882   2.408   7.365 -2.4117 -2.4686  1.3254
   68SAPC  H19S 5771   3.919   2.241   7.392 -0.1803 -0.3467  0.7878
   68SAPC  C220 5772   3.879   2.289   7.182  0.0894 -0.7587 -0.1199
   68SAPC  H20R 5773   3.911   2.375   7.120 -0.5670 -0.1358  0.3876
   68SAPC  H20S 5774   3.769   2.281   7.198  0.4544 -3.1680  1.5690
   68SAPC  H20T 5775   3.928   2.200   7.137  1.8151  0.6505 -1.0745
   68SAPC   C33 5776   5.079   3.035   6.893 -0.9479 -0.4820  0.0350
   68SAPC   H3X 5777   5.027   2.937   6.896 -0.6410 -0.6562 -0.3586
   68SAPC   H3Y 5778   5.001   3.112   6.914 -1.3833 -0.4379 -1.6855
   68SAPC   C34 5779   5.207   3.043   6.977 -0.4982 -0.1232  0.9139
   68SAPC   H4X 5780   5.233   3.150   6.990 -0.9471  0.4424 -2.3184
   68SAPC   H4Y 5781   5.297   2.994   6.934  0.1735  2.0186 -0.1720
   68SAPC   C35 5782   5.189   2.993   7.122 -1.0792 -0.3442 -0.7941
   68SAPC   H5X 5783   5.289   3.002   7.168 -0.8165  0.6006 -1.5325
   68SAPC   H5Y 5784   5.171   2.884   7.114 -1.5370 -0.2855 -0.5938
   68SAPC   C36 5785   5.067   3.061   7.184 -0.2518 -0.0800 -0.2639
   68SAPC   H6X 5786   4.984   2.990   7.200 -0.2947  0.5409  2.6137
   68SAPC   H6Y 5787   5.036   3.151   7.127  0.2144 -1.2117 -2.3620
   68SAPC   C37 5788   5.096   3.117   7.328 -1.1656 -0.1142  0.3728
   68SAPC   H7X 5789   5.023   3.195   7.360  0.0397 -0.1749  3.4478
   68SAPC   H7Y 5790   5.197   3.163   7.337 -1.5485  0.5177  1.5745
   68SAPC   C38 5791   5.080   3.003   7.434 -0.6318  0.1398  0.0938
   68SAPC   H8X 5792   5.171   2.939   7.434 -0.8250 -0.1411 -0.5864
   68SAPC   H8Y 5793   4.990   2.945   7.404 -0.9211  1.1098 -0.9563
   68SAPC   C39 5794   5.072   3.045   7.578 -0.3928 -0.4383  0.3788
   68SAPC   H9X 5795   4.980   3.107   7.581 -1.0403 -1.4015  1.0373
   68SAPC   H9Y 5796   5.164   3.101   7.604  0.3610 -1.9782  1.0802
   68SAPC  C310 5797   5.062   2.923   7.656  0.2397  0.0793 -0.0317
   68SAPC  H10X 5798   5.152   2.858   7.646 -0.5018 -1.1920  1.3483
   68SAPC  H10Y 5799   4.971   2.862   7.637 -0.2706  1.1928 -1.3120
   68SAPC  C311 5800   5.045   2.943   7.807  0.4512 -0.6044  0.0296
   68SAPC  H11X 5801   4.968   3.021   7.826 -0.6430 -1.6779  0.0730
   68SAPC  H11Y 5802   5.137   2.979   7.858  2.0261 -0.4926 -2.8276
   68SAPC  C312 5803   4.995   2.820   7.881  1.8514  0.2273  0.1484
   68SAPC  H12X 5804   5.066   2.735   7.865  0.2393 -1.1837  0.4019
   68SAPC  H12Y 5805   4.897   2.791   7.839  0.7751  1.9753  1.4198
   68SAPC  C313 5806   4.979   2.845   8.030 -0.3940  0.4246 -0.0520
   68SAPC  H13X 5807   4.905   2.925   8.050  0.6515  1.8703 -1.8851
   68SAPC  H13Y 5808   5.077   2.882   8.067  0.0135  0.0068 -0.7005
   68SAPC  C314 5809   4.934   2.719   8.111  0.2398  0.1600  0.6480
   68SAPC  H14X 5810   4.950   2.733   8.220 -0.6217  1.3984  0.6283
   68SAPC  H14Y 5811   5.005   2.637   8.085 -0.2837 -0.4589  1.1393
   68SAPC  C315 5812   4.786   2.669   8.089  1.0273  0.0066  0.1563
   68SAPC  H15X 5813   4.787   2.640   7.982  2.1251 -2.6999  0.8542
   68SAPC  H15Y 5814   4.713   2.753   8.098 -0.3981 -1.1510 -0.4961
   68SAPC  C316 5815   4.749   2.552   8.174 -0.0537  0.1792  0.2297
   68SAPC  H16X 5816   4.731   2.581   8.279  0.6070 -2.9562  1.2469
   68SAPC  H16Y 5817   4.824   2.471   8.164  1.1383  1.4768 -1.8581
   68SAPC  C317 5818   4.624   2.499   8.125 -0.3647  0.1310 -0.0597
   68SAPC  H17X 5819   4.617   2.394   8.160  2.2982  0.2754  1.0298
   68SAPC  H17Y 5820   4.636   2.486   8.016  0.8961  1.1952 -0.0629
   68SAPC  C318 5821   4.494   2.578   8.151  0.3542 -0.0136  0.7258
   68SAPC  H18X 5822   4.412   2.527   8.095  1.7928  0.1006 -1.5219
   68SAPC  H18Y 5823   4.500   2.686   8.126 -1.9753 -0.2095 -0.8826
   68SAPC  H18Z 5824   4.447   2.554   8.249  0.7590 -0.5612  0.7893
   69SLPC     N 5825   2.075   1.402  11.328 -0.7598 -0.8275 -0.2719
   69SLPC   C13 5826   2.177   1.477  11.395  0.4593  0.1956  0.0313
   69SLPC  H13A 5827   2.146   1.518  11.490  0.2593 -0.6385  0.3380
   69SLPC  H13B 5828   2.275   1.435  11.411  1.0607  1.2271 -0.8449
   69SLPC  H13C 5829   2.203   1.552  11.322  1.2851 -0.4487 -0.3396
   69SLPC   C14 5830   1.951   1.486  11.292 -0.0392  0.2839  0.6608
   69SLPC  H14A 5831   1.978   1.545  11.206 -2.7650 -0.2150 -0.5684
   69SLPC  H14B 5832   1.867   1.426  11.263  1.3906 -0.8641 -1.2518
   69SLPC  H14C 5833   1.914   1.561  11.360 -1.4056  0.2828 -0.0731
   69SLPC   C15 5834   2.036   1.296  11.421 -0.0516 -0.6966  0.1005
   69SLPC  H15A 5835   1.987   1.211  11.375  2.3131 -0.8741 -2.2358
   69SLPC  H15B 5836   2.123   1.254  11.469  0.9413 -0.0083 -1.0616
   69SLPC  H15C 5837   1.967   1.326  11.499 -1.0755 -0.1848 -0.9903
   69SLPC   C12 5838   2.124   1.340  11.196  0.7353 -0.2965  0.5609
   69SLPC  H12A 5839   2.052   1.268  11.159  1.5189 -0.4924 -0.6196
   69SLPC  H12B 5840   2.211   1.282  11.219  0.4607 -1.2965 -0.8222
   69SLPC   C11 5841   2.158   1.435  11.085 -0.4601  0.1425  0.3876
   69SLPC  H11A 5842   2.072   1.488  11.037  1.3137  0.6062 -2.4077
   69SLPC  H11B 5843   2.219   1.386  11.006 -1.3210 -0.6610  0.2254
   69SLPC     P 5844   2.302   1.649  11.066 -0.0139  0.2738  0.3644
   69SLPC   O13 5845   2.193   1.744  11.077  0.3501 -0.2997 -0.5913
   69SLPC   O14 5846   2.433   1.687  11.120 -0.4709  0.2285  0.2466
   69SLPC   O12 5847   2.256   1.518  11.134  0.2479 -0.0099  0.9017
   69SLPC   O11 5848   2.315   1.624  10.920 -0.1577  0.7976  1.0161
   69SLPC    C1 5849   2.426   1.551  10.869 -0.1766 -0.0257 -0.0708
   69SLPC    HA 5850   2.516   1.616  10.884  2.1325 -2.5670 -2.3178
   69SLPC    HB 5851   2.445   1.454  10.920  0.4977  0.9118  1.5129
   69SLPC    C2 5852   2.408   1.535  10.710  0.0480  0.0335 -0.3449
   69SLPC    HS 5853   2.515   1.535  10.682  0.0747 -0.1854 -0.2380
   69SLPC   O21 5854   2.337   1.655  10.658  0.2716 -0.1213  0.3306
   69SLPC   C21 5855   2.380   1.715  10.549 -0.4971  0.4747  0.0298
   69SLPC   O22 5856   2.469   1.663  10.485 -0.0389 -0.0388 -0.1406
   69SLPC   C22 5857   2.303   1.840  10.512 -0.1575 -0.7581 -0.8053
   69SLPC   H2R 5858   2.201   1.829  10.555 -0.0438 -0.1869 -0.3798
   69SLPC   H2S 5859   2.349   1.930  10.558  1.0383 -1.0267 -1.4461
   69SLPC    C3 5860   2.337   1.409  10.681 -0.4824  0.7219 -0.0852
   69SLPC    HX 5861   2.241   1.404  10.736  0.6619  1.0495  1.9949
   69SLPC    HY 5862   2.388   1.318  10.722  0.4007  1.3358  0.1988
   69SLPC   O31 5863   2.324   1.376  10.538  0.0147 -0.2142  0.2478
   69SLPC   C31 5864   2.436   1.336  10.483  0.9497 -0.6247 -0.2949
   69SLPC   O32 5865   2.541   1.323  10.535  0.2689 -0.4919  1.0196
   69SLPC   C32 5866   2.416   1.300  10.330 -0.3428 -0.0748  0.4380
   69SLPC   H2X 5867   2.437   1.396  10.277  3.0794 -0.8619  0.3081
   69SLPC   H2Y 5868   2.312   1.270  10.306  0.2676 -1.2422 -0.7871
   69SLPC   C23 5869   2.278   1.845  10.357 -0.3328  0.0580  0.4107
   69SLPC   H3R 5870   2.384   1.855  10.324 -0.4790 -0.0691 -0.1000
   69SLPC   H3S 5871   2.223   1.940  10.341  0.0309  0.1924 -0.0663
   69SLPC   C24 5872   2.204   1.717  10.297  0.2129  0.3046 -0.1766
   69SLPC   H4R 5873   2.095   1.733  10.304  0.2216  0.1854  0.2388
   69SLPC   H4S 5874   2.219   1.626  10.358 -0.9191  1.0166  1.1806
   69SLPC   C25 5875   2.231   1.713  10.148 -0.0709  0.2808  0.3226
   69SLPC   H5R 5876   2.340   1.723  10.128 -0.0276 -1.0832 -0.1550
   69SLPC   H5S 5877   2.186   1.808  10.112  0.9939 -0.6541 -3.7538
   69SLPC   C26 5878   2.164   1.602  10.069 -0.2048  0.4839 -0.1932
   69SLPC   H6R 5879   2.186   1.610   9.960  0.1473  1.3077 -0.0710
   69SLPC   H6S 5880   2.055   1.612  10.090 -0.0241 -0.7509  1.4012
   69SLPC   C27 5881   2.208   1.456  10.121  1.5738 -0.3206  0.2066
   69SLPC   H7R 5882   2.196   1.463  10.231  1.4576 -0.5302  0.2076
   69SLPC   H7S 5883   2.314   1.433  10.099  2.5347  3.8321  0.0398
   69SLPC   C28 5884   2.112   1.346  10.070 -0.0690  0.0404 -0.6263
   69SLPC   H8R 5885   2.008   1.382  10.082  1.0187  2.3405  2.5105
   69SLPC   H8S 5886   2.112   1.256  10.136 -1.6890 -1.5874 -2.7953
   69SLPC   C29 5887   2.145   1.313   9.930  0.2856 -0.1874  0.1866
   69SLPC   H9R 5888   2.243   1.340   9.888  0.4181 -1.0668 -0.0688
   69SLPC  C210 5889   2.057   1.251   9.843  0.2730 -0.2561  1.0984
   69SLPC  H10R 5890   2.081   1.233   9.737 -1.7325  0.4084  0.5190
   69SLPC  C211 5891   1.916   1.220   9.871 -0.3071  0.0356 -0.5796
   69SLPC  H11R 5892   1.874   1.259   9.966 -0.6908  0.6439 -0.9996
   69SLPC  H11S 5893   1.912   1.110   9.887  0.9222  0.0334 -0.2710
   69SLPC  C212 5894   1.838   1.264   9.756  1.0560 -0.1365  0.7240
   69SLPC  H12R 5895   1.825   1.373   9.760  2.9201  0.1960 -1.2965
   69SLPC  C213 5896   1.790   1.194   9.653 -0.6633 -0.6351  0.4122
   69SLPC  H13R 5897   1.723   1.243   9.581  2.3309  2.2405 -0.5465
   69SLPC  C214 5898   1.813   1.050   9.615  0.4699  0.1742 -1.2285
   69SLPC  H14R 5899   1.719   1.015   9.568 -0.2736  1.1146 -0.4815
   69SLPC  H14S 5900   1.830   0.976   9.697  1.3761  1.4928 -0.1920
   69SLPC  C215 5901   1.924   1.032   9.516 -0.2026  1.1810  0.5792
   69SLPC  H15R 5902   1.943   0.926   9.489 -0.3164  0.8458  1.7539
   69SLPC  H15S 5903   2.021   1.067   9.558  0.6615  0.0690 -0.4436
   69SLPC  C216 5904   1.900   1.100   9.388 -0.3011 -0.5983  0.1753
   69SLPC  H16R 5905   1.915   1.210   9.388 -0.7606 -0.5164 -1.6174
   69SLPC  H16S 5906   1.792   1.087   9.365 -0.7215  1.1197  1.1004
   69SLPC  C217 5907   1.982   1.034   9.275  0.6726  0.1160  0.6698
   69SLPC  H17R 5908   1.972   0.923   9.275 -0.8637  0.2331  1.9917
   69SLPC  H17S 5909   2.089   1.040   9.305  0.3387  1.3372  1.6529
   69SLPC  C218 5910   1.961   1.097   9.137  0.2660 -0.4232  0.4493
   69SLPC  H18R 5911   1.976   1.206   9.151  1.5682 -0.9342  3.4380
   69SLPC  H18S 5912   1.861   1.078   9.093  0.5382  0.1493 -0.4201
   69SLPC  H18T 5913   2.034   1.049   9.067  2.0258  1.7265  0.7605
   69SLPC   C33 5914   2.514   1.208  10.264  0.6439 -0.3186 -0.6022
   69SLPC   H3X 5915   2.542   1.131  10.339 -3.7327 -0.4311  1.0982
   69SLPC   H3Y 5916   2.611   1.259  10.247  0.4329 -0.4421 -2.3158
   69SLPC   C34 5917   2.463   1.154  10.134  0.0137 -0.0052 -0.1610
   69SLPC   H4X 5918   2.411   1.237  10.081 -1.8692  0.4003  2.2138
   69SLPC   H4Y 5919   2.377   1.085  10.150  0.0965 -0.2660 -0.8376
   69SLPC   C35 5920   2.564   1.067  10.054  0.1069 -0.4241  0.8075
   69SLPC   H5X 5921   2.611   1.006  10.134  1.7670  0.5207  0.5767
   69SLPC   H5Y 5922   2.642   1.133  10.011 -1.0436  0.6710  0.3452
   69SLPC   C36 5923   2.503   0.984   9.940 -0.3149  1.0430  0.0195
   69SLPC   H6X 5924   2.425   0.918   9.984  2.7300 -1.1044  2.4229
   69SLPC   H6Y 5925   2.583   0.919   9.897  0.1352  2.4535 -1.3244
   69SLPC   C37 5926   2.441   1.063   9.824 -0.2294 -0.2336  0.4500
   69SLPC   H7X 5927   2.505   1.152   9.810 -0.0298 -0.2153  1.4413
   69SLPC   H7Y 5928   2.344   1.101   9.862 -0.6307 -1.4602  0.6639
   69SLPC   C38 5929   2.439   0.984   9.700  0.0752  0.0514 -0.7043
   69SLPC   H8X 5930   2.385   0.890   9.724 -0.6675  0.8317  0.7119
   69SLPC   H8Y 5931   2.541   0.948   9.675  0.4789 -1.2567  2.6680
   69SLPC   C39 5932   2.363   1.053   9.585 -0.4683 -0.0388  0.0386
   69SLPC   H9X 5933   2.274   1.089   9.642  0.3166  0.2523  1.1018
   69SLPC   H9Y 5934   2.337   0.961   9.529 -1.5751 -0.6514  1.5141
   69SLPC  C310 5935   2.422   1.172   9.516 -0.4802  0.0896  0.0119
   69SLPC  H10X 5936   2.502   1.129   9.452 -2.1422 -2.5253 -0.4049
   69SLPC  H10Y 5937   2.443   1.247   9.595 -1.6398 -0.2608  0.6682
   69SLPC  C311 5938   2.332   1.254   9.417 -0.1638 -0.4408 -0.4966
   69SLPC  H11X 5939   2.276   1.181   9.355 -0.3702 -0.8592  0.1688
   69SLPC  H11Y 5940   2.397   1.316   9.352 -1.2565 -0.5943 -1.7592
   69SLPC  C312 5941   2.223   1.339   9.490 -0.4719 -0.7032  0.1087
   69SLPC  H12X 5942   2.169   1.277   9.565 -2.2366 -1.7224 -1.9488
   69SLPC  H12Y 5943   2.152   1.371   9.412  0.6501  3.6716  0.7747
   69SLPC  C313 5944   2.272   1.463   9.558 -0.3434  0.6207  0.3858
   69SLPC  H13X 5945   2.377   1.457   9.595  0.1110  0.6745 -0.8865
   69SLPC  H13Y 5946   2.213   1.486   9.650  0.2648 -1.9979  1.4741
   69SLPC  C314 5947   2.277   1.586   9.467  0.6709  0.1843  0.2878
   69SLPC  H14X 5948   2.174   1.619   9.443  0.2546 -0.6687  0.8577
   69SLPC  H14Y 5949   2.322   1.540   9.376 -0.0844 -2.8460  1.3705
   69SLPC  C315 5950   2.355   1.699   9.536 -0.0675  0.5988 -0.0260
   69SLPC  H15X 5951   2.458   1.662   9.552 -0.0698  0.5112 -0.2174
   69SLPC  H15Y 5952   2.326   1.716   9.642  0.8430 -2.9679  0.8731
   69SLPC  C316 5953   2.349   1.825   9.457 -0.2912  0.0843 -0.1435
   69SLPC  H16X 5954   2.409   1.897   9.517  1.6148 -0.1631 -1.6832
   69SLPC  H16Y 5955   2.244   1.860   9.453 -0.6079 -0.8753 -0.5086
   69SLPC  C317 5956   2.399   1.809   9.312  0.3812  0.1510  0.7128
   69SLPC  H17X 5957   2.321   1.738   9.275 -0.5722  0.7136  1.6116
   69SLPC  H17Y 5958   2.500   1.765   9.326  0.7468  1.3853  2.0709
   69SLPC  C318 5959   2.414   1.940   9.237 -0.5759  0.3418 -0.5690
   69SLPC  H18X 5960   2.450   1.927   9.133  0.7798 -0.5959  0.0042
   69SLPC  H18Y 5961   2.492   2.000   9.289  0.1839 -0.6078 -0.5866
   69SLPC  H18Z 5962   2.316   1.991   9.240 -0.5587  0.3775 -0.6339
   70SLPC     N 5963   3.725   5.623  10.817 -0.5876  0.5527 -0.0982
   70SLPC   C13 5964   3.794   5.750  10.769  0.6102  0.2674  0.4235
   70SLPC  H13A 5965   3.744   5.796  10.686  1.4787  0.1674 -0.1641
   70SLPC  H13B 5966   3.782   5.821  10.850  0.5071  0.8799 -0.1284
   70SLPC  H13C 5967   3.894   5.722  10.738  0.3201 -1.3167  0.8521
   70SLPC   C14 5968   3.591   5.660  10.870 -0.7022 -0.5032  0.1255
   70SLPC  H14A 5969   3.546   5.572  10.913  0.2717 -0.2980  1.5942
   70SLPC  H14B 5970   3.589   5.738  10.945  0.9160  0.6090 -0.9439
   70SLPC  H14C 5971   3.536   5.707  10.789  1.9688 -1.0300 -2.0586
   70SLPC   C15 5972   3.810   5.561  10.927  0.1169 -0.6606  0.1981
   70SLPC  H15A 5973   3.908   5.528  10.895 -0.8828 -2.0942 -1.4789
   70SLPC  H15B 5974   3.833   5.628  11.008  1.0988 -0.6743 -0.0592
   70SLPC  H15C 5975   3.760   5.475  10.970 -1.0644  1.2136  2.7055
   70SLPC   C12 5976   3.724   5.514  10.707  0.2299  0.7329 -0.2246
   70SLPC  H12A 5977   3.826   5.493  10.679 -0.7654 -2.1065 -2.0286
   70SLPC  H12B 5978   3.681   5.548  10.614  1.0685 -0.2144 -0.9850
   70SLPC   C11 5979   3.667   5.367  10.739  0.1220 -0.0229 -0.0846
   70SLPC  H11A 5980   3.703   5.328  10.837 -2.1956 -2.5709 -0.1845
   70SLPC  H11B 5981   3.690   5.296  10.656 -0.4931 -0.5907  0.2261
   70SLPC     P 5982   3.416   5.402  10.638 -0.2024  0.0364 -0.6023
   70SLPC   O13 5983   3.414   5.272  10.561 -0.1347  0.1660  0.7656
   70SLPC   O14 5984   3.294   5.456  10.701 -0.1521  0.3442  0.4433
   70SLPC   O12 5985   3.522   5.380  10.753  0.3645  0.4573  0.0039
   70SLPC   O11 5986   3.474   5.526  10.545  0.3781  0.1663  0.2641
   70SLPC    C1 5987   3.499   5.520  10.407 -0.6268 -0.2636  0.4219
   70SLPC    HA 5988   3.567   5.599  10.369 -0.3508 -0.6503  0.1104
   70SLPC    HB 5989   3.561   5.430  10.385 -3.1571 -1.4105 -2.4092
   70SLPC    C2 5990   3.363   5.522  10.331  0.0430 -0.0058  0.4181
   70SLPC    HS 5991   3.294   5.445  10.374 -0.7449 -0.3303 -1.3976
   70SLPC   O21 5992   3.402   5.505  10.192 -0.3004 -0.0794 -0.0758
   70SLPC   C21 5993   3.362   5.391  10.136 -0.3358  0.6989 -0.3289
   70SLPC   O22 5994   3.325   5.289  10.192 -0.3627  0.0964 -1.1485
   70SLPC   C22 5995   3.338   5.419   9.986 -0.3370  0.7586 -0.0346
   70SLPC   H2R 5996   3.231   5.412   9.957 -0.7760  0.3122  1.5923
   70SLPC   H2S 5997   3.373   5.522   9.964  0.9633 -0.1640 -2.4332
   70SLPC    C3 5998   3.299   5.660  10.346  0.8704 -0.1002  0.0765
   70SLPC    HX 5999   3.358   5.720  10.273  0.0393  2.2859  1.3350
   70SLPC    HY 6000   3.315   5.714  10.442  0.7151  0.3806 -0.1693
   70SLPC   O31 6001   3.165   5.664  10.297  0.7514  0.0633 -0.0308
   70SLPC   C31 6002   3.072   5.600  10.371  0.0516 -1.0296  0.2359
   70SLPC   O32 6003   3.103   5.538  10.473  0.0846  0.3504 -0.0632
   70SLPC   C32 6004   2.930   5.607  10.306  0.2879  0.0005 -0.7892
   70SLPC   H2X 6005   2.873   5.607  10.401 -1.5156  1.1600 -1.8415
   70SLPC   H2Y 6006   2.915   5.507  10.259  0.2588 -1.3554  1.9956
   70SLPC   C23 6007   3.417   5.328   9.898 -0.2227 -0.2074  0.4801
   70SLPC   H3R 6008   3.392   5.221   9.908 -0.1063 -0.5387 -2.4825
   70SLPC   H3S 6009   3.524   5.336   9.926  0.1837 -0.7363 -0.8898
   70SLPC   C24 6010   3.411   5.353   9.743  0.1087  0.1981 -0.1372
   70SLPC   H4R 6011   3.329   5.423   9.717 -0.5367 -0.1574  0.9476
   70SLPC   H4S 6012   3.380   5.254   9.703 -0.3967 -0.4123  1.7421
   70SLPC   C25 6013   3.531   5.422   9.686  0.1048 -0.1140  0.4961
   70SLPC   H5R 6014   3.619   5.355   9.686  1.2730  1.3989 -0.5009
   70SLPC   H5S 6015   3.547   5.506   9.757 -2.0244  0.8982 -0.1760
   70SLPC   C26 6016   3.507   5.470   9.543 -0.3748  0.2097  1.0479
   70SLPC   H6R 6017   3.580   5.551   9.523  1.2729 -1.7019 -0.9642
   70SLPC   H6S 6018   3.407   5.517   9.532 -0.1402  0.8939  1.7415
   70SLPC   C27 6019   3.510   5.354   9.439  0.0250 -0.2751 -0.6235
   70SLPC   H7R 6020   3.484   5.265   9.499  1.7625 -0.8739 -0.7446
   70SLPC   H7S 6021   3.614   5.341   9.404  0.1361  0.3914 -0.5572
   70SLPC   C28 6022   3.414   5.378   9.327 -0.7779 -0.0061  0.3816
   70SLPC   H8R 6023   3.322   5.429   9.363  1.0647  1.0301  3.8332
   70SLPC   H8S 6024   3.383   5.276   9.296  1.3752 -0.4831 -0.2789
   70SLPC   C29 6025   3.491   5.442   9.207 -0.3201 -0.2495  0.3506
   70SLPC   H9R 6026   3.593   5.481   9.219 -1.2629  2.6597 -0.5929
   70SLPC  C210 6027   3.439   5.459   9.078 -0.1321 -0.7382  0.2654
   70SLPC  H10R 6028   3.503   5.501   8.999 -2.2619  1.1781 -0.5150
   70SLPC  C211 6029   3.307   5.412   9.028 -0.4629 -0.5177 -0.3091
   70SLPC  H11R 6030   3.245   5.483   8.969  0.5146 -0.3703 -1.1753
   70SLPC  H11S 6031   3.240   5.386   9.112 -0.6021  0.5391 -0.0780
   70SLPC  C212 6032   3.340   5.299   8.933 -0.3507 -0.6807 -0.3293
   70SLPC  H12R 6033   3.403   5.221   8.978 -0.1383  0.1855  0.8692
   70SLPC  C213 6034   3.289   5.276   8.814  0.1087 -0.5642  0.8851
   70SLPC  H13R 6035   3.330   5.187   8.764  2.7860 -0.0310  2.0548
   70SLPC  C214 6036   3.193   5.363   8.735 -0.5146  0.0612  0.0804
   70SLPC  H14R 6037   3.245   5.424   8.658 -1.6992  0.3666 -0.4827
   70SLPC  H14S 6038   3.134   5.440   8.790 -0.0269  1.5237 -1.3890
   70SLPC  C215 6039   3.093   5.282   8.667  0.2526 -0.1941  0.3028
   70SLPC  H15R 6040   3.130   5.179   8.651 -1.1621 -0.7558  0.6439
   70SLPC  H15S 6041   3.067   5.328   8.570  0.1012 -1.7467 -0.4048
   70SLPC  C216 6042   2.966   5.255   8.758  0.7451  0.0127 -0.2830
   70SLPC  H16R 6043   2.913   5.352   8.756 -2.9230 -1.8116  2.4865
   70SLPC  H16S 6044   3.007   5.210   8.851  1.9980 -1.3799 -1.4858
   70SLPC  C217 6045   2.885   5.141   8.694 -0.5028  0.1850 -0.1982
   70SLPC  H17R 6046   2.949   5.051   8.679  1.1208  1.4763 -1.2458
   70SLPC  H17S 6047   2.855   5.174   8.592 -0.4913  2.3200  0.4703
   70SLPC  C218 6048   2.757   5.106   8.774 -0.3945 -0.7578 -0.6473
   70SLPC  H18R 6049   2.799   5.044   8.856 -0.4187  2.6954  2.0792
   70SLPC  H18S 6050   2.682   5.043   8.719 -1.4454  0.8925 -1.1384
   70SLPC  H18T 6051   2.711   5.195   8.820  1.0316  0.7007 -1.9837
   70SLPC   C33 6052   2.899   5.715  10.206 -0.1477  0.0133  0.0830
   70SLPC   H3X 6053   2.941   5.697  10.104  0.3049 -2.1967  0.6395
   70SLPC   H3Y 6054   2.925   5.819  10.236 -0.8637  0.3116 -0.3152
   70SLPC   C34 6055   2.744   5.725  10.177 -0.6275  0.2525 -0.6255
   70SLPC   H4X 6056   2.701   5.784  10.260  1.5723  0.8199  0.1462
   70SLPC   H4Y 6057   2.687   5.633  10.151 -0.1379 -0.0481 -0.6361
   70SLPC   C35 6058   2.715   5.822  10.060 -0.2834  0.0450  0.0364
   70SLPC   H5X 6059   2.770   5.915  10.084  0.9404 -0.4909 -0.6513
   70SLPC   H5Y 6060   2.607   5.846  10.066  0.4047  3.9559 -1.8188
   70SLPC   C36 6061   2.745   5.768   9.917  0.6941  0.0411  0.4049
   70SLPC   H6X 6062   2.706   5.666   9.899 -1.0707  0.3972  1.9450
   70SLPC   H6Y 6063   2.856   5.767   9.909  0.6981 -0.8152  0.5801
   70SLPC   C37 6064   2.674   5.845   9.807  0.2313 -0.5458 -0.1791
   70SLPC   H7X 6065   2.715   5.948   9.797  1.8777 -0.8467  2.9281
   70SLPC   H7Y 6066   2.570   5.854   9.845 -1.2723  1.5384 -4.4765
   70SLPC   C38 6067   2.675   5.770   9.670  0.2073  0.3044 -0.5521
   70SLPC   H8X 6068   2.658   5.662   9.688  1.2627  0.3701  0.9083
   70SLPC   H8Y 6069   2.780   5.772   9.634  0.3032 -1.4206 -0.3780
   70SLPC   C39 6070   2.576   5.810   9.562 -0.3278  0.0823 -0.0491
   70SLPC   H9X 6071   2.480   5.841   9.608 -0.6826  0.1111 -0.8122
   70SLPC   H9Y 6072   2.549   5.714   9.512  0.4560 -0.4594  0.5445
   70SLPC  C310 6073   2.620   5.899   9.441 -0.4231  0.3370 -0.6755
   70SLPC  H10X 6074   2.646   5.998   9.485 -1.0194  0.3272 -0.2911
   70SLPC  H10Y 6075   2.530   5.926   9.381  1.2496 -1.6717 -4.2122
   70SLPC  C311 6076   2.730   5.841   9.349 -0.3913  0.5022  0.4511
   70SLPC  H11X 6077   2.702   5.733   9.340  1.0611  0.0076  1.6808
   70SLPC  H11Y 6078   2.828   5.840   9.400 -0.5562 -1.0620  0.7900
   70SLPC  C312 6079   2.740   5.909   9.215 -0.6656 -0.3930 -0.7238
   70SLPC  H12X 6080   2.838   5.893   9.164 -0.1557 -1.2579  0.5013
   70SLPC  H12Y 6081   2.722   6.016   9.234  0.9940 -0.1628 -0.4042
   70SLPC  C313 6082   2.632   5.869   9.116 -0.9143  0.4373 -0.0272
   70SLPC  H13X 6083   2.531   5.896   9.155 -0.1263  1.3027  1.4578
   70SLPC  H13Y 6084   2.643   5.760   9.101  2.8667  0.9214 -1.4351
   70SLPC  C314 6085   2.647   5.921   8.972 -0.6595  0.3303 -0.5061
   70SLPC  H14X 6086   2.719   5.854   8.921 -0.2465  0.0521  0.4344
   70SLPC  H14Y 6087   2.674   6.028   8.978 -0.5556  0.2127  1.2333
   70SLPC  C315 6088   2.516   5.901   8.890  0.1463 -0.5753 -0.2706
   70SLPC  H15X 6089   2.445   5.981   8.917 -0.3196 -0.5988 -1.4061
   70SLPC  H15Y 6090   2.462   5.806   8.911 -1.7974 -0.0662 -2.7077
   70SLPC  C316 6091   2.523   5.885   8.738  0.0668 -0.3385  0.1000
   70SLPC  H16X 6092   2.573   5.971   8.686 -1.6765  0.3743 -0.4412
   70SLPC  H16Y 6093   2.421   5.893   8.696 -0.1190 -0.3062  0.5571
   70SLPC  C317 6094   2.582   5.753   8.699 -0.2396 -0.5384  0.0702
   70SLPC  H17X 6095   2.517   5.673   8.740 -0.7950  0.3726  0.9865
   70SLPC  H17Y 6096   2.687   5.739   8.736  0.2660 -0.7357 -1.4237
   70SLPC  C318 6097   2.581   5.739   8.553 -0.3096 -0.0769  0.4666
   70SLPC  H18X 6098   2.488   5.766   8.500  0.6086 -0.7072 -1.5158
   70SLPC  H18Y 6099   2.602   5.635   8.520  1.3921 -0.8188  3.6479
   70SLPC  H18Z 6100   2.664   5.794   8.503 -2.0538  2.2414  0.0630
   71SLPC     N 6101   2.457   4.253  10.885  0.3234  0.6590  0.3956
   71SLPC   C13 6102   2.340   4.263  10.787 -0.0171 -1.2178 -0.0102
   71SLPC  H13A 6103   2.254   4.212  10.828  0.5614 -1.9098  0.3505
   71SLPC  H13B 6104   2.318   4.367  10.770  1.0093 -1.0903 -0.5873
   71SLPC  H13C 6105   2.365   4.233  10.686  0.6137 -1.3335  0.1724
   71SLPC   C14 6106   2.497   4.107  10.907  0.3564 -1.0995  0.3688
   71SLPC  H14A 6107   2.571   4.101  10.984  0.6047  1.3553  0.3646
   71SLPC  H14B 6108   2.419   4.045  10.948  1.0576 -2.6265 -0.5764
   71SLPC  H14C 6109   2.550   4.069  10.821  2.6133  1.3884  0.5763
   71SLPC   C15 6110   2.421   4.295  11.020 -0.5016  0.4536 -0.1479
   71SLPC  H15A 6111   2.402   4.402  11.021  1.9476  0.9225  1.1557
   71SLPC  H15B 6112   2.336   4.239  11.056  1.4824 -2.0733  0.7570
   71SLPC  H15C 6113   2.499   4.284  11.095 -0.7993 -0.1534  0.0741
   71SLPC   C12 6114   2.572   4.334  10.840 -0.3496 -0.7560  0.3282
   71SLPC  H12A 6115   2.650   4.322  10.914 -1.4642 -1.4631  1.3998
   71SLPC  H12B 6116   2.534   4.435  10.839  0.6006 -0.3854 -1.3919
   71SLPC   C11 6117   2.635   4.314  10.702 -0.0689 -0.1295 -0.9876
   71SLPC  H11A 6118   2.701   4.401  10.681 -1.2300  0.5337 -1.9329
   71SLPC  H11B 6119   2.556   4.320  10.624 -1.3681  3.8030  0.5028
   71SLPC     P 6120   2.858   4.159  10.704 -0.3185  0.4384 -0.2834
   71SLPC   O13 6121   2.914   4.258  10.797  0.2536  0.6199  0.2514
   71SLPC   O14 6122   2.871   4.017  10.729 -0.1690 -0.0024  0.5430
   71SLPC   O12 6123   2.705   4.188  10.691 -0.2387 -0.3218  0.5191
   71SLPC   O11 6124   2.919   4.197  10.558  0.2948 -0.0517  0.1435
   71SLPC    C1 6125   3.006   4.311  10.534  0.5683 -0.4504 -0.2366
   71SLPC    HA 6126   3.012   4.371  10.628 -0.8804 -0.8838  0.1477
   71SLPC    HB 6127   3.107   4.281  10.500 -0.0311  0.8230 -3.3367
   71SLPC    C2 6128   2.949   4.406  10.424  0.7242  0.5835 -0.0634
   71SLPC    HS 6129   2.856   4.456  10.457  0.9171  1.9281 -1.5127
   71SLPC   O21 6130   2.932   4.329  10.302  0.2129  0.4846  0.1806
   71SLPC   C21 6131   2.798   4.296  10.266 -0.3625 -0.5673 -0.3199
   71SLPC   O22 6132   2.701   4.339  10.328  0.6784 -0.9711 -0.0777
   71SLPC   C22 6133   2.798   4.195  10.152  0.8979 -0.8046  0.9589
   71SLPC   H2R 6134   2.901   4.187  10.111  0.1520 -1.5790 -0.8571
   71SLPC   H2S 6135   2.750   4.100  10.186  1.4220 -1.6252 -0.5469
   71SLPC    C3 6136   3.035   4.525  10.390  0.1176  0.1574  0.1064
   71SLPC    HX 6137   3.134   4.483  10.361  0.0612  0.0379  0.0892
   71SLPC    HY 6138   3.052   4.593  10.476 -1.4668  0.6388  0.0602
   71SLPC   O31 6139   2.987   4.598  10.267 -0.7698 -0.4131  0.2993
   71SLPC   C31 6140   2.905   4.695  10.294 -0.0135  0.2775  0.0680
   71SLPC   O32 6141   2.887   4.745  10.403 -0.5809 -0.5919  0.2374
   71SLPC   C32 6142   2.824   4.738  10.171  0.0625  0.4148 -0.8463
   71SLPC   H2X 6143   2.893   4.802  10.113 -1.3740  1.1257 -1.7965
   71SLPC   H2Y 6144   2.740   4.804  10.201 -1.0424 -0.3441 -2.1762
   71SLPC   C23 6145   2.709   4.254  10.043  0.2616  0.1113 -0.0268
   71SLPC   H3R 6146   2.761   4.340   9.995  2.4519 -1.2564 -0.2062
   71SLPC   H3S 6147   2.607   4.271  10.082  0.5293 -3.1619  2.2817
   71SLPC   C24 6148   2.678   4.150   9.928 -0.1124 -0.2596  0.3297
   71SLPC   H4R 6149   2.610   4.076   9.975 -0.5620  0.1147  0.2796
   71SLPC   H4S 6150   2.777   4.108   9.902 -0.6155  0.8997 -3.9035
   71SLPC   C25 6151   2.613   4.211   9.803 -0.5186  0.4964 -1.0873
   71SLPC   H5R 6152   2.694   4.270   9.754  0.9234 -1.1119 -0.6959
   71SLPC   H5S 6153   2.528   4.279   9.826  0.7830  2.0205 -0.6589
   71SLPC   C26 6154   2.559   4.096   9.718  1.1747 -0.5112 -0.0270
   71SLPC   H6R 6155   2.478   4.047   9.776  0.8809 -0.7237 -0.6101
   71SLPC   H6S 6156   2.634   4.017   9.696  1.0645 -0.1921 -1.5835
   71SLPC   C27 6157   2.507   4.147   9.582  0.9458 -0.1754 -0.4493
   71SLPC   H7R 6158   2.581   4.191   9.513  1.5504  2.0503  1.5370
   71SLPC   H7S 6159   2.425   4.219   9.604 -0.8946 -2.4089  0.3581
   71SLPC   C28 6160   2.428   4.034   9.508 -0.5603 -0.1344  0.1008
   71SLPC   H8R 6161   2.347   4.013   9.581 -1.5152  2.6829 -0.0546
   71SLPC   H8S 6162   2.488   3.942   9.519  1.8783  1.2320 -1.5033
   71SLPC   C29 6163   2.390   4.078   9.367 -0.5529 -0.3125  0.0263
   71SLPC   H9R 6164   2.306   4.148   9.352 -1.4079 -0.7722  2.4094
   71SLPC  C210 6165   2.467   4.046   9.258  1.7068  0.4046 -0.1283
   71SLPC  H10R 6166   2.430   4.076   9.159 -1.4814 -1.1687  0.5384
   71SLPC  C211 6167   2.588   3.955   9.251 -0.1835 -0.0589 -0.0230
   71SLPC  H11R 6168   2.545   3.857   9.221 -0.9863  0.4415 -0.5161
   71SLPC  H11S 6169   2.649   3.939   9.343  0.3852  1.7024 -0.0751
   71SLPC  C212 6170   2.684   4.012   9.149  0.5778 -0.8596 -1.0945
   71SLPC  H12R 6171   2.765   4.080   9.181  0.8223 -2.1832  1.2732
   71SLPC  C213 6172   2.680   3.972   9.018 -0.7365  0.1392 -1.3401
   71SLPC  H13R 6173   2.747   4.031   8.955  0.0416  0.5470 -0.1605
   71SLPC  C214 6174   2.581   3.888   8.954 -0.1297  0.4649  0.1926
   71SLPC  H14R 6175   2.537   3.811   9.021 -2.5508  0.5774 -1.2109
   71SLPC  H14S 6176   2.623   3.825   8.872 -0.5839  1.6353 -0.9444
   71SLPC  C215 6177   2.465   3.969   8.891  0.1105 -1.0777 -0.1826
   71SLPC  H15R 6178   2.392   4.004   8.967 -2.6025 -2.9163 -1.8355
   71SLPC  H15S 6179   2.416   3.893   8.826 -1.9239 -0.7907  0.9668
   71SLPC  C216 6180   2.493   4.096   8.811  0.1277  0.2957  0.2462
   71SLPC  H16R 6181   2.547   4.160   8.884  0.5845  1.4991 -1.1375
   71SLPC  H16S 6182   2.390   4.134   8.792 -0.8355 -1.8182  1.1039
   71SLPC  C217 6183   2.564   4.074   8.679  0.2911  0.7211 -0.0425
   71SLPC  H17R 6184   2.486   4.042   8.607  0.5813 -0.6431  0.2246
   71SLPC  H17S 6185   2.644   3.997   8.686  0.4834  0.9470  0.2600
   71SLPC  C218 6186   2.644   4.197   8.639  0.6043 -0.2084 -0.4058
   71SLPC  H18R 6187   2.742   4.207   8.692  0.3819  2.6691 -0.4991
   71SLPC  H18S 6188   2.581   4.285   8.661  1.2618  0.0473  0.4890
   71SLPC  H18T 6189   2.664   4.209   8.531 -1.8428  3.4607 -0.5247
   71SLPC   C33 6190   2.768   4.631  10.079  0.6990  0.6081  0.1227
   71SLPC   H3X 6191   2.677   4.587  10.124  2.1524 -0.8206  1.7809
   71SLPC   H3Y 6192   2.835   4.543  10.068 -0.2382 -0.0047 -0.7904
   71SLPC   C34 6193   2.741   4.701   9.943 -0.4304  0.9256  0.0103
   71SLPC   H4X 6194   2.827   4.767   9.919  0.6660 -0.8594 -1.0304
   71SLPC   H4Y 6195   2.642   4.752   9.941 -1.8715 -1.6899  1.5311
   71SLPC   C35 6196   2.729   4.602   9.833  0.0591  0.0938 -0.3284
   71SLPC   H5X 6197   2.642   4.536   9.854  1.5523 -0.8873  3.0809
   71SLPC   H5Y 6198   2.819   4.537   9.824 -0.7226 -0.7238 -2.6024
   71SLPC   C36 6199   2.693   4.667   9.696  0.2768 -0.2182  0.2365
   71SLPC   H6X 6200   2.766   4.738   9.654  0.2277  0.9314  2.0322
   71SLPC   H6Y 6201   2.598   4.720   9.719 -0.0195  0.4941 -2.4594
   71SLPC   C37 6202   2.646   4.551   9.604 -0.3216 -0.7689  0.4790
   71SLPC   H7X 6203   2.556   4.499   9.643 -2.0617 -0.0775 -2.5136
   71SLPC   H7Y 6204   2.726   4.479   9.575  1.4389  1.4921 -0.4621
   71SLPC   C38 6205   2.601   4.608   9.465  0.3937 -0.5772  0.6303
   71SLPC   H8X 6206   2.689   4.648   9.409 -0.4771  0.6194  0.1066
   71SLPC   H8Y 6207   2.528   4.691   9.466 -1.0252 -1.8142  0.9243
   71SLPC   C39 6208   2.529   4.505   9.383 -0.0771 -1.0610  0.6742
   71SLPC   H9X 6209   2.463   4.437   9.441 -0.3951 -2.1489 -0.9398
   71SLPC   H9Y 6210   2.605   4.433   9.345 -0.3715 -1.8044  1.4894
   71SLPC  C310 6211   2.444   4.561   9.275 -0.0568 -0.1199 -0.2584
   71SLPC  H10X 6212   2.504   4.601   9.191  1.8244 -0.3178  0.9452
   71SLPC  H10Y 6213   2.385   4.645   9.316  0.7826  0.7216 -0.7463
   71SLPC  C311 6214   2.342   4.461   9.217  0.4452  0.1676  0.0435
   71SLPC  H11X 6215   2.275   4.425   9.298 -0.7084 -1.8224 -1.7237
   71SLPC  H11Y 6216   2.400   4.372   9.183  0.8990  0.8288 -0.9204
   71SLPC  C312 6217   2.265   4.521   9.092  0.0122  0.3472  0.0026
   71SLPC  H12X 6218   2.224   4.622   9.113 -0.9374 -0.1010  0.3227
   71SLPC  H12Y 6219   2.178   4.454   9.074  2.1122 -2.2781 -0.5573
   71SLPC  C313 6220   2.357   4.516   8.975  0.1963 -0.4768  0.6286
   71SLPC  H13X 6221   2.382   4.410   8.955 -0.5211 -0.4655 -0.3651
   71SLPC  H13Y 6222   2.451   4.573   8.991 -0.0122  0.2084 -0.5019
   71SLPC  C314 6223   2.290   4.558   8.842 -0.1478  0.0020  0.0171
   71SLPC  H14X 6224   2.185   4.521   8.849  0.0200 -0.1322  2.1362
   71SLPC  H14Y 6225   2.351   4.518   8.758 -2.2455  0.5730 -1.7942
   71SLPC  C315 6226   2.276   4.710   8.822 -0.1306  0.3561  0.0295
   71SLPC  H15X 6227   2.377   4.743   8.788  1.2696 -0.7465  2.9062
   71SLPC  H15Y 6228   2.257   4.756   8.922  1.1483  0.7422  0.1116
   71SLPC  C316 6229   2.169   4.746   8.720  0.5383  0.6161  0.0657
   71SLPC  H16X 6230   2.131   4.843   8.756  0.2881  1.0398 -1.3292
   71SLPC  H16Y 6231   2.089   4.671   8.736 -0.2182  2.1615  3.9857
   71SLPC  C317 6232   2.214   4.749   8.575 -0.7447  0.5423 -0.1106
   71SLPC  H17X 6233   2.117   4.761   8.521 -0.0115 -0.6421 -1.7418
   71SLPC  H17Y 6234   2.247   4.645   8.552  0.0935  0.7043  0.3353
   71SLPC  C318 6235   2.335   4.842   8.524  0.3291  0.3322 -0.3611
   71SLPC  H18X 6236   2.430   4.833   8.582 -1.4229 -1.3998  2.3827
   71SLPC  H18Y 6237   2.301   4.947   8.539 -0.3978 -0.1954  2.0493
   71SLPC  H18Z 6238   2.357   4.825   8.417  1.1070  0.0246 -0.1518
   72SLPC     N 6239   4.128   2.677  10.711 -0.4625  0.6449 -0.2667
   72SLPC   C13 6240   4.215   2.588  10.630 -0.3213 -0.1672 -0.0902
   72SLPC  H13A 6241   4.174   2.497  10.587 -0.5229 -1.0518  1.9385
   72SLPC  H13B 6242   4.249   2.643  10.543  0.6493 -1.2191 -0.3961
   72SLPC  H13C 6243   4.309   2.566  10.678 -0.3963 -2.9888 -1.1116
   72SLPC   C14 6244   4.217   2.797  10.747  0.5009  0.4747  0.2295
   72SLPC  H14A 6245   4.151   2.869  10.793  1.1047  0.4563  1.1345
   72SLPC  H14B 6246   4.288   2.776  10.825  3.0373  0.9266 -1.8782
   72SLPC  H14C 6247   4.254   2.838  10.654 -0.8333 -2.1565 -1.5170
   72SLPC   C15 6248   4.082   2.612  10.834 -0.1798  0.4259 -0.2894
   72SLPC  H15A 6249   4.168   2.583  10.892 -0.8458 -1.0520 -0.0222
   72SLPC  H15B 6250   4.024   2.685  10.888  0.1501  1.0801 -0.8145
   72SLPC  H15C 6251   4.025   2.520  10.829  0.1986  0.1932 -0.3851
   72SLPC   C12 6252   4.013   2.717  10.628  0.0253 -0.2077 -0.4320
   72SLPC  H12A 6253   3.947   2.635  10.605  0.5487 -1.1912  1.4950
   72SLPC  H12B 6254   4.054   2.744  10.532  3.0918 -1.0874  0.5809
   72SLPC   C11 6255   3.933   2.843  10.672 -0.2532 -0.3374  0.3183
   72SLPC  H11A 6256   3.862   2.864  10.589  0.5569  1.1528 -0.0283
   72SLPC  H11B 6257   3.993   2.937  10.680 -1.7000  0.6390 -0.0923
   72SLPC     P 6258   3.711   2.768  10.784 -0.4380  0.1572 -0.0407
   72SLPC   O13 6259   3.668   2.709  10.917 -0.1291 -0.8072  0.3426
   72SLPC   O14 6260   3.619   2.869  10.728 -0.1848  0.1039  0.0507
   72SLPC   O12 6261   3.857   2.834  10.797 -0.1727  0.1422 -0.3125
   72SLPC   O11 6262   3.744   2.660  10.676 -0.3544  0.0159 -0.4082
   72SLPC    C1 6263   3.658   2.547  10.638  0.0280 -0.1519 -0.1377
   72SLPC    HA 6264   3.718   2.471  10.583 -0.9489 -1.4506  0.5815
   72SLPC    HB 6265   3.610   2.491  10.720  1.0574 -0.9539 -0.0756
   72SLPC    C2 6266   3.556   2.581  10.523 -0.7050  0.1854 -0.4724
   72SLPC    HS 6267   3.525   2.489  10.470  2.2940 -0.7063 -0.8113
   72SLPC   O21 6268   3.607   2.686  10.437 -0.5163 -0.2170  0.1637
   72SLPC   C21 6269   3.718   2.657  10.363 -0.0803  0.0140  0.4562
   72SLPC   O22 6270   3.768   2.551  10.351  0.1323  0.5084  0.2301
   72SLPC   C22 6271   3.750   2.776  10.271 -0.6561  0.1664  0.3729
   72SLPC   H2R 6272   3.772   2.865  10.334 -0.6486  1.7821 -1.8570
   72SLPC   H2S 6273   3.839   2.749  10.210  0.0879  2.5755  0.3563
   72SLPC    C3 6274   3.435   2.641  10.582 -0.1434  0.8889  0.4899
   72SLPC    HX 6275   3.460   2.743  10.619  1.5302  1.4051 -1.9224
   72SLPC    HY 6276   3.413   2.579  10.671 -0.4037  0.1996 -0.0548
   72SLPC   O31 6277   3.324   2.635  10.490 -0.2655 -0.1926  0.4423
   72SLPC   C31 6278   3.304   2.746  10.421 -0.4049 -0.2258  0.3676
   72SLPC   O32 6279   3.374   2.846  10.424  0.8601  0.6607 -0.0924
   72SLPC   C32 6280   3.187   2.731  10.330  0.8472 -0.3312 -0.1776
   72SLPC   H2X 6281   3.125   2.819  10.355  0.2078 -0.8419  0.0413
   72SLPC   H2Y 6282   3.131   2.636  10.348 -0.9661  1.0060  1.4006
   72SLPC   C23 6283   3.633   2.812  10.171  0.1841 -0.7112  0.1381
   72SLPC   H3R 6284   3.637   2.918  10.137  1.7362 -0.5700  0.7156
   72SLPC   H3S 6285   3.533   2.810  10.218 -0.1011  2.0086 -0.2994
   72SLPC   C24 6286   3.644   2.714  10.055  0.2578 -0.1291  0.8691
   72SLPC   H4R 6287   3.606   2.614  10.084 -2.3645  1.1206  1.8604
   72SLPC   H4S 6288   3.752   2.707  10.027 -0.0350 -1.0240 -0.0726
   72SLPC   C25 6289   3.563   2.762   9.935  0.0823 -0.0866  0.3730
   72SLPC   H5R 6290   3.597   2.864   9.906  0.2862  0.2930  1.9332
   72SLPC   H5S 6291   3.456   2.758   9.967  0.2199 -0.2967  0.8051
   72SLPC   C26 6292   3.572   2.662   9.810 -0.7899  0.1817  0.6165
   72SLPC   H6R 6293   3.561   2.557   9.843 -1.9894  0.4060  0.9661
   72SLPC   H6S 6294   3.674   2.683   9.773 -1.0706  1.0412  0.3183
   72SLPC   C27 6295   3.457   2.692   9.709  0.2798  0.8980  0.8049
   72SLPC   H7R 6296   3.420   2.794   9.735  5.0314  2.8040  0.6066
   72SLPC   H7S 6297   3.376   2.617   9.718  2.5819 -1.7440  0.2160
   72SLPC   C28 6298   3.481   2.712   9.549  0.0664 -0.1109 -0.4020
   72SLPC   H8R 6299   3.522   2.611   9.530 -0.8694 -0.3365 -1.2299
   72SLPC   H8S 6300   3.559   2.791   9.542  0.8945 -0.5699  2.8129
   72SLPC   C29 6301   3.354   2.753   9.480  0.2240 -0.6520  0.6524
   72SLPC   H9R 6302   3.318   2.856   9.487  3.6737  0.9214 -2.4515
   72SLPC  C210 6303   3.292   2.682   9.384  0.0377 -0.7059  0.0284
   72SLPC  H10R 6304   3.209   2.728   9.328 -1.1542 -3.1694 -0.3164
   72SLPC  C211 6305   3.321   2.541   9.333 -0.0311  0.2313  0.1398
   72SLPC  H11R 6306   3.224   2.490   9.309  0.5594 -0.5433 -0.6219
   72SLPC  H11S 6307   3.349   2.475   9.418  2.8985  1.3518  0.0652
   72SLPC  C212 6308   3.417   2.520   9.218  0.2943 -0.7057 -0.1849
   72SLPC  H12R 6309   3.524   2.533   9.241  0.8982  2.7979 -4.2933
   72SLPC  C213 6310   3.390   2.491   9.085 -0.0862 -0.4874 -0.0330
   72SLPC  H13R 6311   3.466   2.482   9.006 -0.2557 -0.4916 -0.1962
   72SLPC  C214 6312   3.254   2.473   9.019 -0.5035 -0.5873  0.2678
   72SLPC  H14R 6313   3.199   2.570   9.020  1.6555  0.6947 -1.1823
   72SLPC  H14S 6314   3.185   2.414   9.084 -0.3517  0.0810  1.0370
   72SLPC  C215 6315   3.283   2.432   8.885 -0.7331 -0.1015  0.0543
   72SLPC  H15R 6316   3.357   2.497   8.834 -1.1925 -0.8409 -1.5620
   72SLPC  H15S 6317   3.184   2.454   8.839 -1.4229 -2.6338  0.2584
   72SLPC  C216 6318   3.311   2.280   8.865  0.3126 -0.5039 -0.0069
   72SLPC  H16R 6319   3.226   2.216   8.895  1.1761 -1.2144  0.9792
   72SLPC  H16S 6320   3.387   2.259   8.943 -0.8451 -0.0147  1.2683
   72SLPC  C217 6321   3.375   2.229   8.731 -0.2860 -0.0275 -0.5173
   72SLPC  H17R 6322   3.415   2.127   8.746  0.1820  0.3042  0.5085
   72SLPC  H17S 6323   3.457   2.301   8.712 -1.3229  0.2901 -4.2203
   72SLPC  C218 6324   3.286   2.238   8.603 -0.5536 -0.5373 -0.6246
   72SLPC  H18R 6325   3.199   2.170   8.612 -1.0037 -0.1760 -2.1837
   72SLPC  H18S 6326   3.352   2.222   8.515  2.1753  0.3501  1.1817
   72SLPC  H18T 6327   3.242   2.340   8.603  2.1077  0.6970  1.9418
   72SLPC   C33 6328   3.218   2.747  10.178  0.4824  0.1266 -1.1813
   72SLPC   H3X 6329   3.277   2.663  10.135 -0.5919 -0.8518 -0.7745
   72SLPC   H3Y 6330   3.277   2.839  10.157 -0.5051  0.4236 -2.7044
   72SLPC   C34 6331   3.100   2.784  10.092 -1.0329 -0.2365 -0.4934
   72SLPC   H4X 6332   3.043   2.871  10.131 -0.7196  1.6531 -4.0260
   72SLPC   H4Y 6333   3.027   2.700  10.088  0.9575 -2.0218  0.0319
   72SLPC   C35 6334   3.135   2.811   9.943  0.4933 -0.2864 -0.0094
   72SLPC   H5X 6335   3.213   2.737   9.919  1.4479 -0.0931  2.3721
   72SLPC   H5Y 6336   3.188   2.909   9.944  3.2124 -1.7334  0.5931
   72SLPC   C36 6337   3.014   2.810   9.844  0.3421  0.4499 -0.3102
   72SLPC   H6X 6338   2.936   2.885   9.870  0.1762  0.3231 -0.4374
   72SLPC   H6Y 6339   2.969   2.709   9.857  0.3864  0.6713  1.7473
   72SLPC   C37 6340   3.059   2.851   9.707  0.0312  0.2756  0.5595
   72SLPC   H7X 6341   3.125   2.781   9.651  0.3544  1.2955 -0.3265
   72SLPC   H7Y 6342   3.111   2.947   9.721  0.4403 -0.0748  1.4814
   72SLPC   C38 6343   2.935   2.876   9.618  0.4085  0.2551 -0.1643
   72SLPC   H8X 6344   2.875   2.962   9.655 -0.8317 -1.5246  2.1325
   72SLPC   H8Y 6345   2.859   2.797   9.640  0.1707  0.9345  1.5782
   72SLPC   C39 6346   2.971   2.880   9.469  0.0012 -0.0272 -0.5721
   72SLPC   H9X 6347   3.079   2.907   9.461  0.0302  0.5036  1.2251
   72SLPC   H9Y 6348   2.923   2.971   9.427 -2.0181  0.8005  3.3079
   72SLPC  C310 6349   2.924   2.750   9.398 -0.3353  1.0112  0.1629
   72SLPC  H10X 6350   2.817   2.730   9.423  0.0575 -1.5483 -0.0652
   72SLPC  H10Y 6351   3.000   2.677   9.432  0.1281  0.6731 -1.5425
   72SLPC  C311 6352   2.944   2.751   9.247 -1.2654  0.2448  0.5334
   72SLPC  H11X 6353   3.044   2.790   9.217 -0.6594 -2.2159 -0.7983
   72SLPC  H11Y 6354   2.869   2.820   9.204  0.1682  1.0325 -0.7530
   72SLPC  C312 6355   2.942   2.610   9.187  0.2503  0.3132  0.0235
   72SLPC  H12X 6356   2.859   2.558   9.239  1.3780 -0.1047  1.4372
   72SLPC  H12Y 6357   3.041   2.572   9.219 -0.3607 -2.2981 -1.0199
   72SLPC  C313 6358   2.941   2.601   9.035  1.1591 -0.3951 -0.3491
   72SLPC  H13X 6359   2.960   2.493   9.017 -2.6485 -1.0350 -0.8365
   72SLPC  H13Y 6360   3.023   2.672   9.011 -0.4056  1.3407 -0.6736
   72SLPC  C314 6361   2.809   2.652   8.970 -0.0609 -0.7068  0.1074
   72SLPC  H14X 6362   2.795   2.761   8.985 -1.0409 -0.7470 -0.4735
   72SLPC  H14Y 6363   2.727   2.599   9.024 -1.4761 -1.1299 -2.3909
   72SLPC  C315 6364   2.800   2.611   8.823 -0.2653 -0.0071 -0.2304
   72SLPC  H15X 6365   2.789   2.502   8.807  3.7739 -0.2831 -1.6400
   72SLPC  H15Y 6366   2.894   2.638   8.771  0.8740 -2.7440  0.2967
   72SLPC  C316 6367   2.687   2.684   8.768 -0.7830  0.1719  1.0247
   72SLPC  H16X 6368   2.694   2.792   8.790 -0.5167  0.7575 -1.7587
   72SLPC  H16Y 6369   2.593   2.647   8.815 -1.1286 -0.2433  0.0248
   72SLPC  C317 6370   2.673   2.644   8.622  0.8427  0.3193 -0.1897
   72SLPC  H17X 6371   2.767   2.673   8.570  0.3489  1.9231 -0.2111
   72SLPC  H17Y 6372   2.592   2.710   8.586  2.2117  1.1415 -1.8709
   72SLPC  C318 6373   2.646   2.500   8.591 -0.0457  0.1790  0.5288
   72SLPC  H18X 6374   2.734   2.435   8.612 -0.9143 -1.4438 -0.7461
   72SLPC  H18Y 6375   2.618   2.476   8.486 -1.6552 -1.2090  1.2350
   72SLPC  H18Z 6376   2.557   2.465   8.648 -1.3763 -0.2721 -1.7646
   73SLPC     N 6377   4.569   1.536  11.123 -1.1643  0.2048  0.8057
   73SLPC   C13 6378   4.475   1.559  11.246  0.2310 -0.2201  0.2435
   73SLPC  H13A 6379   4.414   1.645  11.227  1.6147  0.7996  0.3425
   73SLPC  H13B 6380   4.411   1.473  11.264  1.0760 -0.4296  2.3798
   73SLPC  H13C 6381   4.535   1.567  11.335  2.7925 -0.1667 -1.4213
   73SLPC   C14 6382   4.657   1.424  11.148  0.1480 -0.0660 -0.1214
   73SLPC  H14A 6383   4.614   1.326  11.132 -2.5074  0.8342  1.2295
   73SLPC  H14B 6384   4.740   1.434  11.079  1.5871  2.2194  1.8638
   73SLPC  H14C 6385   4.696   1.420  11.249  3.4926 -2.5822 -1.3756
   73SLPC   C15 6386   4.671   1.651  11.111 -0.3425 -0.1308 -0.4722
   73SLPC  H15A 6387   4.721   1.646  11.016  0.1474 -0.1064 -0.2136
   73SLPC  H15B 6388   4.619   1.743  11.135 -1.0018 -0.5715 -0.1796
   73SLPC  H15C 6389   4.746   1.641  11.188  0.3215  1.8784 -0.8429
   73SLPC   C12 6390   4.491   1.528  10.997 -0.3011 -0.6288  0.0463
   73SLPC  H12A 6391   4.562   1.523  10.915 -1.3202  2.3304 -1.0885
   73SLPC  H12B 6392   4.419   1.607  10.977  2.3970  1.6093 -1.2788
   73SLPC   C11 6393   4.410   1.397  10.979  0.3964  0.0842 -0.1041
   73SLPC  H11A 6394   4.318   1.405  11.040 -0.8286  1.1758 -2.0617
   73SLPC  H11B 6395   4.462   1.310  11.026 -1.3754 -0.6649  0.5101
   73SLPC     P 6396   4.279   1.440  10.758  0.1723 -0.1853 -0.2163
   73SLPC   O13 6397   4.200   1.512  10.857  0.2097 -0.4558  0.0592
   73SLPC   O14 6398   4.330   1.520  10.644 -0.1568  0.2451 -0.6893
   73SLPC   O12 6399   4.401   1.371  10.833  0.1545 -0.3906  0.0208
   73SLPC   O11 6400   4.199   1.315  10.714 -0.5328  0.0857  0.1051
   73SLPC    C1 6401   4.244   1.228  10.605 -0.0830 -0.8116 -0.1906
   73SLPC    HA 6402   4.353   1.204  10.607  0.3706  1.2596  1.3135
   73SLPC    HB 6403   4.187   1.134  10.619  0.8957 -1.2695  0.8303
   73SLPC    C2 6404   4.239   1.288  10.462  0.0738 -0.5119  0.8903
   73SLPC    HS 6405   4.326   1.355  10.444 -0.9197  1.1312  2.0552
   73SLPC   O21 6406   4.121   1.362  10.449  0.2271  0.3426  0.1169
   73SLPC   C21 6407   4.109   1.457  10.365  0.7319  0.1957  0.1450
   73SLPC   O22 6408   4.198   1.504  10.298 -0.1354  0.2653  0.5196
   73SLPC   C22 6409   3.963   1.500  10.360  0.2847 -0.5014  0.8665
   73SLPC   H2R 6410   3.904   1.433  10.426  0.2996  1.0898  2.5302
   73SLPC   H2S 6411   3.960   1.601  10.407 -2.1872 -1.2308  2.3323
   73SLPC    C3 6412   4.257   1.166  10.361  0.1426  0.2001  0.2391
   73SLPC    HX 6413   4.173   1.103  10.397 -1.1775  0.5215 -2.1288
   73SLPC    HY 6414   4.344   1.102  10.383  0.2256  0.9771  2.2681
   73SLPC   O31 6415   4.251   1.200  10.220 -0.0508 -0.4811 -0.2544
   73SLPC   C31 6416   4.352   1.264  10.172 -0.1454  0.2133 -0.7110
   73SLPC   O32 6417   4.456   1.281  10.235  0.0091 -0.9506  0.4414
   73SLPC   C32 6418   4.326   1.310  10.031  0.2990 -0.3532  0.2878
   73SLPC   H2X 6419   4.226   1.277   9.996 -0.1547 -0.9964  2.1298
   73SLPC   H2Y 6420   4.407   1.272   9.965 -0.1935  0.6865 -0.9294
   73SLPC   C23 6421   3.913   1.502  10.212 -0.7723  0.3073  0.1226
   73SLPC   H3R 6422   3.979   1.568  10.151 -0.1292 -0.7320 -0.3169
   73SLPC   H3S 6423   3.809   1.538  10.224 -1.6768 -2.4585  0.9775
   73SLPC   C24 6424   3.924   1.359  10.150  0.4812  0.0773  0.5006
   73SLPC   H4R 6425   3.847   1.287  10.185  2.0488 -1.7704  0.2647
   73SLPC   H4S 6426   4.023   1.314  10.173  0.8685  0.0033 -1.2161
   73SLPC   C25 6427   3.933   1.368   9.991  1.0496  0.2740 -0.1813
   73SLPC   H5R 6428   4.021   1.431   9.965  1.4801  0.6967  2.1392
   73SLPC   H5S 6429   3.836   1.420   9.977  0.5444 -0.2622  1.2381
   73SLPC   C26 6430   3.926   1.230   9.928 -0.3830  0.9400 -0.1580
   73SLPC   H6R 6431   3.862   1.159   9.985  2.9738 -1.1487  1.1520
   73SLPC   H6S 6432   4.027   1.184   9.936 -1.2219 -1.0601 -0.8464
   73SLPC   C27 6433   3.879   1.238   9.780 -0.4648 -0.0374 -0.5758
   73SLPC   H7R 6434   3.903   1.135   9.748 -0.9767  0.0621 -1.2965
   73SLPC   H7S 6435   3.947   1.311   9.731  1.1383 -0.7629  0.5331
   73SLPC   C28 6436   3.732   1.281   9.767 -0.1533  0.1727  0.2502
   73SLPC   H8R 6437   3.724   1.382   9.811  1.0244  0.5855 -0.4578
   73SLPC   H8S 6438   3.674   1.212   9.832 -0.6503  0.4344  0.0879
   73SLPC   C29 6439   3.698   1.290   9.622 -0.7285  0.4076 -0.0804
   73SLPC   H9R 6440   3.740   1.377   9.570 -0.9330 -0.0267 -0.9707
   73SLPC  C210 6441   3.608   1.218   9.558 -0.5227  0.7967 -0.0805
   73SLPC  H10R 6442   3.569   1.232   9.456  1.6740  0.3728 -1.0059
   73SLPC  C211 6443   3.525   1.110   9.631 -0.5287 -0.5681  0.1243
   73SLPC  H11R 6444   3.421   1.125   9.593 -0.2351  0.1016 -0.4330
   73SLPC  H11S 6445   3.522   1.119   9.742  0.2051  0.8052  0.0408
   73SLPC  C212 6446   3.582   0.969   9.603  1.2188 -0.3622  0.1751
   73SLPC  H12R 6447   3.591   0.941   9.497  0.1200  0.2595 -0.0849
   73SLPC  C213 6448   3.624   0.876   9.695  0.3077  0.1276  0.6023
   73SLPC  H13R 6449   3.637   0.773   9.657  0.1362  1.1472 -2.3296
   73SLPC  C214 6450   3.627   0.899   9.843 -0.5445  0.3389 -0.7046
   73SLPC  H14R 6451   3.701   0.978   9.866  0.4539 -1.0277  0.8795
   73SLPC  H14S 6452   3.665   0.805   9.888  0.3605  1.4391  0.8589
   73SLPC  C215 6453   3.496   0.925   9.913 -0.0708 -0.4734  0.2332
   73SLPC  H15R 6454   3.446   0.828   9.892  2.0720 -1.0623 -2.4499
   73SLPC  H15S 6455   3.431   1.008   9.878  0.8271 -0.5406 -1.6391
   73SLPC  C216 6456   3.520   0.966  10.062  0.4698 -0.1529 -0.1354
   73SLPC  H16R 6457   3.568   1.066  10.069  0.3425  0.1146 -2.8528
   73SLPC  H16S 6458   3.588   0.886  10.098  0.8329  0.4408  0.5180
   73SLPC  C217 6459   3.390   0.956  10.152  0.4315 -0.0611  0.9583
   73SLPC  H17R 6460   3.347   0.856  10.132  1.4760 -0.9038  2.7824
   73SLPC  H17S 6461   3.319   1.038  10.126  2.1185  0.9418 -0.6599
   73SLPC  C218 6462   3.425   0.966  10.301  0.0578  0.5250  0.5254
   73SLPC  H18R 6463   3.484   0.874  10.321  1.2042  0.9504 -0.8337
   73SLPC  H18S 6464   3.342   0.990  10.371  0.1711 -1.8689  1.5491
   73SLPC  H18T 6465   3.497   1.050  10.304 -0.1301  0.7104 -0.1869
   73SLPC   C33 6466   4.335   1.466  10.023 -0.3665 -0.4926  0.6643
   73SLPC   H3X 6467   4.400   1.512  10.100 -0.2641  1.1778 -0.3933
   73SLPC   H3Y 6468   4.236   1.511  10.046 -1.2724 -1.1429 -1.7987
   73SLPC   C34 6469   4.393   1.514   9.885  0.1131 -0.0159  0.3523
   73SLPC   H4X 6470   4.504   1.503   9.881  0.0961 -0.0041 -0.2140
   73SLPC   H4Y 6471   4.376   1.623   9.876  1.1732  0.1163 -0.1751
   73SLPC   C35 6472   4.323   1.440   9.770  0.2900  0.4661  0.8171
   73SLPC   H5X 6473   4.213   1.447   9.785  0.6204  0.6360  3.3493
   73SLPC   H5Y 6474   4.356   1.334   9.774 -0.3754  0.2303  0.2025
   73SLPC   C36 6475   4.369   1.487   9.635 -0.6323  0.1054 -0.6732
   73SLPC   H6X 6476   4.478   1.463   9.630 -0.9889 -1.3250 -1.9732
   73SLPC   H6Y 6477   4.347   1.595   9.620 -2.2298 -0.1383 -0.1154
   73SLPC   C37 6478   4.303   1.400   9.527 -0.3628  0.3818 -0.0608
   73SLPC   H7X 6479   4.333   1.295   9.548 -0.2304  0.6409  1.0864
   73SLPC   H7Y 6480   4.365   1.422   9.437 -0.1740 -1.0154 -0.2767
   73SLPC   C38 6481   4.159   1.433   9.484 -0.5239  0.6287 -0.3384
   73SLPC   H8X 6482   4.162   1.543   9.473 -2.6355  0.9653  1.9686
   73SLPC   H8Y 6483   4.094   1.402   9.569 -2.2990 -0.5158 -2.0801
   73SLPC   C39 6484   4.099   1.372   9.350 -0.2769  0.2110 -0.9841
   73SLPC   H9X 6485   3.990   1.392   9.355 -0.5376 -1.6761  2.9562
   73SLPC   H9Y 6486   4.102   1.261   9.354 -1.0430  0.2114 -0.3166
   73SLPC  C310 6487   4.158   1.425   9.224  0.1217  0.4872  0.5180
   73SLPC  H10X 6488   4.100   1.383   9.139 -1.2341  1.5318  0.8978
   73SLPC  H10Y 6489   4.257   1.380   9.202 -0.1807  0.4598 -0.8284
   73SLPC  C311 6490   4.150   1.577   9.207 -0.0592  0.1030  0.9967
   73SLPC  H11X 6491   4.226   1.623   9.275  0.4274  0.6608  0.0849
   73SLPC  H11Y 6492   4.050   1.620   9.228  0.1278  0.6344  0.8255
   73SLPC  C312 6493   4.185   1.635   9.065  0.0224 -0.4225  0.4826
   73SLPC  H12X 6494   4.099   1.610   9.000 -0.5483 -1.1635  1.5019
   73SLPC  H12Y 6495   4.266   1.569   9.027  0.4050  0.4749 -0.2722
   73SLPC  C313 6496   4.212   1.782   9.055  0.3852  0.2632  0.0526
   73SLPC  H13X 6497   4.290   1.795   9.134 -0.9024 -1.2231  1.6185
   73SLPC  H13Y 6498   4.127   1.846   9.087 -0.6054 -0.0301 -1.9303
   73SLPC  C314 6499   4.280   1.830   8.926 -0.1102  0.5643  0.4314
   73SLPC  H14X 6500   4.219   1.807   8.835  0.4669 -1.8876  0.6239
   73SLPC  H14Y 6501   4.366   1.760   8.919 -0.5291 -0.0386  1.2150
   73SLPC  C315 6502   4.320   1.982   8.930  0.2145 -0.3048  0.7556
   73SLPC  H15X 6503   4.226   2.033   8.960 -0.0397 -0.4667  0.2299
   73SLPC  H15Y 6504   4.345   2.014   8.827 -2.0895 -0.6799  0.0642
   73SLPC  C316 6505   4.428   2.014   9.033 -0.5459  0.0128 -0.3633
   73SLPC  H16X 6506   4.524   1.965   9.008 -0.7013 -0.2617 -0.4141
   73SLPC  H16Y 6507   4.390   1.977   9.130  3.9591 -0.2218  1.4310
   73SLPC  C317 6508   4.447   2.160   9.053 -0.1354 -0.2228 -0.1102
   73SLPC  H17X 6509   4.348   2.206   9.069  0.4945  1.7697 -1.7192
   73SLPC  H17Y 6510   4.493   2.211   8.965  1.4910 -0.9348  0.3005
   73SLPC  C318 6511   4.530   2.193   9.171  0.2117  0.3360 -0.1404
   73SLPC  H18X 6512   4.560   2.300   9.178  0.6305  0.2391 -0.4248
   73SLPC  H18Y 6513   4.631   2.147   9.168 -0.0514 -0.1970 -0.9608
   73SLPC  H18Z 6514   4.467   2.165   9.259 -0.6111  1.2353 -0.4346
   74SLPC     N 6515   4.776   3.406  10.593  0.0416 -0.2890 -0.9394
   74SLPC   C13 6516   4.918   3.371  10.609 -0.3992 -0.0610  0.0833
   74SLPC  H13A 6517   4.962   3.387  10.706  2.6136 -1.1614 -1.0354
   74SLPC  H13B 6518   4.940   3.270  10.577  0.0175 -0.1577  0.6687
   74SLPC  H13C 6519   4.982   3.430  10.545  2.6410 -2.3194  0.9156
   74SLPC   C14 6520   4.757   3.548  10.636  0.2976 -0.2178  0.7194
   74SLPC  H14A 6521   4.811   3.559  10.729  1.8350  0.2876 -0.2153
   74SLPC  H14B 6522   4.802   3.619  10.568  0.4207 -0.7168  0.2738
   74SLPC  H14C 6523   4.651   3.562  10.654  0.3595  1.2527 -0.0022
   74SLPC   C15 6524   4.700   3.316  10.688 -0.5375  0.5685 -0.1426
   74SLPC  H15A 6525   4.601   3.357  10.702 -0.6128  1.1336 -2.1932
   74SLPC  H15B 6526   4.697   3.220  10.639 -0.5886  0.2829  0.4129
   74SLPC  H15C 6527   4.753   3.320  10.782 -0.6767  0.9691 -0.0804
   74SLPC   C12 6528   4.721   3.384  10.449  0.5136 -0.6281  0.0698
   74SLPC  H12A 6529   4.747   3.469  10.388  1.5001 -1.2031 -0.3259
   74SLPC  H12B 6530   4.613   3.384  10.454  0.4761 -1.6405 -0.5033
   74SLPC   C11 6531   4.779   3.254  10.380  0.0460  0.4993  0.4095
   74SLPC  H11A 6532   4.882   3.273  10.343  0.0035 -2.3250 -1.2807
   74SLPC  H11B 6533   4.715   3.236  10.291  0.9265 -0.9591  0.0512
   74SLPC     P 6534   4.669   3.030  10.452  0.2544  0.5318 -0.2276
   74SLPC   O13 6535   4.713   2.929  10.548 -0.5860  0.2306  0.2398
   74SLPC   O14 6536   4.536   3.088  10.476 -0.2381 -0.1326 -0.1776
   74SLPC   O12 6537   4.777   3.145  10.473  0.5631 -0.1373  0.1447
   74SLPC   O11 6538   4.700   2.983  10.305  0.6360 -0.2683 -0.5978
   74SLPC    C1 6539   4.601   2.976  10.206  0.2079  0.1793  0.2650
   74SLPC    HA 6540   4.536   2.889  10.230  1.6330 -0.3731  2.2211
   74SLPC    HB 6541   4.545   3.072  10.203 -0.9877 -0.5234 -0.3132
   74SLPC    C2 6542   4.660   2.940  10.064  0.0722 -0.7551  0.7054
   74SLPC    HS 6543   4.706   2.840  10.073 -0.6602 -1.2844 -1.1637
   74SLPC   O21 6544   4.754   3.043  10.023  0.7188 -0.2206  0.5592
   74SLPC   C21 6545   4.884   3.015  10.043 -0.5281 -0.2349  0.3246
   74SLPC   O22 6546   4.926   2.919  10.106 -0.4857  0.2815  0.7576
   74SLPC   C22 6547   4.972   3.125   9.996  0.2392 -0.0574  0.1982
   74SLPC   H2R 6548   4.916   3.210   9.952 -1.3309  0.3884  2.9608
   74SLPC   H2S 6549   5.027   3.156  10.087  0.5463  0.5547 -0.1871
   74SLPC    C3 6550   4.539   2.939   9.964  0.5523 -0.1384 -0.3733
   74SLPC    HX 6551   4.517   3.048   9.954 -0.7086 -0.2796  0.7575
   74SLPC    HY 6552   4.444   2.900  10.005  1.3472 -1.6173  0.0723
   74SLPC   O31 6553   4.573   2.872   9.843  0.4076 -0.3859  0.1642
   74SLPC   C31 6554   4.549   2.739   9.838 -0.2969  0.5639  0.4517
   74SLPC   O32 6555   4.493   2.677   9.932  0.3941 -0.0796 -0.3374
   74SLPC   C32 6556   4.581   2.676   9.710  0.4514 -0.5727 -0.4940
   74SLPC   H2X 6557   4.625   2.575   9.724 -1.1106 -1.3343 -0.9664
   74SLPC   H2Y 6558   4.648   2.743   9.652 -0.9313  2.3220  1.0997
   74SLPC   C23 6559   5.078   3.071   9.895  0.1310  0.2058  0.4162
   74SLPC   H3R 6560   5.153   3.012   9.953 -1.6595 -2.5872 -0.0176
   74SLPC   H3S 6561   5.135   3.159   9.859  0.6980 -1.0810 -1.9386
   74SLPC   C24 6562   5.023   2.999   9.773  0.6451  0.1486  0.4443
   74SLPC   H4R 6563   5.008   2.892   9.799 -0.6876 -0.3711 -2.2571
   74SLPC   H4S 6564   5.103   2.995   9.696  0.7997 -0.3171  0.6272
   74SLPC   C25 6565   4.898   3.050   9.705 -0.7328 -0.3591 -0.0511
   74SLPC   H5R 6566   4.914   3.160   9.692 -1.1280 -0.1078  1.5109
   74SLPC   H5S 6567   4.813   3.038   9.775 -1.9696 -1.4060 -1.7137
   74SLPC   C26 6568   4.878   2.988   9.567  0.1358  0.1342 -0.7221
   74SLPC   H6R 6569   4.771   2.966   9.543  0.0969 -1.1904  0.6053
   74SLPC   H6S 6570   4.923   2.886   9.566  1.5859  0.7490 -3.3773
   74SLPC   C27 6571   4.945   3.072   9.461  1.0660  0.1041  0.6105
   74SLPC   H7R 6572   5.053   3.049   9.469  1.6638  1.8046 -2.1156
   74SLPC   H7S 6573   4.926   3.177   9.493  1.4213  0.1542  0.6595
   74SLPC   C28 6574   4.893   3.039   9.323  0.7040 -0.1182  0.1454
   74SLPC   H8R 6575   4.791   3.081   9.311 -0.4803 -3.1072 -0.6874
   74SLPC   H8S 6576   4.888   2.928   9.321 -2.1794 -0.0251  0.1052
   74SLPC   C29 6577   4.979   3.101   9.211  0.4616 -0.0939  0.2139
   74SLPC   H9R 6578   5.048   3.183   9.236 -0.1001  0.9268 -1.4913
   74SLPC  C210 6579   4.969   3.080   9.081 -0.2991 -0.3687  0.1528
   74SLPC  H10R 6580   5.040   3.141   9.023 -1.7677  0.6046 -0.6572
   74SLPC  C211 6581   4.872   2.992   8.995 -0.0465  0.3036 -0.4606
   74SLPC  H11R 6582   4.853   2.890   9.034  1.5078  0.4884  0.8546
   74SLPC  H11S 6583   4.909   2.966   8.894 -0.5047  0.5979 -0.7042
   74SLPC  C212 6584   4.734   3.049   8.979 -0.4316  0.8548 -0.4835
   74SLPC  H12R 6585   4.694   3.083   9.076 -1.9260 -0.5966 -0.5662
   74SLPC  C213 6586   4.665   3.085   8.872 -0.3713 -0.3814 -0.3493
   74SLPC  H13R 6587   4.569   3.136   8.889 -0.9933 -0.8764 -2.2660
   74SLPC  C214 6588   4.708   3.074   8.732  0.4408  0.1939  0.2936
   74SLPC  H14R 6589   4.798   3.012   8.709  1.8584  2.6885 -1.1150
   74SLPC  H14S 6590   4.733   3.174   8.690 -0.5771  0.1411 -0.4453
   74SLPC  C215 6591   4.591   3.007   8.647  0.2582  0.4318 -0.1781
   74SLPC  H15R 6592   4.498   3.067   8.654 -1.0590 -1.4824 -0.7054
   74SLPC  H15S 6593   4.574   2.906   8.690 -5.0077  1.3774  0.3339
   74SLPC  C216 6594   4.628   2.989   8.501  0.5870 -0.2688  0.6652
   74SLPC  H16R 6595   4.708   2.912   8.499  0.3655 -0.5756  2.7995
   74SLPC  H16S 6596   4.675   3.086   8.472  0.0148  0.2168  1.3185
   74SLPC  C217 6597   4.522   2.920   8.409  0.4064 -0.2722  0.3706
   74SLPC  H17R 6598   4.582   2.914   8.316  1.0277  0.7136  0.6936
   74SLPC  H17S 6599   4.440   2.991   8.383  1.2057  0.8961  0.9686
   74SLPC  C218 6600   4.479   2.787   8.464 -0.8446  0.4106  0.2641
   74SLPC  H18R 6601   4.565   2.719   8.449 -0.9003  0.3642  0.1545
   74SLPC  H18S 6602   4.398   2.753   8.396 -0.6266  0.0270  0.1958
   74SLPC  H18T 6603   4.444   2.776   8.569 -1.8526 -0.1202 -0.1208
   74SLPC   C33 6604   4.450   2.662   9.620 -0.4142  0.2018 -0.2459
   74SLPC   H3X 6605   4.363   2.650   9.689 -0.1451 -0.2256  0.0157
   74SLPC   H3Y 6606   4.471   2.570   9.562  0.1033  1.0756 -1.4564
   74SLPC   C34 6607   4.431   2.785   9.529  0.1092  0.1020 -0.3141
   74SLPC   H4X 6608   4.448   2.884   9.577 -1.0743  0.7329 -1.1550
   74SLPC   H4Y 6609   4.328   2.780   9.486  0.3859 -0.3373 -0.9298
   74SLPC   C35 6610   4.534   2.783   9.415 -0.2935 -0.0414  0.3580
   74SLPC   H5X 6611   4.555   2.674   9.401 -0.0665  0.0006  0.3760
   74SLPC   H5Y 6612   4.635   2.812   9.451 -1.5318  2.3068  1.9997
   74SLPC   C36 6613   4.496   2.871   9.296 -0.6530 -0.4738 -0.1857
   74SLPC   H6X 6614   4.590   2.896   9.243  0.4920  0.5079  2.2355
   74SLPC   H6Y 6615   4.460   2.968   9.335  0.0867  0.2990 -1.3852
   74SLPC   C37 6616   4.392   2.799   9.210 -0.7294  0.5041  0.5287
   74SLPC   H7X 6617   4.296   2.799   9.265 -1.4895  2.4543 -0.7201
   74SLPC   H7Y 6618   4.432   2.698   9.192  3.6213  2.3894 -1.0243
   74SLPC   C38 6619   4.368   2.871   9.081  0.0792 -0.1084  0.0988
   74SLPC   H8X 6620   4.466   2.872   9.029  0.1339  1.7299  0.2122
   74SLPC   H8Y 6621   4.333   2.976   9.091 -1.0593 -0.4189 -0.4867
   74SLPC   C39 6622   4.274   2.785   8.999 -0.1256  0.2044  0.5592
   74SLPC   H9X 6623   4.185   2.779   9.065  0.2027 -2.7372  0.7804
   74SLPC   H9Y 6624   4.303   2.679   8.986 -1.4453  0.1770 -2.6156
   74SLPC  C310 6625   4.246   2.846   8.860 -0.1893 -0.0514 -0.1464
   74SLPC  H10X 6626   4.343   2.890   8.829  0.3850  1.0055  2.9723
   74SLPC  H10Y 6627   4.182   2.936   8.871  1.6845  1.2856  0.1705
   74SLPC  C311 6628   4.195   2.741   8.756 -0.0573  0.2736 -0.0408
   74SLPC  H11X 6629   4.110   2.680   8.795 -1.8441 -0.9753 -5.3886
   74SLPC  H11Y 6630   4.279   2.673   8.730  1.0738  0.8722  1.9909
   74SLPC  C312 6631   4.149   2.796   8.625 -0.4336 -0.0951  0.0084
   74SLPC  H12X 6632   4.223   2.864   8.577  0.5605  0.5114  2.3398
   74SLPC  H12Y 6633   4.053   2.848   8.646 -0.0720  0.4002  0.4460
   74SLPC  C313 6634   4.113   2.688   8.515  0.3910 -0.6386 -1.1015
   74SLPC  H13X 6635   4.030   2.627   8.557  0.7313 -0.4925 -0.2046
   74SLPC  H13Y 6636   4.203   2.626   8.497  0.3755 -1.2560  0.8947
   74SLPC  C314 6637   4.062   2.757   8.386 -0.6350 -0.5368 -0.6725
   74SLPC  H14X 6638   4.150   2.806   8.342  0.7973 -1.3764  1.1796
   74SLPC  H14Y 6639   3.985   2.831   8.416  1.4643  1.5691 -0.3996
   74SLPC  C315 6640   4.005   2.650   8.287 -0.0037 -0.3381  0.2583
   74SLPC  H15X 6641   3.947   2.589   8.359  0.6695  1.6724  2.5632
   74SLPC  H15Y 6642   4.068   2.569   8.243  1.7057  0.5450  1.0545
   74SLPC  C316 6643   3.910   2.709   8.177  0.3271 -0.0658  0.2571
   74SLPC  H16X 6644   3.832   2.770   8.227 -0.3705 -1.9251  1.4841
   74SLPC  H16Y 6645   3.856   2.623   8.132  1.0272 -0.5716  0.3698
   74SLPC  C317 6646   3.981   2.785   8.066  0.1886  0.1502 -0.1234
   74SLPC  H17X 6647   4.035   2.711   8.003 -0.0777  0.6644 -0.9636
   74SLPC  H17Y 6648   4.059   2.846   8.118 -0.2919  0.5914  0.0800
   74SLPC  C318 6649   3.895   2.872   7.978 -0.6071  0.1523 -0.7146
   74SLPC  H18X 6650   3.943   2.898   7.881  1.1792 -0.0050  0.1057
   74SLPC  H18Y 6651   3.866   2.969   8.024  0.9478  0.8285 -1.1275
   74SLPC  H18Z 6652   3.796   2.825   7.957 -0.7682 -0.5288  1.4775
   75SLPC     N 6653   2.482   6.501   6.444  0.2470  0.1579 -0.3883
   75SLPC   C13 6654   2.487   6.649   6.403  0.3069 -0.5434  0.4124
   75SLPC  H13A 6655   2.426   6.667   6.316 -1.0700  0.4989  1.5734
   75SLPC  H13B 6656   2.456   6.719   6.479  0.2414 -0.5169  0.3610
   75SLPC  H13C 6657   2.586   6.672   6.368 -0.7681  1.0705 -1.7103
   75SLPC   C14 6658   2.516   6.421   6.322  1.0716  0.3477 -0.2556
   75SLPC  H14A 6659   2.602   6.467   6.276 -0.1514  2.6722 -0.3307
   75SLPC  H14B 6660   2.539   6.318   6.342 -3.4502 -0.6836  0.2717
   75SLPC  H14C 6661   2.429   6.425   6.258  0.0918  1.6219  1.1007
   75SLPC   C15 6662   2.346   6.464   6.482  0.7045  0.7559 -0.0379
   75SLPC  H15A 6663   2.324   6.488   6.585  1.6351  0.5745  0.2116
   75SLPC  H15B 6664   2.268   6.508   6.422  0.3885  2.5983  1.6884
   75SLPC  H15C 6665   2.324   6.360   6.460  0.8411  0.8559 -0.6530
   75SLPC   C12 6666   2.582   6.469   6.550 -0.5217  0.7105 -0.4220
   75SLPC  H12A 6667   2.562   6.541   6.628  0.2119  1.7867 -1.2046
   75SLPC  H12B 6668   2.679   6.502   6.518  0.6713 -1.5003  0.8197
   75SLPC   C11 6669   2.594   6.324   6.604 -0.1714  0.8356  0.0242
   75SLPC  H11A 6670   2.490   6.302   6.637  0.3243  0.2547  1.2489
   75SLPC  H11B 6671   2.652   6.323   6.700 -2.8970  0.6120  1.7236
   75SLPC     P 6672   2.782   6.228   6.474  0.1121  0.2102 -0.3919
   75SLPC   O13 6673   2.797   6.190   6.336 -1.1369  0.1929 -0.2916
   75SLPC   O14 6674   2.841   6.359   6.514  0.3317  0.2573  0.2577
   75SLPC   O12 6675   2.632   6.227   6.512  0.2910  0.1252 -0.3691
   75SLPC   O11 6676   2.847   6.120   6.569 -0.2496  0.0859  0.0363
   75SLPC    C1 6677   2.779   6.013   6.638  0.0227  0.3709 -0.9641
   75SLPC    HA 6678   2.679   5.984   6.599 -0.9596  1.0168  0.9669
   75SLPC    HB 6679   2.847   5.927   6.620 -0.6869 -0.4354  0.0772
   75SLPC    C2 6680   2.771   6.033   6.786 -0.5030  0.0767  0.1297
   75SLPC    HS 6681   2.723   6.132   6.797  1.1462  1.1412 -1.7725
   75SLPC   O21 6682   2.909   6.037   6.829  0.2025  0.1826 -0.0569
   75SLPC   C21 6683   2.932   6.113   6.940 -0.1045 -0.5908 -0.2502
   75SLPC   O22 6684   2.848   6.171   7.005  0.6984 -0.4272 -0.0487
   75SLPC   C22 6685   3.087   6.116   6.958 -0.3589  0.6740  0.7381
   75SLPC   H2R 6686   3.123   6.011   6.957  0.1134  0.8353  1.1476
   75SLPC   H2S 6687   3.148   6.164   6.879 -1.0575  0.4726  0.0611
   75SLPC    C3 6688   2.695   5.911   6.843  0.2942 -0.4619  0.4748
   75SLPC    HX 6689   2.758   5.828   6.805 -0.6394  0.8754 -4.3574
   75SLPC    HY 6690   2.590   5.902   6.810  0.2506  1.2304  0.0737
   75SLPC   O31 6691   2.683   5.924   6.983  0.1071  0.4509 -0.4116
   75SLPC   C31 6692   2.757   5.855   7.069  0.1839  0.2018  0.2026
   75SLPC   O32 6693   2.840   5.775   7.035 -0.0239 -0.9202  0.0890
   75SLPC   C32 6694   2.722   5.900   7.217  0.4493 -0.4013  0.2951
   75SLPC   H2X 6695   2.612   5.883   7.224 -0.2866  1.3741 -5.0044
   75SLPC   H2Y 6696   2.752   6.006   7.230  0.1270 -0.3266  0.4365
   75SLPC   C23 6697   3.129   6.180   7.090  0.7485  1.1613 -0.3056
   75SLPC   H3R 6698   3.083   6.280   7.101  0.9306  1.0622  1.5767
   75SLPC   H3S 6699   3.240   6.191   7.091  1.0245 -1.3580  1.9837
   75SLPC   C24 6700   3.107   6.097   7.221  0.0917  0.2572 -0.2779
   75SLPC   H4R 6701   3.159   5.999   7.217 -0.8748 -0.2256 -1.3073
   75SLPC   H4S 6702   3.001   6.068   7.232  0.4227 -0.8451 -0.0197
   75SLPC   C25 6703   3.157   6.178   7.332 -1.1293 -0.1504 -0.5543
   75SLPC   H5R 6704   3.090   6.264   7.351  2.7971  2.8251  0.3951
   75SLPC   H5S 6705   3.254   6.231   7.317 -1.1700  0.6244  1.6506
   75SLPC   C26 6706   3.173   6.093   7.459  0.0957 -0.1194  0.0021
   75SLPC   H6R 6707   3.261   6.027   7.442 -2.0939 -2.6381 -2.0538
   75SLPC   H6S 6708   3.083   6.028   7.472 -0.7969  1.1677  0.3594
   75SLPC   C27 6709   3.216   6.180   7.585  0.0908 -0.2368 -0.3539
   75SLPC   H7R 6710   3.128   6.242   7.611  0.8544  1.2289 -1.1811
   75SLPC   H7S 6711   3.304   6.241   7.557  1.0504 -1.2315  0.4298
   75SLPC   C28 6712   3.261   6.099   7.705  0.8588 -0.7793  0.3064
   75SLPC   H8R 6713   3.353   6.039   7.685  0.8079 -0.9577  0.6018
   75SLPC   H8S 6714   3.186   6.022   7.733 -1.8791  1.7492  0.0961
   75SLPC   C29 6715   3.292   6.193   7.823  0.1037  0.3817  0.5508
   75SLPC   H9R 6716   3.394   6.232   7.834  0.3129  0.2524 -0.8949
   75SLPC  C210 6717   3.207   6.242   7.916 -0.1777 -0.0425 -0.3909
   75SLPC  H10R 6718   3.249   6.307   7.995 -2.6312  0.3498  0.6397
   75SLPC  C211 6719   3.061   6.203   7.933  0.2458 -0.0443 -0.0877
   75SLPC  H11R 6720   3.066   6.097   7.965  1.1439  0.1985  0.5650
   75SLPC  H11S 6721   3.011   6.214   7.834 -2.0689  0.9618  1.1414
   75SLPC  C212 6722   3.000   6.293   8.036 -0.2104  0.2423 -0.6158
   75SLPC  H12R 6723   2.992   6.249   8.136  0.0213  0.2470 -0.5956
   75SLPC  C213 6724   2.949   6.417   8.022 -0.2888  0.1068 -0.5560
   75SLPC  H13R 6725   2.896   6.453   8.111 -0.2295  0.9655 -0.8659
   75SLPC  C214 6726   2.932   6.496   7.894 -0.1716 -0.5969  0.2727
   75SLPC  H14R 6727   3.010   6.457   7.826  0.9719  0.4880  0.9488
   75SLPC  H14S 6728   2.967   6.600   7.907  1.0176 -0.9536 -0.0881
   75SLPC  C215 6729   2.795   6.493   7.830 -0.4618 -0.2648 -0.7018
   75SLPC  H15R 6730   2.714   6.549   7.882 -0.3923 -0.6594 -0.1584
   75SLPC  H15S 6731   2.764   6.386   7.839  0.8875 -0.6289 -0.2405
   75SLPC  C216 6732   2.800   6.531   7.677  0.0009  0.0319  0.1240
   75SLPC  H16R 6733   2.845   6.632   7.670  1.4908 -0.6714 -0.5870
   75SLPC  H16S 6734   2.701   6.540   7.627  0.2147 -0.9163 -0.4756
   75SLPC  C217 6735   2.878   6.434   7.586 -0.1792  0.3666  0.8049
   75SLPC  H17R 6736   2.985   6.420   7.615 -0.8034 -0.8730  2.5567
   75SLPC  H17S 6737   2.884   6.478   7.484 -2.1379 -1.2539 -0.0254
   75SLPC  C218 6738   2.812   6.297   7.579 -0.0417 -0.1565  0.2930
   75SLPC  H18R 6739   2.882   6.224   7.533 -1.2832 -0.5806 -0.9621
   75SLPC  H18S 6740   2.723   6.290   7.513 -1.0953 -0.2700  1.6902
   75SLPC  H18T 6741   2.790   6.261   7.682  0.1644 -1.5771 -0.1487
   75SLPC   C33 6742   2.794   5.813   7.325  0.1258 -0.5782 -0.9825
   75SLPC   H3X 6743   2.753   5.710   7.330 -0.9203 -0.0793  1.8140
   75SLPC   H3Y 6744   2.903   5.807   7.307  0.5441  1.5053  0.6231
   75SLPC   C34 6745   2.797   5.886   7.467  0.2671 -0.0559  0.0462
   75SLPC   H4X 6746   2.699   5.907   7.515  1.7439  0.7735  2.8112
   75SLPC   H4Y 6747   2.837   5.989   7.451  0.2960  0.4079  2.8478
   75SLPC   C35 6748   2.886   5.800   7.562  0.3666 -0.2657 -0.3463
   75SLPC   H5X 6749   2.987   5.781   7.520 -0.3423  0.4164 -2.3975
   75SLPC   H5Y 6750   2.836   5.702   7.573 -0.2006  0.2058  1.5089
   75SLPC   C36 6751   2.907   5.858   7.702  0.4862 -0.2144 -0.6866
   75SLPC   H6X 6752   2.989   5.933   7.701 -0.1020  0.4359 -0.6331
   75SLPC   H6Y 6753   2.932   5.771   7.766 -2.2981 -1.0443 -0.6776
   75SLPC   C37 6754   2.784   5.925   7.759  0.0555  0.5957  0.2450
   75SLPC   H7X 6755   2.703   5.859   7.722 -1.1152  0.6082  2.6872
   75SLPC   H7Y 6756   2.774   6.028   7.718 -1.3351  0.2835 -0.2205
   75SLPC   C38 6757   2.790   5.913   7.919  0.1873  0.5681 -0.7048
   75SLPC   H8X 6758   2.897   5.910   7.947 -0.1829 -2.0959  0.5327
   75SLPC   H8Y 6759   2.749   5.816   7.953  2.0354  0.6931  1.9554
   75SLPC   C39 6760   2.715   6.025   7.977  0.5062 -0.5097 -0.8119
   75SLPC   H9X 6761   2.607   6.020   7.954  0.2521  0.2975  0.1820
   75SLPC   H9Y 6762   2.749   6.128   7.957  1.9031 -1.1795 -1.9672
   75SLPC  C310 6763   2.720   6.017   8.130 -0.4799  0.0427 -0.2654
   75SLPC  H10X 6764   2.818   6.015   8.183 -0.8060 -1.5227  0.3309
   75SLPC  H10Y 6765   2.664   5.924   8.155 -1.4081 -0.0902 -2.6768
   75SLPC  C311 6766   2.629   6.124   8.196 -0.0248 -0.2205  0.5961
   75SLPC  H11X 6767   2.532   6.132   8.142 -0.8032  1.2228  2.1560
   75SLPC  H11Y 6768   2.670   6.227   8.193 -0.1371 -0.1849  0.2532
   75SLPC  C312 6769   2.575   6.087   8.338 -0.0435 -1.1446  0.8917
   75SLPC  H12X 6770   2.661   6.099   8.407  0.9108 -2.1561 -0.0986
   75SLPC  H12Y 6771   2.537   5.983   8.345 -0.2185 -1.1860 -0.5417
   75SLPC  C313 6772   2.457   6.171   8.384  0.0760  0.1957 -0.0062
   75SLPC  H13X 6773   2.434   6.142   8.489 -1.6112 -0.1348 -0.4474
   75SLPC  H13Y 6774   2.367   6.141   8.326 -0.3104 -2.0809  1.7130
   75SLPC  C314 6775   2.482   6.323   8.380 -0.4252  0.4582 -0.4106
   75SLPC  H14X 6776   2.506   6.346   8.274 -1.3010  1.5918 -0.3747
   75SLPC  H14Y 6777   2.570   6.359   8.437 -1.4408  1.9510  0.2360
   75SLPC  C315 6778   2.356   6.402   8.417 -0.2559 -0.3975 -0.2282
   75SLPC  H15X 6779   2.352   6.415   8.527 -0.6237 -0.3031 -0.2510
   75SLPC  H15Y 6780   2.265   6.342   8.396 -1.1882  0.2737  1.7394
   75SLPC  C316 6781   2.342   6.531   8.341  0.1735  0.0579 -0.0145
   75SLPC  H16X 6782   2.244   6.569   8.376  0.1303 -0.1332  0.0722
   75SLPC  H16Y 6783   2.341   6.524   8.230  1.1906 -1.3008  0.0440
   75SLPC  C317 6784   2.454   6.637   8.371  0.0429  0.0879  0.2679
   75SLPC  H17X 6785   2.545   6.584   8.334  0.6511  0.7966  0.7372
   75SLPC  H17Y 6786   2.456   6.658   8.480 -1.3059  0.1319  0.2959
   75SLPC  C318 6787   2.435   6.768   8.297 -0.3862  0.6288 -0.9506
   75SLPC  H18X 6788   2.426   6.743   8.189 -1.3081 -2.9033 -0.0869
   75SLPC  H18Y 6789   2.521   6.838   8.301 -0.5184  0.6780  1.8258
   75SLPC  H18Z 6790   2.341   6.816   8.331 -0.7333 -0.6820 -0.0461
   76SLPC     N 6791   4.989   3.972   6.062  0.1729  0.5344  0.1600
   76SLPC   C13 6792   5.083   3.961   5.948 -0.2614  0.0868 -0.0435
   76SLPC  H13A 6793   5.128   4.056   5.925  1.4644 -1.0344 -1.5056
   76SLPC  H13B 6794   5.160   3.888   5.968  0.9572  1.0397 -1.2158
   76SLPC  H13C 6795   5.023   3.931   5.864  0.3030  0.0515 -0.4384
   76SLPC   C14 6796   4.932   3.832   6.087 -0.3173  0.2551 -0.2832
   76SLPC  H14A 6797   4.854   3.807   6.017 -1.1687 -0.4953  0.9019
   76SLPC  H14B 6798   5.008   3.756   6.100 -3.0745 -2.4696  0.5629
   76SLPC  H14C 6799   4.879   3.828   6.181  2.7647 -0.5278  1.4936
   76SLPC   C15 6800   4.878   4.064   6.030 -0.0317  0.6550 -0.7212
   76SLPC  H15A 6801   4.826   4.039   5.939 -0.0786 -0.7163 -0.3245
   76SLPC  H15B 6802   4.802   4.049   6.105  1.2433 -1.5145  0.1763
   76SLPC  H15C 6803   4.913   4.167   6.030  0.1183  0.6046 -0.2557
   76SLPC   C12 6804   5.078   4.024   6.177  0.5388 -0.1549 -0.2111
   76SLPC  H12A 6805   5.165   3.960   6.181  0.1712 -0.8052 -2.0496
   76SLPC  H12B 6806   5.031   4.021   6.274 -0.8378 -0.2692 -0.8773
   76SLPC   C11 6807   5.116   4.175   6.158 -0.0124  0.1047  0.0468
   76SLPC  H11A 6808   5.141   4.207   6.055 -0.1285  0.0616  0.0059
   76SLPC  H11B 6809   5.216   4.178   6.206  1.2193 -1.6473 -2.3092
   76SLPC     P 6810   5.052   4.401   6.267 -0.4552  0.1099  0.3293
   76SLPC   O13 6811   5.196   4.421   6.247  0.5135  0.2143  0.5200
   76SLPC   O14 6812   4.956   4.494   6.193 -0.6324 -0.0199 -0.9287
   76SLPC   O12 6813   5.012   4.258   6.212  0.5478 -0.6754 -0.0527
   76SLPC   O11 6814   5.008   4.395   6.420  0.4134 -0.3392  0.1436
   76SLPC    C1 6815   4.862   4.396   6.453 -0.3391  0.6920  0.1918
   76SLPC    HA 6816   4.846   4.494   6.503 -0.2395  0.8279 -0.0370
   76SLPC    HB 6817   4.795   4.386   6.365  1.6200 -1.6032 -1.1272
   76SLPC    C2 6818   4.834   4.278   6.550  0.2146 -0.3437  0.5648
   76SLPC    HS 6819   4.728   4.293   6.580 -0.1879  0.0960 -1.0042
   76SLPC   O21 6820   4.922   4.271   6.667  0.4190  0.3357 -0.0435
   76SLPC   C21 6821   4.919   4.378   6.744 -0.0177 -0.6076 -0.0905
   76SLPC   O22 6822   4.852   4.480   6.730  0.3230  0.2622 -0.0020
   76SLPC   C22 6823   4.999   4.348   6.873  0.4348  0.3335  0.3722
   76SLPC   H2R 6824   4.972   4.244   6.900 -0.1475  1.1486  3.0176
   76SLPC   H2S 6825   5.107   4.344   6.849  0.2226 -0.3011 -0.5180
   76SLPC    C3 6826   4.846   4.142   6.480 -0.3116  0.1262 -0.0791
   76SLPC    HX 6827   4.953   4.141   6.452  0.4165  1.1765  2.4926
   76SLPC    HY 6828   4.781   4.139   6.390 -1.5786  0.1092  0.8295
   76SLPC   O31 6829   4.812   4.027   6.571 -0.5503  0.1734  0.1337
   76SLPC   C31 6830   4.868   3.911   6.530  0.4344  0.7394 -0.2142
   76SLPC   O32 6831   4.940   3.895   6.434 -1.0210 -0.5185  0.0591
   76SLPC   C32 6832   4.827   3.798   6.620  0.0611  0.0773  0.2005
   76SLPC   H2X 6833   4.836   3.702   6.565  0.0175  0.2763 -0.1553
   76SLPC   H2Y 6834   4.717   3.807   6.632 -0.0991  0.2208 -1.2261
   76SLPC   C23 6835   4.969   4.447   6.990 -0.3862  1.0897  0.4721
   76SLPC   H3R 6836   4.869   4.411   7.025  0.5972 -1.3218  0.9194
   76SLPC   H3S 6837   4.969   4.552   6.955 -0.3787  0.3490 -1.8218
   76SLPC   C24 6838   5.067   4.434   7.101 -0.2615 -0.1156  0.4625
   76SLPC   H4R 6839   5.173   4.446   7.068 -0.6045 -0.9670 -0.9845
   76SLPC   H4S 6840   5.061   4.327   7.130 -0.0451 -0.0296  0.8303
   76SLPC   C25 6841   5.028   4.520   7.221 -0.1243 -0.1245  0.7483
   76SLPC   H5R 6842   4.928   4.482   7.248 -1.3085  2.2579 -0.1476
   76SLPC   H5S 6843   5.014   4.627   7.194  2.1526  0.0036 -0.0363
   76SLPC   C26 6844   5.121   4.492   7.336  0.8053 -0.3143 -0.1528
   76SLPC   H6R 6845   5.227   4.516   7.313  1.1207 -0.4954  1.0778
   76SLPC   H6S 6846   5.129   4.384   7.359 -0.3392 -0.2449  0.5869
   76SLPC   C27 6847   5.075   4.564   7.462  0.0745  0.2534 -0.3382
   76SLPC   H7R 6848   4.968   4.537   7.469 -0.0106  0.7027  0.1124
   76SLPC   H7S 6849   5.090   4.672   7.443  0.5803  0.9456  3.4946
   76SLPC   C28 6850   5.152   4.511   7.580 -0.1697  0.1368  0.2816
   76SLPC   H8R 6851   5.117   4.406   7.586 -0.6405  0.3007  0.3846
   76SLPC   H8S 6852   5.259   4.494   7.554  0.1166 -0.0469  1.5415
   76SLPC   C29 6853   5.147   4.587   7.711  0.1482  0.1089  0.2639
   76SLPC   H9R 6854   5.177   4.691   7.695  1.5912 -0.7396 -2.8945
   76SLPC  C210 6855   5.118   4.529   7.829 -0.1980  0.2437  1.0049
   76SLPC  H10R 6856   5.133   4.596   7.915  0.3965 -0.3906  1.4001
   76SLPC  C211 6857   5.078   4.387   7.863  0.1835 -0.1999 -0.0891
   76SLPC  H11R 6858   5.114   4.317   7.785 -1.6503  0.2121 -1.3412
   76SLPC  H11S 6859   4.967   4.384   7.876  0.0071 -0.0925 -1.5504
   76SLPC  C212 6860   5.134   4.347   7.997  0.0351 -0.0533 -0.3289
   76SLPC  H12R 6861   5.244   4.350   8.007  0.0186 -2.3343  0.9454
   76SLPC  C213 6862   5.064   4.309   8.112  0.1551 -0.2714  0.1118
   76SLPC  H13R 6863   5.116   4.306   8.208  0.9823 -1.5060 -0.3702
   76SLPC  C214 6864   4.915   4.308   8.123 -0.2588 -0.3872 -0.4794
   76SLPC  H14R 6865   4.883   4.249   8.212 -0.9827  0.6887 -0.0177
   76SLPC  H14S 6866   4.876   4.242   8.043 -0.5472 -0.8453  0.0318
   76SLPC  C215 6867   4.850   4.445   8.139  0.2878  0.1139 -0.7483
   76SLPC  H15R 6868   4.743   4.431   8.163  0.3567  1.3539  0.3177
   76SLPC  H15S 6869   4.846   4.503   8.044  2.8637  0.3155 -0.7885
   76SLPC  C216 6870   4.913   4.529   8.248 -0.5308  0.8182  0.2539
   76SLPC  H16R 6871   5.015   4.559   8.215 -1.1202  2.6063 -0.0295
   76SLPC  H16S 6872   4.931   4.466   8.337  0.9357  0.6276 -0.1669
   76SLPC  C217 6873   4.837   4.653   8.303  0.4262  0.0690 -0.2494
   76SLPC  H17R 6874   4.745   4.603   8.340 -0.1301  0.1763 -1.4862
   76SLPC  H17S 6875   4.814   4.726   8.223 -0.8681 -0.9676 -0.8361
   76SLPC  C218 6876   4.920   4.725   8.409  0.4433 -0.4512  0.3558
   76SLPC  H18R 6877   5.026   4.736   8.376  1.1343 -2.0310  1.9311
   76SLPC  H18S 6878   4.915   4.668   8.504 -0.8895  2.4156  2.0826
   76SLPC  H18T 6879   4.864   4.818   8.435 -1.7677 -2.0142  1.3064
   76SLPC   C33 6880   4.902   3.787   6.754  0.2715 -0.5105 -0.1405
   76SLPC   H3X 6881   5.012   3.786   6.734  0.4466 -1.0835  0.8003
   76SLPC   H3Y 6882   4.889   3.695   6.814 -0.0736 -0.9850 -0.9316
   76SLPC   C34 6883   4.903   3.912   6.836 -0.3732 -0.1057  0.2106
   76SLPC   H4X 6884   4.797   3.946   6.842 -0.5825 -0.4200 -1.4838
   76SLPC   H4Y 6885   4.968   3.991   6.793 -1.1012 -1.0247 -2.7349
   76SLPC   C35 6886   4.951   3.885   6.975  0.5080  0.2074  0.4710
   76SLPC   H5X 6887   5.053   3.842   6.971 -0.4413 -2.0505 -0.2035
   76SLPC   H5Y 6888   4.884   3.811   7.024 -2.4441  3.3412  1.3965
   76SLPC   C36 6889   4.950   4.009   7.069 -0.2259 -0.2590 -0.2626
   76SLPC   H6X 6890   4.852   4.061   7.066 -0.4951 -0.7851 -0.8857
   76SLPC   H6Y 6891   5.013   4.087   7.021  2.3456 -2.4424 -0.6115
   76SLPC   C37 6892   4.979   3.971   7.214  0.3314  0.3974 -0.6198
   76SLPC   H7X 6893   5.076   3.917   7.223 -0.2973 -0.1975  3.7141
   76SLPC   H7Y 6894   4.898   3.909   7.258  2.1208 -1.6196 -0.1042
   76SLPC   C38 6895   4.984   4.098   7.298 -0.1444  0.3957  0.6553
   76SLPC   H8X 6896   4.882   4.141   7.305 -1.0120 -1.5393 -0.0095
   76SLPC   H8Y 6897   5.055   4.174   7.260  0.1472 -0.6607 -0.9369
   76SLPC   C39 6898   5.028   4.062   7.444 -0.0247  0.0279  0.0291
   76SLPC   H9X 6899   5.042   4.154   7.504  0.9778  0.5696 -1.0197
   76SLPC   H9Y 6900   5.126   4.011   7.435 -1.4732 -2.6013 -1.5666
   76SLPC  C310 6901   4.927   3.969   7.523 -0.2235  0.1980 -0.0258
   76SLPC  H10X 6902   4.891   3.885   7.461 -1.0344  1.1614 -0.8634
   76SLPC  H10Y 6903   4.838   4.035   7.532 -0.1057  0.3897 -0.2738
   76SLPC  C311 6904   4.974   3.923   7.661 -0.4998 -0.2571  0.1410
   76SLPC  H11X 6905   4.998   4.017   7.716 -1.2600  0.6588 -1.0412
   76SLPC  H11Y 6906   5.069   3.867   7.652 -0.7392 -0.5255 -0.7194
   76SLPC  C312 6907   4.877   3.829   7.721 -0.0343 -0.4024  0.7887
   76SLPC  H12X 6908   4.843   3.760   7.641 -2.2042 -1.0965  2.2554
   76SLPC  H12Y 6909   4.783   3.886   7.737 -0.1033 -1.0783  3.0077
   76SLPC  C313 6910   4.934   3.763   7.849  0.4758 -0.0254  0.3312
   76SLPC  H13X 6911   5.013   3.691   7.821  0.1211 -1.6597  3.4400
   76SLPC  H13Y 6912   4.856   3.691   7.882  1.2010 -1.9466 -1.9823
   76SLPC  C314 6913   4.984   3.869   7.944  0.3064  0.1785  0.3438
   76SLPC  H14X 6914   4.914   3.956   7.942  1.2856  1.0480  1.9109
   76SLPC  H14Y 6915   5.084   3.909   7.918  1.3380 -1.2411  2.0268
   76SLPC  C315 6916   5.013   3.814   8.081 -0.4858  0.4694  0.6283
   76SLPC  H15X 6917   5.102   3.751   8.062 -0.6904  0.7916 -1.5081
   76SLPC  H15Y 6918   4.927   3.750   8.111  0.3280 -0.7277  0.4211
   76SLPC  C316 6919   5.045   3.926   8.181  0.0417 -0.1662  1.0859
   76SLPC  H16X 6920   4.981   4.015   8.162  0.3166  0.2344  1.9974
   76SLPC  H16Y 6921   5.152   3.953   8.163 -0.1871  0.8510  1.1889
   76SLPC  C317 6922   5.036   3.878   8.323 -0.0079  0.2230  0.1263
   76SLPC  H17X 6923   5.119   3.809   8.349  0.5490 -0.0414 -2.2037
   76SLPC  H17Y 6924   4.935   3.834   8.335 -1.2634  2.4147 -1.7638
   76SLPC  C318 6925   5.049   4.001   8.421 -0.0887 -0.2595  0.1998
   76SLPC  H18X 6926   4.981   4.085   8.397  0.0723  0.2819  1.5837
   76SLPC  H18Y 6927   5.154   4.034   8.411 -0.4307  0.7859 -0.0386
   76SLPC  H18Z 6928   5.012   3.971   8.522  0.3524  1.7980  0.9847
   77SLPC     N 6929   1.100   4.812   6.319 -0.5839 -0.1632 -0.2145
   77SLPC   C13 6930   1.100   4.916   6.220  0.0419 -1.0572  0.8512
   77SLPC  H13A 6931   1.039   4.996   6.261 -1.3391  0.2144 -3.3747
   77SLPC  H13B 6932   1.194   4.953   6.182 -0.5150 -2.0714 -1.5941
   77SLPC  H13C 6933   1.047   4.883   6.132  1.3790  0.4693 -0.5581
   77SLPC   C14 6934   1.162   4.881   6.443 -0.5118 -0.4511 -0.8567
   77SLPC  H14A 6935   1.145   4.818   6.528 -1.1685  0.8268 -0.0240
   77SLPC  H14B 6936   1.265   4.911   6.430 -0.0692 -2.3101 -1.8615
   77SLPC  H14C 6937   1.114   4.971   6.479 -1.1777 -0.2239 -2.2613
   77SLPC   C15 6938   1.185   4.694   6.272  0.1898  0.2083 -0.5465
   77SLPC  H15A 6939   1.145   4.654   6.180 -1.4393 -1.3574  0.8291
   77SLPC  H15B 6940   1.288   4.723   6.256  0.0689  0.5461 -0.7109
   77SLPC  H15C 6941   1.181   4.615   6.345 -0.4885  1.6217  0.9516
   77SLPC   C12 6942   0.956   4.763   6.339  0.0876 -0.7207 -0.4596
   77SLPC  H12A 6943   0.931   4.689   6.264  1.5384 -1.6146 -0.0871
   77SLPC  H12B 6944   0.892   4.850   6.328  0.0691 -0.5424  0.9779
   77SLPC   C11 6945   0.924   4.701   6.480 -0.2137  0.2375 -0.8533
   77SLPC  H11A 6946   0.817   4.673   6.470  0.0570 -0.2876 -2.3434
   77SLPC  H11B 6947   0.937   4.775   6.562 -0.4225 -0.3377 -0.2950
   77SLPC     P 6948   0.970   4.451   6.484  0.2269  0.0726 -0.0575
   77SLPC   O13 6949   0.826   4.432   6.456 -0.4053  0.6716 -0.6564
   77SLPC   O14 6950   1.068   4.402   6.384  0.4773 -0.1893  0.2948
   77SLPC   O12 6951   1.008   4.594   6.509 -0.0645 -0.0545 -0.0441
   77SLPC   O11 6952   1.003   4.368   6.611 -0.1796  0.1437 -0.0000
   77SLPC    C1 6953   1.123   4.392   6.674 -0.1374 -0.0273 -0.0227
   77SLPC    HA 6954   1.205   4.344   6.616  0.0125  1.4939 -1.0972
   77SLPC    HB 6955   1.144   4.500   6.689  0.7202 -0.3595  1.2681
   77SLPC    C2 6956   1.116   4.346   6.816  0.1532  0.7323 -0.8117
   77SLPC    HS 6957   1.216   4.343   6.863 -0.1025  1.0280 -0.2495
   77SLPC   O21 6958   1.067   4.208   6.821 -0.2336 -0.3577  0.3239
   77SLPC   C21 6959   1.143   4.109   6.775 -0.3316  0.4034 -0.5282
   77SLPC   O22 6960   1.256   4.121   6.740 -0.3043  0.6695 -0.1237
   77SLPC   C22 6961   1.068   3.974   6.783 -0.1437 -0.1860 -0.1320
   77SLPC   H2R 6962   0.958   3.993   6.790 -0.4804 -0.2561 -3.9477
   77SLPC   H2S 6963   1.090   3.926   6.685  1.9756  0.8090 -0.1520
   77SLPC    C3 6964   1.018   4.427   6.904 -0.5144  0.0970  0.5984
   77SLPC    HX 6965   0.920   4.412   6.854 -0.2039 -0.0318  0.0346
   77SLPC    HY 6966   1.050   4.533   6.891 -0.9818  0.3933  1.7620
   77SLPC   O31 6967   1.018   4.380   7.041 -0.3033 -0.7855 -0.0999
   77SLPC   C31 6968   0.926   4.287   7.074 -0.1507 -0.3705  0.3047
   77SLPC   O32 6969   0.836   4.250   7.001 -0.1226 -0.6262 -0.0281
   77SLPC   C32 6970   0.945   4.231   7.214 -0.2209 -0.8932  0.4263
   77SLPC   H2X 6971   0.945   4.121   7.195  0.1892 -0.5307 -1.8778
   77SLPC   H2Y 6972   0.850   4.255   7.265 -0.5286 -1.1624 -0.0140
   77SLPC   C23 6973   1.117   3.873   6.884  0.1456  0.1395 -0.1756
   77SLPC   H3R 6974   1.216   3.835   6.853  0.3283 -0.2592  0.8958
   77SLPC   H3S 6975   1.057   3.780   6.882 -0.4902  0.5345  0.2846
   77SLPC   C24 6976   1.105   3.935   7.017 -0.3923  0.5283  0.3667
   77SLPC   H4R 6977   1.017   4.002   7.028 -0.5278  0.4699 -0.3787
   77SLPC   H4S 6978   1.189   4.002   7.044  1.1123 -0.6767 -1.2451
   77SLPC   C25 6979   1.091   3.819   7.125 -0.3924 -0.4648 -0.0313
   77SLPC   H5R 6980   1.169   3.742   7.109 -0.5717 -0.4271 -1.1179
   77SLPC   H5S 6981   0.988   3.781   7.107 -0.7902  0.8729 -0.6397
   77SLPC   C26 6982   1.104   3.859   7.273 -0.4980  0.3048 -0.2682
   77SLPC   H6R 6983   1.094   3.768   7.336 -2.2214  1.2672  0.8752
   77SLPC   H6S 6984   1.034   3.943   7.293 -1.1057 -0.9364  3.1356
   77SLPC   C27 6985   1.239   3.919   7.323  0.4639  0.2441  0.5162
   77SLPC   H7R 6986   1.226   4.026   7.294  0.5002 -0.7333 -3.4620
   77SLPC   H7S 6987   1.319   3.871   7.262  0.1062 -1.6864  1.5497
   77SLPC   C28 6988   1.266   3.898   7.477  0.8531  0.1257  1.0255
   77SLPC   H8R 6989   1.185   3.933   7.544  1.2272 -1.5938  2.4506
   77SLPC   H8S 6990   1.350   3.967   7.499  1.9683 -0.4714 -1.2329
   77SLPC   C29 6991   1.302   3.755   7.505  0.2272 -1.3177 -0.0142
   77SLPC   H9R 6992   1.274   3.693   7.418 -0.0463  1.2516 -1.7974
   77SLPC  C210 6993   1.372   3.711   7.613 -0.2074 -0.0727  0.0815
   77SLPC  H10R 6994   1.404   3.605   7.618 -0.8874 -0.3939 -2.0050
   77SLPC  C211 6995   1.433   3.794   7.722 -0.3500 -0.3132  0.7453
   77SLPC  H11R 6996   1.477   3.886   7.680 -1.3558 -0.5288 -0.8329
   77SLPC  H11S 6997   1.516   3.729   7.757  0.6701  0.1071 -0.8828
   77SLPC  C212 6998   1.333   3.823   7.834 -0.2780  0.2552  0.2421
   77SLPC  H12R 6999   1.236   3.859   7.797  0.3000  0.0585 -1.5124
   77SLPC  C213 7000   1.346   3.826   7.963  0.1469  0.2637  0.5692
   77SLPC  H13R 7001   1.254   3.845   8.021 -1.8648  1.2787 -2.7863
   77SLPC  C214 7002   1.464   3.792   8.048 -0.4947  0.2975  0.3362
   77SLPC  H14R 7003   1.545   3.756   7.981 -2.0368 -2.3686 -0.1843
   77SLPC  H14S 7004   1.439   3.705   8.112 -1.6459  1.7557  1.9009
   77SLPC  C215 7005   1.503   3.903   8.145 -0.3816 -0.3902  0.0860
   77SLPC  H15R 7006   1.414   3.929   8.207 -0.0991 -1.0000  0.7536
   77SLPC  H15S 7007   1.533   3.992   8.085 -0.1946 -1.2543 -1.1068
   77SLPC  C216 7008   1.628   3.868   8.239  0.5912  0.0144 -0.0167
   77SLPC  H16R 7009   1.668   3.967   8.269 -0.5740  0.4898 -0.0383
   77SLPC  H16S 7010   1.706   3.819   8.176  1.1316 -0.0973  0.7239
   77SLPC  C217 7011   1.602   3.779   8.362  0.0709 -0.0932 -0.2980
   77SLPC  H17R 7012   1.700   3.727   8.375  0.8594  1.7573  1.4100
   77SLPC  H17S 7013   1.526   3.700   8.344  1.1134 -0.8404 -1.5164
   77SLPC  C218 7014   1.548   3.849   8.487  0.1296 -0.0442  0.1600
   77SLPC  H18R 7015   1.485   3.778   8.544 -0.9730  0.9214  0.1662
   77SLPC  H18S 7016   1.491   3.939   8.455  0.9870  0.3776 -0.2162
   77SLPC  H18T 7017   1.630   3.879   8.556  0.0160 -2.0928  1.2236
   77SLPC   C33 7018   1.060   4.287   7.292 -0.0627 -0.7034 -0.4184
   77SLPC   H3X 7019   1.094   4.392   7.281  0.9280 -1.0157 -0.4127
   77SLPC   H3Y 7020   1.145   4.223   7.259  1.1431  0.2302  0.8184
   77SLPC   C34 7021   1.047   4.264   7.447 -0.4323 -0.3058  0.5454
   77SLPC   H4X 7022   0.996   4.166   7.461 -0.1313 -0.5606 -0.1459
   77SLPC   H4Y 7023   0.987   4.349   7.488 -3.3535 -1.5563 -0.9843
   77SLPC   C35 7024   1.190   4.263   7.518 -0.1465  0.3337  0.2531
   77SLPC   H5X 7025   1.243   4.354   7.485  2.4354 -1.4270 -0.6463
   77SLPC   H5Y 7026   1.247   4.171   7.490 -0.4037  0.0669  0.5914
   77SLPC   C36 7027   1.179   4.289   7.665  0.3922  0.2261  0.3426
   77SLPC   H6X 7028   1.146   4.394   7.683 -1.8239 -0.5339  0.8078
   77SLPC   H6Y 7029   1.280   4.287   7.713 -0.7997 -0.5275  2.8802
   77SLPC   C37 7030   1.095   4.196   7.736 -1.0290  0.1794 -0.6241
   77SLPC   H7X 7031   1.091   4.102   7.677  0.5502 -0.5536  0.3830
   77SLPC   H7Y 7032   0.988   4.225   7.743 -0.5542  1.3996  2.4116
   77SLPC   C38 7033   1.156   4.142   7.871  0.1008 -0.9582  0.3194
   77SLPC   H8X 7034   1.263   4.116   7.856 -0.2955 -2.3463 -0.1663
   77SLPC   H8Y 7035   1.108   4.048   7.905 -3.1469  0.8200  0.8515
   77SLPC   C39 7036   1.139   4.245   7.982  0.5079  0.2184 -0.1321
   77SLPC   H9X 7037   1.034   4.258   8.016 -0.2614 -0.9820 -1.9232
   77SLPC   H9Y 7038   1.170   4.344   7.941  0.6339  0.6241  0.9371
   77SLPC  C310 7039   1.223   4.223   8.107 -0.7748 -0.6172 -0.3862
   77SLPC  H10X 7040   1.198   4.304   8.179 -1.6110  0.2277 -1.6072
   77SLPC  H10Y 7041   1.328   4.222   8.072 -0.8247 -0.4851 -0.5399
   77SLPC  C311 7042   1.183   4.093   8.187  0.1047  0.4598 -0.0560
   77SLPC  H11X 7043   1.207   4.005   8.125  1.5369  1.8102 -1.4439
   77SLPC  H11Y 7044   1.072   4.087   8.195  0.1248 -0.1963 -0.2284
   77SLPC  C312 7045   1.247   4.094   8.328 -0.0486  0.0949 -0.0330
   77SLPC  H12X 7046   1.197   4.182   8.375  0.5559  0.8268 -0.7559
   77SLPC  H12Y 7047   1.354   4.119   8.313 -0.0595 -0.4387 -0.9986
   77SLPC  C313 7048   1.222   3.970   8.428 -0.8444 -0.1853  0.0607
   77SLPC  H13X 7049   1.293   3.978   8.513  0.8927 -1.8728 -1.1763
   77SLPC  H13Y 7050   1.254   3.877   8.377 -0.4077  0.1564 -0.3033
   77SLPC  C314 7051   1.078   3.975   8.487  0.4076  0.3628  0.3133
   77SLPC  H14X 7052   1.006   3.988   8.403 -0.2898  0.2507  0.8907
   77SLPC  H14Y 7053   1.072   4.063   8.555  1.0038 -0.2022  1.1027
   77SLPC  C315 7054   1.042   3.857   8.578  0.7530 -0.1647 -0.0199
   77SLPC  H15X 7055   1.035   3.763   8.520 -1.3543  1.2660 -2.1733
   77SLPC  H15Y 7056   0.935   3.865   8.606  0.4983  0.6381 -1.1720
   77SLPC  C316 7057   1.137   3.823   8.700 -0.2108 -0.4856  0.3494
   77SLPC  H16X 7058   1.143   3.905   8.774 -4.0404  0.0852  0.0933
   77SLPC  H16Y 7059   1.241   3.803   8.666 -0.0423  2.6463 -1.0688
   77SLPC  C317 7060   1.092   3.704   8.781  0.0859 -0.2637  0.2323
   77SLPC  H17X 7061   1.065   3.628   8.705 -1.0506  1.8818 -1.5638
   77SLPC  H17Y 7062   1.011   3.729   8.853  0.3749  0.2569  0.3780
   77SLPC  C318 7063   1.223   3.645   8.843 -0.6132 -0.1120 -0.7870
   77SLPC  H18X 7064   1.260   3.708   8.927 -0.3710 -1.1301 -0.1299
   77SLPC  H18Y 7065   1.307   3.638   8.772  0.7580 -0.9675  0.8916
   77SLPC  H18Z 7066   1.212   3.538   8.870  0.1844 -0.2718 -1.0996
   78SLPC     N 7067   3.541   5.375   6.349  0.4783 -0.7233  0.1790
   78SLPC   C13 7068   3.652   5.363   6.243 -0.1407  0.0604  0.7714
   78SLPC  H13A 7069   3.743   5.343   6.297  0.5706 -1.3571 -0.8853
   78SLPC  H13B 7070   3.625   5.288   6.170  0.0061 -0.1809  0.9662
   78SLPC  H13C 7071   3.665   5.461   6.201  1.6175 -1.3666 -2.2165
   78SLPC   C14 7072   3.415   5.404   6.271  0.3645  0.3187 -0.2513
   78SLPC  H14A 7073   3.384   5.318   6.214 -0.7989 -0.2427  1.1892
   78SLPC  H14B 7074   3.330   5.411   6.338  1.6011 -1.4738  1.5933
   78SLPC  H14C 7075   3.429   5.493   6.212  1.8657 -0.3920 -0.9932
   78SLPC   C15 7076   3.575   5.478   6.444 -0.1080 -0.1234  1.2210
   78SLPC  H15A 7077   3.673   5.469   6.488 -0.6501 -1.8586  2.1260
   78SLPC  H15B 7078   3.562   5.574   6.396  1.7938  0.7226  2.3558
   78SLPC  H15C 7079   3.504   5.491   6.525  0.5529  0.5213  1.7027
   78SLPC   C12 7080   3.525   5.249   6.429  0.3259  0.4510  0.7733
   78SLPC  H12A 7081   3.494   5.176   6.357  0.2778  0.2955  0.9502
   78SLPC  H12B 7082   3.457   5.250   6.513  0.5100  0.7973  0.9249
   78SLPC   C11 7083   3.656   5.185   6.497  0.4967  0.5931 -0.0021
   78SLPC  H11A 7084   3.614   5.099   6.554 -0.7376  0.0794 -1.6543
   78SLPC  H11B 7085   3.709   5.259   6.560  1.2896 -0.5349  0.6816
   78SLPC     P 7086   3.727   4.990   6.335  0.1720 -0.5836  0.1365
   78SLPC   O13 7087   3.594   4.978   6.279 -0.3073 -0.6272  0.0850
   78SLPC   O14 7088   3.834   4.961   6.232  0.1274 -0.8615 -0.2479
   78SLPC   O12 7089   3.744   5.138   6.392 -0.2505 -0.1456  0.6710
   78SLPC   O11 7090   3.744   4.907   6.467 -0.3092  0.2452 -0.1838
   78SLPC    C1 7091   3.855   4.918   6.552 -0.3784 -0.1170  0.4443
   78SLPC    HA 7092   3.934   4.862   6.499 -0.9253  0.1878 -0.7002
   78SLPC    HB 7093   3.892   5.023   6.552  0.6658 -0.4760  0.6620
   78SLPC    C2 7094   3.820   4.860   6.693  0.2224 -0.3324  0.3570
   78SLPC    HS 7095   3.913   4.879   6.751 -0.0508 -1.7578  1.2674
   78SLPC   O21 7096   3.790   4.719   6.697  0.2962 -0.1994 -0.1482
   78SLPC   C21 7097   3.896   4.636   6.666 -0.1739  0.0625  0.2469
   78SLPC   O22 7098   4.010   4.673   6.639 -0.4905  0.1340 -0.2625
   78SLPC   C22 7099   3.846   4.494   6.678  0.7907  0.4791 -0.3672
   78SLPC   H2R 7100   3.779   4.471   6.763  1.3950 -0.6618 -0.1906
   78SLPC   H2S 7101   3.790   4.473   6.585  0.2150  1.0048 -0.1465
   78SLPC    C3 7102   3.701   4.944   6.749 -0.6283  0.0503  0.2831
   78SLPC    HX 7103   3.608   4.927   6.691 -0.7863 -0.3124  0.6426
   78SLPC    HY 7104   3.712   5.054   6.740 -2.1290  0.1824 -0.1906
   78SLPC   O31 7105   3.685   4.912   6.890 -0.3498 -0.0402  0.1160
   78SLPC   C31 7106   3.585   4.823   6.907  0.9248  0.5367 -0.5129
   78SLPC   O32 7107   3.516   4.773   6.820  0.1686  0.7784 -0.0768
   78SLPC   C32 7108   3.561   4.818   7.061  0.0062 -0.5589  0.2690
   78SLPC   H2X 7109   3.488   4.735   7.077 -0.1253 -0.7129 -1.0426
   78SLPC   H2Y 7110   3.502   4.908   7.087  2.4779  0.4600  2.5331
   78SLPC   C23 7111   3.961   4.400   6.695  0.9604  0.1328  0.3045
   78SLPC   H3R 7112   4.037   4.385   6.615 -3.0340 -1.3289 -3.3930
   78SLPC   H3S 7113   3.910   4.301   6.701 -0.3007  0.5335 -2.9094
   78SLPC   C24 7114   4.043   4.413   6.827 -0.2469 -0.0494  0.2980
   78SLPC   H4R 7115   4.109   4.503   6.831 -0.2934  0.0037 -0.1283
   78SLPC   H4S 7116   4.116   4.330   6.830  0.0604  0.2898  4.7092
   78SLPC   C25 7117   3.965   4.388   6.957 -0.7511  0.2217 -0.5427
   78SLPC   H5R 7118   3.885   4.312   6.955  0.9390 -1.6160 -0.4791
   78SLPC   H5S 7119   3.921   4.489   6.975  0.4145  0.9637 -1.6987
   78SLPC   C26 7120   4.056   4.350   7.074 -0.0449 -0.6245  0.3949
   78SLPC   H6R 7121   4.141   4.422   7.070  0.0383 -0.6840  1.0365
   78SLPC   H6S 7122   4.097   4.247   7.067  0.8034 -0.3094  0.6818
   78SLPC   C27 7123   3.991   4.357   7.217  0.1013 -0.1670 -0.3146
   78SLPC   H7R 7124   3.922   4.271   7.221  1.2781 -1.0473  2.0852
   78SLPC   H7S 7125   3.929   4.449   7.208 -1.5825 -1.2723 -0.1033
   78SLPC   C28 7126   4.086   4.379   7.332 -0.4935 -0.4874  0.3606
   78SLPC   H8R 7127   4.025   4.417   7.417 -0.9515 -0.0684 -0.1545
   78SLPC   H8S 7128   4.149   4.466   7.305  1.7485 -3.1571 -3.3685
   78SLPC   C29 7129   4.178   4.255   7.361  0.3313  0.0638 -0.7494
   78SLPC   H9R 7130   4.219   4.201   7.275 -0.4905 -0.2454 -0.9589
   78SLPC  C210 7131   4.190   4.212   7.488 -0.1594 -0.1948 -0.0850
   78SLPC  H10R 7132   4.258   4.128   7.507 -0.8858 -0.9681 -0.8825
   78SLPC  C211 7133   4.138   4.279   7.604 -0.2504 -0.7954  0.3728
   78SLPC  H11R 7134   4.028   4.286   7.593 -0.1853  1.0305  0.6491
   78SLPC  H11S 7135   4.167   4.387   7.603 -1.5054 -0.4479  0.7472
   78SLPC  C212 7136   4.176   4.202   7.730 -0.2958  0.2650  0.5176
   78SLPC  H12R 7137   4.233   4.111   7.708 -0.3991  0.6050 -1.2414
   78SLPC  C213 7138   4.155   4.243   7.861 -0.1757 -0.4406 -0.8267
   78SLPC  H13R 7139   4.190   4.174   7.940 -0.1915 -0.3540 -0.7436
   78SLPC  C214 7140   4.072   4.368   7.895 -0.0237 -0.5154 -0.2850
   78SLPC  H14R 7141   3.965   4.338   7.905  0.5888 -2.8721 -0.5247
   78SLPC  H14S 7142   4.081   4.442   7.813 -1.3978 -0.9505 -0.8466
   78SLPC  C215 7143   4.120   4.431   8.029  0.0851 -0.3877 -0.6322
   78SLPC  H15R 7144   4.082   4.536   8.034  0.2175 -0.4145  1.2949
   78SLPC  H15S 7145   4.231   4.433   8.030  0.0697  0.7307  0.0703
   78SLPC  C216 7146   4.058   4.345   8.146  0.2232 -0.2493 -0.0924
   78SLPC  H16R 7147   4.101   4.242   8.141 -0.8474 -0.7832  1.3908
   78SLPC  H16S 7148   3.948   4.346   8.129  0.1503 -1.0043  0.3366
   78SLPC  C217 7149   4.092   4.406   8.280  1.4799  0.5569  0.0246
   78SLPC  H17R 7150   4.043   4.505   8.288  3.5139  1.6386 -0.5688
   78SLPC  H17S 7151   4.202   4.419   8.288  1.5165  0.3921 -0.2162
   78SLPC  C218 7152   4.052   4.318   8.397 -0.0298 -0.4625  0.1636
   78SLPC  H18R 7153   3.943   4.305   8.382 -0.1877  1.1118 -0.1767
   78SLPC  H18S 7154   4.065   4.369   8.495  0.7369  1.6542 -1.0062
   78SLPC  H18T 7155   4.097   4.217   8.396  0.1986 -0.3794  1.4146
   78SLPC   C33 7156   3.684   4.807   7.155 -0.2658 -0.5072 -0.6669
   78SLPC   H3X 7157   3.752   4.892   7.133  0.4595 -0.0745  2.8944
   78SLPC   H3Y 7158   3.733   4.710   7.135  0.4890 -0.2918  0.1079
   78SLPC   C34 7159   3.643   4.827   7.304  0.6724 -0.5035 -0.6365
   78SLPC   H4X 7160   3.561   4.753   7.318 -0.1485  0.5595  0.2168
   78SLPC   H4Y 7161   3.595   4.926   7.318  0.6361 -0.7855  1.5232
   78SLPC   C35 7162   3.753   4.798   7.405 -0.5526  0.0782 -0.2539
   78SLPC   H5X 7163   3.855   4.815   7.366 -0.8897 -1.9069 -2.1273
   78SLPC   H5Y 7164   3.741   4.688   7.420  0.1328  0.1052  0.4994
   78SLPC   C36 7165   3.733   4.864   7.532  0.4291 -0.0169 -0.1013
   78SLPC   H6X 7166   3.634   4.844   7.577  0.4535 -1.0883 -0.5128
   78SLPC   H6Y 7167   3.738   4.975   7.526 -2.0822  0.2662  2.2995
   78SLPC   C37 7168   3.834   4.821   7.645  0.7524  0.4481  0.8969
   78SLPC   H7X 7169   3.927   4.878   7.623  0.2338  0.2901 -1.8323
   78SLPC   H7Y 7170   3.845   4.711   7.639 -0.4947  0.4178 -1.4748
   78SLPC   C38 7171   3.780   4.870   7.778  0.3311 -0.0784 -0.1179
   78SLPC   H8X 7172   3.672   4.850   7.793  0.4524 -1.4422 -1.0077
   78SLPC   H8Y 7173   3.801   4.979   7.787  1.3233 -0.1645 -1.1971
   78SLPC   C39 7174   3.855   4.809   7.898 -0.1004 -0.2033 -0.6125
   78SLPC   H9X 7175   3.961   4.832   7.876 -0.3861  1.7787  0.0268
   78SLPC   H9Y 7176   3.850   4.698   7.909 -0.8394 -0.3061 -1.8533
   78SLPC  C310 7177   3.822   4.864   8.031  0.3497  0.0945 -0.5024
   78SLPC  H10X 7178   3.713   4.853   8.046  0.1165  1.3660 -1.1754
   78SLPC  H10Y 7179   3.851   4.971   8.019 -0.7932  0.5465  0.5983
   78SLPC  C311 7180   3.912   4.788   8.137 -0.7163  0.7558 -0.3430
   78SLPC  H11X 7181   4.018   4.790   8.105 -0.5229 -0.6002  0.2171
   78SLPC  H11Y 7182   3.883   4.681   8.138  1.2836  0.1258 -3.2848
   78SLPC  C312 7183   3.881   4.832   8.281 -0.2978 -0.9318 -0.0288
   78SLPC  H12X 7184   3.945   4.787   8.359  2.8372 -0.3235 -2.1498
   78SLPC  H12Y 7185   3.774   4.808   8.298 -0.7077 -1.5294 -3.0329
   78SLPC  C313 7186   3.896   4.987   8.302  1.0692 -0.3547  0.0736
   78SLPC  H13X 7187   3.828   5.049   8.240  3.3206  1.8562 -0.2330
   78SLPC  H13Y 7188   3.999   5.004   8.264  1.5111 -1.9331  0.5283
   78SLPC  C314 7189   3.894   5.032   8.447 -0.3014 -0.2512  0.8483
   78SLPC  H14X 7190   3.987   5.009   8.502  0.6853 -0.2642 -0.7885
   78SLPC  H14Y 7191   3.808   4.982   8.495 -1.8618  1.1698 -0.3920
   78SLPC  C315 7192   3.878   5.181   8.484  0.5727 -0.1355  0.3935
   78SLPC  H15X 7193   3.825   5.240   8.406 -1.7548 -1.4401  0.9571
   78SLPC  H15Y 7194   3.972   5.239   8.495 -0.6471  1.9112  0.2745
   78SLPC  C316 7195   3.804   5.198   8.619 -0.4579 -0.0866  0.0880
   78SLPC  H16X 7196   3.868   5.167   8.705  0.1948 -0.8560 -0.6687
   78SLPC  H16Y 7197   3.714   5.134   8.627 -1.6455  1.6700  1.1637
   78SLPC  C317 7198   3.762   5.340   8.644 -0.4356  0.2399  0.2307
   78SLPC  H17X 7199   3.697   5.377   8.562  0.8328 -2.2434 -1.9477
   78SLPC  H17Y 7200   3.853   5.402   8.655  0.9770 -1.9423  1.1387
   78SLPC  C318 7201   3.693   5.353   8.776 -0.1582 -0.4688  0.3731
   78SLPC  H18X 7202   3.676   5.461   8.793 -3.0151 -0.9237  0.7083
   78SLPC  H18Y 7203   3.739   5.321   8.872  0.4864  2.1337  0.9519
   78SLPC  H18Z 7204   3.589   5.313   8.780 -0.4404  0.3284  1.4603
   79SLPC     N 7205   6.625   0.704   6.099 -1.3797  0.2824  0.2646
   79SLPC   C13 7206   6.693   0.594   6.015  0.7639 -0.2610  0.1126
   79SLPC  H13A 7207   6.800   0.597   6.035  1.5362 -0.8369 -3.5839
   79SLPC  H13B 7208   6.672   0.495   6.051 -0.2915 -0.7403 -1.7579
   79SLPC  H13C 7209   6.672   0.601   5.909 -0.6443 -0.2405  0.3837
   79SLPC   C14 7210   6.475   0.695   6.054 -0.4276  0.1908  0.2687
   79SLPC  H14A 7211   6.441   0.592   6.055  1.2027 -0.3766  3.8764
   79SLPC  H14B 7212   6.406   0.756   6.111  0.2036 -0.3205  1.5961
   79SLPC  H14C 7213   6.461   0.729   5.952 -0.5311 -2.4128 -0.6414
   79SLPC   C15 7214   6.673   0.842   6.065  0.7838  0.1525 -0.0817
   79SLPC  H15A 7215   6.779   0.858   6.080  1.0406  1.5065 -2.9253
   79SLPC  H15B 7216   6.656   0.862   5.960  2.6532 -0.2025 -0.4632
   79SLPC  H15C 7217   6.617   0.923   6.110 -0.5633  0.2755 -1.9192
   79SLPC   C12 7218   6.636   0.669   6.247  0.5534 -0.6186 -0.3866
   79SLPC  H12A 7219   6.597   0.568   6.255 -0.3405 -0.4187 -2.0079
   79SLPC  H12B 7220   6.572   0.736   6.302  1.3233 -1.0970  1.1231
   79SLPC   C11 7221   6.770   0.668   6.319 -0.4979 -0.2378 -1.0660
   79SLPC  H11A 7222   6.742   0.651   6.426  0.5131 -2.2734 -1.1065
   79SLPC  H11B 7223   6.832   0.760   6.310  0.4357 -0.7255  0.1868
   79SLPC     P 7224   6.939   0.459   6.354 -0.2026  0.0869  0.0695
   79SLPC   O13 7225   6.922   0.328   6.293  0.6238 -0.4760  0.0532
   79SLPC   O14 7226   7.074   0.515   6.369  0.7474 -0.2164 -0.5588
   79SLPC   O12 7227   6.850   0.564   6.268 -0.2043  0.0875  0.0787
   79SLPC   O11 7228   6.864   0.471   6.497  0.0988 -0.2624  0.6161
   79SLPC    C1 7229   6.767   0.371   6.543 -0.8680 -0.1510  0.3045
   79SLPC    HA 7230   6.663   0.399   6.516 -0.7486 -0.7092 -0.7876
   79SLPC    HB 7231   6.794   0.272   6.500  1.9327  0.6249  0.1866
   79SLPC    C2 7232   6.790   0.357   6.703  0.7350  0.5407  0.2550
   79SLPC    HS 7233   6.745   0.444   6.756 -3.1163 -0.4962 -1.1271
   79SLPC   O21 7234   6.935   0.330   6.719  0.8097  0.0345  0.0015
   79SLPC   C21 7235   7.001   0.440   6.754 -0.1100  0.1901  0.5314
   79SLPC   O22 7236   6.949   0.552   6.771 -0.0067  0.2783  0.0097
   79SLPC   C22 7237   7.149   0.407   6.764 -0.2367 -0.2378 -0.4072
   79SLPC   H2R 7238   7.185   0.348   6.677  3.2629  0.0066  0.7954
   79SLPC   H2S 7239   7.199   0.505   6.756  1.9074 -1.2619  0.1440
   79SLPC    C3 7240   6.700   0.240   6.762 -0.1162 -0.3690 -0.1319
   79SLPC    HX 7241   6.710   0.141   6.713 -0.6515 -0.2583 -0.4586
   79SLPC    HY 7242   6.594   0.272   6.756  0.6748  2.0120 -2.1991
   79SLPC   O31 7243   6.746   0.214   6.893  0.0061 -0.1564  0.5975
   79SLPC   C31 7244   6.706   0.308   6.982  0.2307  0.1800  0.0085
   79SLPC   O32 7245   6.616   0.388   6.968  0.2386 -0.4137  0.0473
   79SLPC   C32 7246   6.795   0.298   7.108 -0.3417  0.4134 -0.1277
   79SLPC   H2X 7247   6.884   0.362   7.085 -0.5957  0.4716 -0.9637
   79SLPC   H2Y 7248   6.840   0.197   7.105  0.0864  0.5232  1.9280
   79SLPC   C23 7249   7.180   0.351   6.908  0.1963  0.2435  0.2465
   79SLPC   H3R 7250   7.118   0.407   6.980 -2.4326 -0.9002 -1.0447
   79SLPC   H3S 7251   7.289   0.363   6.924 -0.0148 -0.1232  2.1122
   79SLPC   C24 7252   7.145   0.205   6.932  0.3191  0.2355 -0.5729
   79SLPC   H4R 7253   7.186   0.140   6.852 -2.0181 -2.9570  0.7260
   79SLPC   H4S 7254   7.034   0.199   6.941  0.5145  0.3112  2.1666
   79SLPC   C25 7255   7.198   0.140   7.054  0.2450 -0.3085 -0.0165
   79SLPC   H5R 7256   7.307   0.164   7.048 -0.3242  2.3967 -0.4685
   79SLPC   H5S 7257   7.172   0.036   7.028 -0.9132  0.1027 -0.5319
   79SLPC   C26 7258   7.148   0.192   7.186  0.1269  1.2898 -0.1732
   79SLPC   H6R 7259   7.060   0.137   7.225  1.3110 -2.7195 -2.8642
   79SLPC   H6S 7260   7.128   0.301   7.175 -3.7244  0.8523  1.5665
   79SLPC   C27 7261   7.252   0.182   7.296 -0.8209  0.3550 -0.2161
   79SLPC   H7R 7262   7.334   0.257   7.289 -1.2196  0.9241  1.0267
   79SLPC   H7S 7263   7.284   0.075   7.299  0.2675  0.6513 -1.0695
   79SLPC   C28 7264   7.179   0.222   7.428 -0.1236  0.1508 -0.3185
   79SLPC   H8R 7265   7.078   0.177   7.440  0.9392 -1.8723  1.4329
   79SLPC   H8S 7266   7.171   0.332   7.416 -0.7165 -0.0259 -1.6998
   79SLPC   C29 7267   7.275   0.191   7.542 -0.6091 -0.2099 -0.3859
   79SLPC   H9R 7268   7.343   0.273   7.570  1.2187 -1.9667  0.4412
   79SLPC  C210 7269   7.294   0.072   7.605 -0.3877 -0.3240 -0.0907
   79SLPC  H10R 7270   7.379   0.058   7.674  0.7265 -2.8481 -1.9231
   79SLPC  C211 7271   7.223  -0.053   7.571  1.0770  0.2802  0.0198
   79SLPC  H11R 7272   7.293  -0.137   7.552  1.8176  1.0075 -0.5008
   79SLPC  H11S 7273   7.172  -0.037   7.473 -0.9610 -1.2322  0.7892
   79SLPC  C212 7274   7.128  -0.086   7.686 -0.0733  0.1946  0.6376
   79SLPC  H12R 7275   7.025  -0.052   7.668  0.1784 -0.8789 -3.1871
   79SLPC  C213 7276   7.155  -0.163   7.802  0.3687 -0.7331  0.1578
   79SLPC  H13R 7277   7.081  -0.178   7.882  1.5277 -3.1112  0.8241
   79SLPC  C214 7278   7.288  -0.226   7.840  0.0461  0.0641  0.8055
   79SLPC  H14R 7279   7.371  -0.181   7.781  0.3988 -0.5460  0.8365
   79SLPC  H14S 7280   7.293  -0.330   7.801 -2.1825  0.6054 -1.0883
   79SLPC  C215 7281   7.316  -0.229   7.992  0.2911 -0.4101 -0.4602
   79SLPC  H15R 7282   7.317  -0.123   8.026  0.2480 -1.2327  2.2391
   79SLPC  H15S 7283   7.424  -0.254   8.003  0.2222 -0.1822  0.8493
   79SLPC  C216 7284   7.225  -0.330   8.069  0.2935 -0.0492 -0.0995
   79SLPC  H16R 7285   7.250  -0.432   8.032  0.6628 -0.3885  1.0768
   79SLPC  H16S 7286   7.122  -0.307   8.036  0.4360 -2.6299 -2.5306
   79SLPC  C217 7287   7.224  -0.324   8.222  0.4269  0.3116  0.6774
   79SLPC  H17R 7288   7.212  -0.215   8.241 -2.5941  0.1313  0.0747
   79SLPC  H17S 7289   7.311  -0.368   8.274  0.8989  0.5844  0.1192
   79SLPC  C218 7290   7.094  -0.390   8.282 -0.4087 -0.1642  0.1734
   79SLPC  H18R 7291   7.000  -0.343   8.246  1.1774  2.3578 -0.8479
   79SLPC  H18S 7292   7.097  -0.379   8.393 -2.1223  2.1922  0.0201
   79SLPC  H18T 7293   7.099  -0.495   8.249 -0.3861 -0.0546 -0.1701
   79SLPC   C33 7294   6.728   0.330   7.243  0.2795 -0.3636 -0.5132
   79SLPC   H3X 7295   6.626   0.288   7.232  0.3323 -0.4641 -0.6086
   79SLPC   H3Y 7296   6.715   0.439   7.261  0.0148 -0.5523  0.4640
   79SLPC   C34 7297   6.816   0.261   7.354  0.1963  0.3314 -0.3349
   79SLPC   H4X 7298   6.916   0.310   7.350  0.5980 -0.2445  1.7702
   79SLPC   H4Y 7299   6.832   0.156   7.323 -1.4623 -0.1026  0.2584
   79SLPC   C35 7300   6.753   0.261   7.497  0.0521 -0.1143  0.0105
   79SLPC   H5X 7301   6.642   0.258   7.487  0.0258  0.8976 -0.0871
   79SLPC   H5Y 7302   6.770   0.362   7.541  3.8515 -0.1142 -1.3087
   79SLPC   C36 7303   6.797   0.146   7.586  0.1113 -0.6115  0.4707
   79SLPC   H6X 7304   6.907   0.159   7.600 -0.1543  0.8741  1.2735
   79SLPC   H6Y 7305   6.782   0.056   7.522 -1.9086 -1.8454  2.6201
   79SLPC   C37 7306   6.711   0.137   7.719  0.3554 -0.4622  0.2507
   79SLPC   H7X 7307   6.615   0.089   7.691  0.5351 -0.6746 -0.0050
   79SLPC   H7Y 7308   6.687   0.240   7.752  1.3795  0.0538 -0.5910
   79SLPC   C38 7309   6.781   0.064   7.834 -0.2081  0.8803  0.9684
   79SLPC   H8X 7310   6.871   0.125   7.860 -1.2628  2.2454  1.4870
   79SLPC   H8Y 7311   6.813  -0.034   7.794  0.5778  0.9916  1.3103
   79SLPC   C39 7312   6.695   0.057   7.958  0.1451 -0.4119 -0.0557
   79SLPC   H9X 7313   6.751  -0.003   8.032 -0.3636  1.2632  1.7280
   79SLPC   H9Y 7314   6.600   0.004   7.933 -0.5181  1.2614 -1.1605
   79SLPC  C310 7315   6.674   0.195   8.012 -0.0940 -0.2724  0.5485
   79SLPC  H10X 7316   6.624   0.257   7.934 -1.5332 -0.0144  1.6508
   79SLPC  H10Y 7317   6.773   0.245   8.017 -1.3024  2.2551  0.2236
   79SLPC  C311 7318   6.584   0.191   8.137  0.3186 -0.2074 -0.2389
   79SLPC  H11X 7319   6.507   0.115   8.111  2.0801 -2.3708  0.7537
   79SLPC  H11Y 7320   6.541   0.292   8.149 -2.7796 -1.4806 -0.1887
   79SLPC  C312 7321   6.665   0.159   8.261  0.4562 -1.3811 -0.3913
   79SLPC  H12X 7322   6.740   0.240   8.254 -1.4983  0.3177 -2.4063
   79SLPC  H12Y 7323   6.721   0.064   8.247  1.1472 -0.9834 -0.3529
   79SLPC  C313 7324   6.586   0.171   8.394  0.4573  0.4996  0.2295
   79SLPC  H13X 7325   6.521   0.081   8.399 -0.2991  1.0455  0.3910
   79SLPC  H13Y 7326   6.527   0.265   8.383 -0.4626 -0.0691  0.2767
   79SLPC  C314 7327   6.672   0.171   8.511 -0.3539  0.3694 -0.2422
   79SLPC  H14X 7328   6.744   0.254   8.496  0.4849 -0.5908 -1.7736
   79SLPC  H14Y 7329   6.723   0.073   8.526 -0.3457  0.6725  1.8426
   79SLPC  C315 7330   6.596   0.205   8.648 -0.1262  0.1415  0.1205
   79SLPC  H15X 7331   6.532   0.119   8.678  0.6784  0.3222  2.4717
   79SLPC  H15Y 7332   6.538   0.300   8.645 -1.0767 -0.4108  0.5127
   79SLPC  C316 7333   6.702   0.211   8.760  0.3474 -0.0895 -0.2361
   79SLPC  H16X 7334   6.780   0.288   8.740 -0.2080  0.4555 -0.3043
   79SLPC  H16Y 7335   6.752   0.111   8.762  0.4541 -0.0158  1.2958
   79SLPC  C317 7336   6.638   0.231   8.898  0.4934  0.0728  0.1878
   79SLPC  H17X 7337   6.720   0.226   8.972  0.5314 -0.8058  0.0904
   79SLPC  H17Y 7338   6.587   0.133   8.913 -0.1614  0.8431  3.3842
   79SLPC  C318 7339   6.551   0.344   8.918  0.7043 -0.7597 -0.0323
   79SLPC  H18X 7340   6.447   0.348   8.879  1.1543 -0.4743 -1.2173
   79SLPC  H18Y 7341   6.605   0.435   8.885 -0.4032 -0.0820  0.0085
   79SLPC  H18Z 7342   6.533   0.366   9.026  1.4210 -0.5069  0.0312
   80SLPC     N 7343   2.443   4.212   6.282 -0.0146 -0.5215 -0.4323
   80SLPC   C13 7344   2.592   4.190   6.300 -0.0228 -0.2370  0.0684
   80SLPC  H13A 7345   2.637   4.251   6.223 -0.6597  1.7431  1.2107
   80SLPC  H13B 7346   2.621   4.232   6.396 -0.8203 -0.8378  0.5742
   80SLPC  H13C 7347   2.633   4.091   6.295  1.4279  0.3721 -0.5090
   80SLPC   C14 7348   2.354   4.142   6.387  0.0679  0.0479  0.4251
   80SLPC  H14A 7349   2.376   4.037   6.403 -1.1387  0.3737  4.9257
   80SLPC  H14B 7350   2.369   4.191   6.482 -1.7539 -0.1190  0.8157
   80SLPC  H14C 7351   2.254   4.148   6.347  0.2175 -0.5589 -0.0460
   80SLPC   C15 7352   2.408   4.158   6.138 -0.2071  0.3485 -0.2429
   80SLPC  H15A 7353   2.473   4.200   6.063  1.1191  0.7263  1.0936
   80SLPC  H15B 7354   2.442   4.055   6.138  2.6745  1.2651 -1.0176
   80SLPC  H15C 7355   2.303   4.171   6.115  0.0926 -0.6849 -2.2688
   80SLPC   C12 7356   2.420   4.367   6.294  0.0277  0.1521 -0.4697
   80SLPC  H12A 7357   2.315   4.389   6.300  0.2614  0.6221  2.5937
   80SLPC  H12B 7358   2.457   4.410   6.202  2.3877  0.6250  0.6512
   80SLPC   C11 7359   2.483   4.436   6.409 -0.4565 -0.1848 -0.3962
   80SLPC  H11A 7360   2.455   4.366   6.491  1.9250 -0.5685  0.1169
   80SLPC  H11B 7361   2.435   4.534   6.427  1.3034  0.7046 -0.4719
   80SLPC     P 7362   2.697   4.569   6.350  0.2772  0.0552 -0.1452
   80SLPC   O13 7363   2.840   4.543   6.353  0.0717  0.6402  0.1314
   80SLPC   O14 7364   2.638   4.598   6.220  0.5618 -0.2643 -0.6194
   80SLPC   O12 7365   2.627   4.445   6.408 -0.0271 -0.3427 -0.0672
   80SLPC   O11 7366   2.659   4.690   6.449  0.0625  0.1575  0.5773
   80SLPC    C1 7367   2.728   4.707   6.576 -0.3854  0.3605  0.1272
   80SLPC    HA 7368   2.787   4.625   6.622 -1.1424 -0.3785 -0.2102
   80SLPC    HB 7369   2.797   4.794   6.574  0.8645 -0.5323  2.6273
   80SLPC    C2 7370   2.629   4.740   6.694 -0.5070 -0.1924  0.4349
   80SLPC    HS 7371   2.541   4.674   6.677 -1.1903  0.6477  0.6134
   80SLPC   O21 7372   2.587   4.883   6.681 -0.3335 -0.0053 -0.5469
   80SLPC   C21 7373   2.461   4.918   6.721 -0.8783 -0.0988 -0.6680
   80SLPC   O22 7374   2.383   4.838   6.759  0.1920  0.4876 -0.4052
   80SLPC   C22 7375   2.434   5.070   6.715 -0.1007  0.1126  0.3145
   80SLPC   H2R 7376   2.530   5.123   6.735 -0.1140  0.8186 -1.3998
   80SLPC   H2S 7377   2.395   5.100   6.616 -0.5399 -1.0823  0.1247
   80SLPC    C3 7378   2.687   4.703   6.840 -0.5844  0.2103  0.6345
   80SLPC    HX 7379   2.783   4.758   6.855  0.0460 -0.9748  1.0255
   80SLPC    HY 7380   2.710   4.595   6.832 -2.1469 -0.1361  0.7360
   80SLPC   O31 7381   2.596   4.733   6.945 -0.1792  0.5972 -0.6617
   80SLPC   C31 7382   2.495   4.647   6.959 -0.0202 -0.1688 -0.4701
   80SLPC   O32 7383   2.469   4.556   6.879 -0.6997 -0.1818 -0.0307
   80SLPC   C32 7384   2.412   4.682   7.088 -0.2395 -0.7068 -0.4366
   80SLPC   H2X 7385   2.402   4.792   7.096 -0.9316 -0.8277  0.5426
   80SLPC   H2Y 7386   2.475   4.655   7.176 -1.8546 -0.6874  0.7558
   80SLPC   C23 7387   2.346   5.129   6.834 -0.4811 -0.2480  0.2061
   80SLPC   H3R 7388   2.249   5.074   6.828 -1.6087  1.6277  0.7094
   80SLPC   H3S 7389   2.321   5.234   6.811 -1.6411 -0.3493  0.9495
   80SLPC   C24 7390   2.402   5.120   6.971 -0.6403 -0.5764 -0.1887
   80SLPC   H4R 7391   2.493   5.183   6.978 -0.8896 -0.3657  1.2899
   80SLPC   H4S 7392   2.443   5.018   6.989 -1.2757 -1.3689 -2.9988
   80SLPC   C25 7393   2.316   5.166   7.084  0.2173  0.4299  0.4950
   80SLPC   H5R 7394   2.215   5.119   7.083  0.3659  0.0601 -1.9333
   80SLPC   H5S 7395   2.297   5.272   7.055  3.3700  0.6231 -1.0218
   80SLPC   C26 7396   2.372   5.158   7.230 -0.1707 -0.4054 -1.2014
   80SLPC   H6R 7397   2.300   5.196   7.306  0.9380 -2.2007  0.8152
   80SLPC   H6S 7398   2.464   5.220   7.235 -1.0104  0.8794 -1.4094
   80SLPC   C27 7399   2.398   5.017   7.273  0.0276 -0.0705  0.1294
   80SLPC   H7R 7400   2.485   4.977   7.217 -0.9761  0.1519 -1.6280
   80SLPC   H7S 7401   2.314   4.948   7.249  0.6333 -1.3357  1.5727
   80SLPC   C28 7402   2.426   5.016   7.424  0.0033 -0.1947 -0.4068
   80SLPC   H8R 7403   2.476   5.112   7.452  0.8301 -1.2394  1.7932
   80SLPC   H8S 7404   2.488   4.933   7.463 -0.6529  0.2061  1.5341
   80SLPC   C29 7405   2.291   5.012   7.496 -0.4165  0.9448  0.1359
   80SLPC   H9R 7406   2.204   4.968   7.445 -0.4135 -0.0134  0.9363
   80SLPC  C210 7407   2.265   5.072   7.612  0.8960  0.0428  0.4673
   80SLPC  H10R 7408   2.161   5.059   7.644  0.5803 -2.3979 -1.3916
   80SLPC  C211 7409   2.370   5.137   7.703  0.7117 -0.2303 -0.1938
   80SLPC  H11R 7410   2.407   5.232   7.658 -1.3141  1.4651  1.5933
   80SLPC  H11S 7411   2.462   5.076   7.707  2.1441  1.9883  2.6998
   80SLPC  C212 7412   2.319   5.159   7.843  0.2268 -0.0986  0.1889
   80SLPC  H12R 7413   2.267   5.252   7.870 -2.4592 -2.7637  4.9185
   80SLPC  C213 7414   2.339   5.081   7.954 -0.2844 -0.1403  0.4288
   80SLPC  H13R 7415   2.309   5.120   8.052  0.5603 -0.4057  0.8011
   80SLPC  C214 7416   2.409   4.952   7.968  0.1572  0.1270  0.1523
   80SLPC  H14R 7417   2.478   4.962   8.054 -0.6759  3.2124  0.5195
   80SLPC  H14S 7418   2.470   4.951   7.875 -1.6632 -1.3961 -1.0623
   80SLPC  C215 7419   2.326   4.820   7.980  0.0093 -0.2054 -0.6202
   80SLPC  H15R 7420   2.394   4.738   7.948  0.6068 -0.0546  0.2462
   80SLPC  H15S 7421   2.233   4.832   7.920 -0.3294  1.3466  0.1755
   80SLPC  C216 7422   2.288   4.808   8.132  0.0498  0.7309 -1.3453
   80SLPC  H16R 7423   2.240   4.904   8.160 -1.0511 -0.1690 -0.0503
   80SLPC  H16S 7424   2.389   4.797   8.177 -0.4263  1.0332 -0.1871
   80SLPC  C217 7425   2.192   4.689   8.155  0.1494 -0.3411 -0.6143
   80SLPC  H17R 7426   2.104   4.703   8.087  0.4615  0.2336 -0.9050
   80SLPC  H17S 7427   2.157   4.696   8.260  0.2322 -1.2602 -0.5223
   80SLPC  C218 7428   2.257   4.557   8.138 -0.0028 -0.1636  0.0386
   80SLPC  H18R 7429   2.309   4.552   8.040 -0.7036  1.5924 -0.4244
   80SLPC  H18S 7430   2.191   4.467   8.141  0.2225 -0.3467 -0.3633
   80SLPC  H18T 7431   2.333   4.534   8.216 -0.9410 -0.3198  0.9053
   80SLPC   C33 7432   2.275   4.622   7.106 -0.8240 -0.0424 -0.1649
   80SLPC   H3X 7433   2.276   4.511   7.106 -0.9012 -0.0604  1.6937
   80SLPC   H3Y 7434   2.204   4.653   7.026 -0.2322 -0.7660 -0.9818
   80SLPC   C34 7435   2.212   4.671   7.236  0.3018 -0.4388 -0.0772
   80SLPC   H4X 7436   2.112   4.623   7.231  0.1425 -0.2564  1.2402
   80SLPC   H4Y 7437   2.198   4.781   7.244 -0.2082 -0.4865 -0.2965
   80SLPC   C35 7438   2.283   4.615   7.353 -0.0232 -0.4612 -0.7590
   80SLPC   H5X 7439   2.382   4.666   7.357  0.0507 -0.6397 -0.2527
   80SLPC   H5Y 7440   2.294   4.504   7.349  1.4413 -0.4825  2.4137
   80SLPC   C36 7441   2.200   4.646   7.482 -0.1948 -0.1434 -0.1314
   80SLPC   H6X 7442   2.106   4.587   7.487 -0.9315  0.9892 -0.4221
   80SLPC   H6Y 7443   2.164   4.751   7.475  1.2574  0.3439 -0.5299
   80SLPC   C37 7444   2.262   4.644   7.620 -0.4909 -0.4925  0.7710
   80SLPC   H7X 7445   2.196   4.701   7.688 -0.9569  0.8175 -0.7433
   80SLPC   H7Y 7446   2.361   4.694   7.609 -1.1631  1.1222  2.0101
   80SLPC   C38 7447   2.286   4.505   7.679 -0.2602 -0.6554 -0.0709
   80SLPC   H8X 7448   2.375   4.528   7.740  0.4400 -0.9013 -0.9976
   80SLPC   H8Y 7449   2.310   4.431   7.600  0.1511 -3.6428  2.7491
   80SLPC   C39 7450   2.168   4.448   7.764 -0.0490  0.2569  0.3129
   80SLPC   H9X 7451   2.080   4.441   7.698  1.5001 -0.5577 -1.7213
   80SLPC   H9Y 7452   2.155   4.524   7.844  1.0878  0.2025  0.5581
   80SLPC  C310 7453   2.201   4.317   7.821  0.0008 -0.0442  0.7951
   80SLPC  H10X 7454   2.296   4.331   7.877  0.7423  0.1930 -0.4901
   80SLPC  H10Y 7455   2.215   4.241   7.740 -1.5756  2.8552 -2.3216
   80SLPC  C311 7456   2.085   4.265   7.912 -0.5951  0.0852  0.3879
   80SLPC  H11X 7457   1.993   4.246   7.852  0.8358  0.6649 -2.0371
   80SLPC  H11Y 7458   2.047   4.344   7.981 -0.9562 -0.3687  0.7230
   80SLPC  C312 7459   2.133   4.141   7.987 -0.0122 -0.9484 -0.3568
   80SLPC  H12X 7460   2.199   4.071   7.931 -0.0112 -1.5816  0.4331
   80SLPC  H12Y 7461   2.052   4.067   8.007 -0.0703 -1.2059 -1.5129
   80SLPC  C313 7462   2.205   4.178   8.123  0.2092 -0.0877 -0.1258
   80SLPC  H13X 7463   2.143   4.244   8.188 -0.8349 -1.2987  0.1424
   80SLPC  H13Y 7464   2.307   4.220   8.116  0.9496 -1.9124 -0.5268
   80SLPC  C314 7465   2.220   4.051   8.214  0.3673 -0.0449 -0.5789
   80SLPC  H14X 7466   2.249   3.964   8.151 -0.6557 -1.6656  1.1531
   80SLPC  H14Y 7467   2.123   4.027   8.262 -0.1205  1.4781 -0.7883
   80SLPC  C315 7468   2.321   4.059   8.336 -0.3795 -0.0886  0.6488
   80SLPC  H15X 7469   2.311   3.961   8.386  1.3170 -1.5509 -1.7531
   80SLPC  H15Y 7470   2.282   4.130   8.412 -0.0009 -0.1975  0.9462
   80SLPC  C316 7471   2.471   4.078   8.310  0.1331  0.4527  0.2787
   80SLPC  H16X 7472   2.532   4.042   8.395 -1.7377 -1.4819  0.8499
   80SLPC  H16Y 7473   2.500   4.183   8.287  2.4568 -0.5031 -1.2296
   80SLPC  C317 7474   2.514   3.993   8.188  0.0945  0.0715 -0.6269
   80SLPC  H17X 7475   2.461   4.025   8.096  3.1987  1.3505 -2.0491
   80SLPC  H17Y 7476   2.485   3.887   8.207  3.0349 -0.6402  0.1906
   80SLPC  C318 7477   2.664   4.006   8.160  1.0906 -0.1172  0.5631
   80SLPC  H18X 7478   2.736   3.988   8.243  0.9868 -3.2455  0.0495
   80SLPC  H18Y 7479   2.672   4.110   8.124  1.1605 -0.3149  0.0106
   80SLPC  H18Z 7480   2.702   3.938   8.081  0.7961 -2.6043  2.4843
   81SAPS     N 7481   1.968   6.279  10.987  0.2519 -0.1498 -0.4487
   81SAPS   HN1 7482   1.971   6.353  11.060  0.0988 -0.3407 -0.2471
   81SAPS   HN2 7483   1.897   6.305  10.915  0.0621  0.5115 -0.0329
   81SAPS   HN3 7484   1.948   6.189  11.035  0.9787 -0.8437 -1.4107
   81SAPS   C12 7485   2.106   6.275  10.942 -0.5929 -0.1728  0.7476
   81SAPS  H12A 7486   2.175   6.298  11.022  2.0857  0.5118 -1.6665
   81SAPS   C13 7487   2.159   6.146  10.883 -0.2784 -0.1174 -0.8880
   81SAPS  O13A 7488   2.097   6.037  10.895 -0.7267 -0.0484  0.3748
   81SAPS  O13B 7489   2.281   6.146  10.841 -0.5190 -0.3417 -0.0204
   81SAPS   C11 7490   2.128   6.387  10.838 -0.3588  0.2629 -0.0649
   81SAPS  H11A 7491   2.076   6.351  10.746 -0.9353  2.4212 -0.5917
   81SAPS  H11B 7492   2.238   6.382  10.820 -0.3734  0.8664 -0.3220
   81SAPS     P 7493   2.171   6.605  10.979 -0.5007  0.1281 -0.1577
   81SAPS   O13 7494   2.086   6.688  11.069  0.3054  0.0389 -0.5215
   81SAPS   O14 7495   2.270   6.517  11.044 -0.1121  0.4220 -0.8080
   81SAPS   O12 7496   2.092   6.522  10.876  0.3996 -0.1684 -0.1008
   81SAPS   O11 7497   2.254   6.698  10.886 -0.1911 -0.2457 -1.0135
   81SAPS    C1 7498   2.217   6.764  10.767  0.6087 -0.2603  0.2024
   81SAPS    HA 7499   2.113   6.802  10.773  0.9474  0.6271  0.4791
   81SAPS    HB 7500   2.274   6.858  10.753  1.1954 -0.6884 -0.2598
   81SAPS    C2 7501   2.247   6.671  10.646  0.2324  0.2292 -0.0435
   81SAPS    HS 7502   2.169   6.593  10.633  0.5856  0.2807 -2.8126
   81SAPS   O21 7503   2.382   6.620  10.662 -0.2422 -0.0065 -0.2512
   81SAPS   C21 7504   2.414   6.503  10.610 -0.5623 -0.0286  0.5945
   81SAPS   O22 7505   2.344   6.430  10.542  0.0591  0.8048 -0.0380
   81SAPS   C22 7506   2.558   6.453  10.635 -0.0834 -0.8573 -0.6156
   81SAPS   H2R 7507   2.619   6.539  10.599 -0.8626  0.4600  1.1462
   81SAPS   H2S 7508   2.574   6.435  10.743 -2.2324 -0.6262 -0.2366
   81SAPS    C3 7509   2.248   6.758  10.508 -0.7289 -0.3859 -0.1572
   81SAPS    HX 7510   2.318   6.842  10.529  0.7916 -2.2257  2.3917
   81SAPS    HY 7511   2.147   6.798  10.485 -1.6954 -2.3489  0.5709
   81SAPS   O31 7512   2.296   6.687  10.401 -0.5720 -0.0281  0.6285
   81SAPS   C31 7513   2.206   6.610  10.332  0.1287 -0.9559  0.4323
   81SAPS   O32 7514   2.087   6.613  10.356  0.4282  0.2475 -0.2072
   81SAPS   C32 7515   2.288   6.565  10.217 -0.4529  0.5369 -0.8900
   81SAPS   H2X 7516   2.348   6.484  10.262  0.3898  0.0868 -2.7471
   81SAPS   H2Y 7517   2.373   6.635  10.200 -0.0355 -0.1074 -1.4605
   81SAPS   C23 7518   2.590   6.317  10.566  0.8093 -0.3991  0.6512
   81SAPS   H3R 7519   2.505   6.247  10.577 -0.4186  0.3909 -3.1809
   81SAPS   H3S 7520   2.683   6.272  10.606  1.0032 -0.2340  0.3883
   81SAPS   C24 7521   2.619   6.344  10.410 -0.1217  0.3160 -0.7557
   81SAPS   H4R 7522   2.691   6.429  10.408  0.5186 -0.1469  1.4442
   81SAPS   H4S 7523   2.523   6.375  10.365  0.2195  0.3778 -1.4533
   81SAPS   C25 7524   2.664   6.213  10.354  0.1263  0.2065 -0.3476
   81SAPS   H5R 7525   2.707   6.141  10.425  1.3740  0.2028 -1.0960
   81SAPS   C26 7526   2.677   6.180  10.222 -0.6070  0.2130  0.3050
   81SAPS   H6R 7527   2.715   6.080  10.194 -0.0250  0.9428 -1.5944
   81SAPS   C27 7528   2.642   6.267  10.106  0.3347 -0.6418  0.0509
   81SAPS   H7R 7529   2.687   6.362  10.143 -0.9526  0.2806 -0.6844
   81SAPS   H7S 7530   2.532   6.281  10.098 -0.1066 -1.8486  3.4750
   81SAPS   C28 7531   2.702   6.217   9.972 -0.2212 -0.0564 -0.2183
   81SAPS   H8R 7532   2.801   6.171   9.982 -0.9135 -2.1204 -2.4658
   81SAPS   C29 7533   2.639   6.227   9.852  0.0919  0.4780 -0.6745
   81SAPS   H9R 7534   2.702   6.210   9.763  2.1119 -1.2963  1.0217
   81SAPS  C210 7535   2.502   6.284   9.820  0.1070 -0.3907  0.7929
   81SAPS  H10R 7536   2.464   6.333   9.912 -0.0672 -2.1740  1.6917
   81SAPS  H10S 7537   2.426   6.204   9.809  1.1707 -1.5154  1.4548
   81SAPS  C211 7538   2.512   6.383   9.708 -0.0745  0.0837  0.2544
   81SAPS  H11R 7539   2.533   6.486   9.741  0.7792  0.1122 -0.3602
   81SAPS  C212 7540   2.502   6.359   9.578 -0.7914 -0.4815  0.1215
   81SAPS  H12R 7541   2.521   6.446   9.514 -2.7692  0.3717  0.6684
   81SAPS  C213 7542   2.466   6.222   9.523 -0.5437 -0.1668 -0.4845
   81SAPS  H13R 7543   2.491   6.139   9.592 -1.5441 -0.8371 -0.9080
   81SAPS  H13S 7544   2.538   6.210   9.440 -0.9013  0.0433 -0.8265
   81SAPS  C214 7545   2.329   6.193   9.474 -0.4465  0.1242 -0.3859
   81SAPS  H14R 7546   2.283   6.103   9.517 -0.0539 -0.2325 -0.7156
   81SAPS  C215 7547   2.261   6.246   9.370  0.0582 -0.5623  0.2482
   81SAPS  H15R 7548   2.162   6.200   9.359 -0.2584 -0.6691  3.2425
   81SAPS  C216 7549   2.316   6.352   9.280  0.3334  0.2677  0.1054
   81SAPS  H16R 7550   2.393   6.424   9.315  1.1387 -0.9368  0.8736
   81SAPS  H16S 7551   2.226   6.414   9.262 -0.2339 -0.7476 -0.6105
   81SAPS  C217 7552   2.356   6.305   9.143  0.0419 -0.1297  0.7517
   81SAPS  H17R 7553   2.306   6.207   9.127 -0.6610  0.2751  0.4530
   81SAPS  H17S 7554   2.466   6.292   9.147  0.0752  0.3958  1.6790
   81SAPS  C218 7555   2.322   6.409   9.049  0.2606 -0.3955  0.5542
   81SAPS  H18R 7556   2.352   6.511   9.081  1.5143 -0.2656 -0.9622
   81SAPS  H18S 7557   2.212   6.406   9.035  0.1434 -1.9782  1.6859
   81SAPS  C219 7558   2.379   6.379   8.910  0.2551 -0.8945 -0.2178
   81SAPS  H19R 7559   2.382   6.481   8.864 -1.5105 -0.6664  0.1373
   81SAPS  H19S 7560   2.316   6.314   8.846 -1.5876 -0.6615  1.3224
   81SAPS  C220 7561   2.517   6.319   8.905  0.5837 -0.0379 -0.5321
   81SAPS  H20R 7562   2.553   6.241   8.974 -0.1807 -1.8396 -2.1159
   81SAPS  H20S 7563   2.589   6.400   8.928 -0.4494  1.0451 -1.0260
   81SAPS  H20T 7564   2.537   6.282   8.802 -1.4171 -1.5164 -0.4200
   81SAPS   C33 7565   2.214   6.527  10.092 -0.5959  0.0419 -0.5030
   81SAPS   H3X 7566   2.122   6.466  10.105 -0.4340  0.3910  2.6671
   81SAPS   H3Y 7567   2.282   6.473  10.023  0.5138 -0.7270  1.1671
   81SAPS   C34 7568   2.173   6.652  10.014  0.0489 -0.3212  0.1070
   81SAPS   H4X 7569   2.260   6.707   9.971  0.6301 -0.5501  0.9758
   81SAPS   H4Y 7570   2.117   6.718  10.084 -1.6571 -1.7453  0.1155
   81SAPS   C35 7571   2.076   6.617   9.894  0.1825 -0.4403  0.1380
   81SAPS   H5X 7572   2.060   6.708   9.834 -0.6135  0.7804  2.1310
   81SAPS   H5Y 7573   1.979   6.580   9.935 -0.5722 -0.9022 -2.0087
   81SAPS   C36 7574   2.124   6.508   9.800  0.0635  0.6858 -0.1721
   81SAPS   H6X 7575   2.160   6.417   9.853  0.4388  0.4035 -0.9126
   81SAPS   H6Y 7576   2.212   6.532   9.737  1.3650 -0.2213  1.2689
   81SAPS   C37 7577   1.998   6.450   9.718 -0.7863 -0.2434 -0.2258
   81SAPS   H7X 7578   1.924   6.415   9.792  1.1895  0.2221  2.0064
   81SAPS   H7Y 7579   2.044   6.361   9.670 -0.3042 -1.2596  2.0851
   81SAPS   C38 7580   1.942   6.551   9.619  0.1939 -0.2839  0.6184
   81SAPS   H8X 7581   1.942   6.652   9.665  1.3128 -0.2165  0.4811
   81SAPS   H8Y 7582   1.840   6.518   9.588  0.8491  0.1758 -2.1697
   81SAPS   C39 7583   2.019   6.556   9.477 -0.6722 -0.6003  0.5462
   81SAPS   H9X 7584   2.044   6.451   9.451  0.4259 -0.3795  0.6585
   81SAPS   H9Y 7585   2.115   6.613   9.482 -0.4621 -0.5759 -2.4605
   81SAPS  C310 7586   1.933   6.610   9.365 -0.2768  1.6842  0.0693
   81SAPS  H10X 7587   1.905   6.716   9.379 -1.8279  1.4517 -1.0746
   81SAPS  H10Y 7588   1.841   6.549   9.374  2.0572 -1.6194  2.9980
   81SAPS  C311 7589   1.990   6.568   9.226 -0.6162  0.1458 -0.3316
   81SAPS  H11X 7590   2.004   6.459   9.232 -1.2696  0.0953  0.3579
   81SAPS  H11Y 7591   2.083   6.625   9.205 -0.6168  0.2183 -0.1377
   81SAPS  C312 7592   1.903   6.605   9.104  0.8835  0.6555  0.5979
   81SAPS  H12X 7593   1.798   6.572   9.117  0.7746  0.2629 -1.0630
   81SAPS  H12Y 7594   1.945   6.557   9.013  1.9021  1.6352  0.5528
   81SAPS  C313 7595   1.878   6.751   9.063 -0.2913  0.1278 -0.2101
   81SAPS  H13X 7596   1.976   6.805   9.063 -0.6929  0.8618  0.2856
   81SAPS  H13Y 7597   1.823   6.797   9.148  0.1919  0.0073  0.1672
   81SAPS  C314 7598   1.816   6.790   8.928 -0.0675  1.0861  0.4805
   81SAPS  H14X 7599   1.899   6.788   8.854 -1.9707 -1.1471 -1.6742
   81SAPS  H14Y 7600   1.765   6.888   8.934 -2.0865  0.0517  0.6749
   81SAPS  C315 7601   1.696   6.705   8.881 -0.8342  0.0060 -0.3756
   81SAPS  H15X 7602   1.625   6.699   8.967  1.1404 -0.3633  1.2892
   81SAPS  H15Y 7603   1.726   6.599   8.862 -0.8564 -0.1757  0.5504
   81SAPS  C316 7604   1.626   6.773   8.760 -0.0024 -0.2472 -0.0737
   81SAPS  H16X 7605   1.616   6.883   8.776 -2.1837 -0.2273 -1.3257
   81SAPS  H16Y 7606   1.521   6.737   8.762 -0.9494  2.3558 -0.2023
   81SAPS  C317 7607   1.694   6.743   8.636  0.5855  0.2486  0.2866
   81SAPS  H17X 7608   1.687   6.635   8.611 -2.2732  0.5301 -0.3577
   81SAPS  H17Y 7609   1.800   6.775   8.639  1.0149 -1.0957 -0.4491
   81SAPS  C318 7610   1.622   6.815   8.519 -0.3829  0.0262  0.4316
   81SAPS  H18X 7611   1.658   6.767   8.425 -0.1081 -0.1277  0.6121
   81SAPS  H18Y 7612   1.656   6.920   8.509  2.5221 -0.9075 -0.1436
   81SAPS  H18Z 7613   1.513   6.811   8.538 -0.7716  2.9266 -0.9599
   82SAPS     N 7614   0.625   5.679  11.131  0.3548 -0.1825  0.4084
   82SAPS   HN1 7615   0.646   5.589  11.084  1.9824  1.6297 -2.4866
   82SAPS   HN2 7616   0.591   5.659  11.228 -1.9586 -0.8815 -0.5109
   82SAPS   HN3 7617   0.543   5.721  11.083  1.0619  1.0380  0.2380
   82SAPS   C12 7618   0.739   5.775  11.125  0.1635 -0.7276  0.1604
   82SAPS  H12A 7619   0.727   5.847  11.204  2.0693  0.9263 -0.9834
   82SAPS   C13 7620   0.881   5.710  11.146 -0.2122  0.0144 -0.0598
   82SAPS  O13A 7621   0.897   5.589  11.136 -0.9205  0.1080 -0.3522
   82SAPS  O13B 7622   0.982   5.789  11.137  0.4426  0.1480 -0.8449
   82SAPS   C11 7623   0.736   5.843  10.987  0.2530 -0.1102  0.5940
   82SAPS  H11A 7624   0.744   5.759  10.916 -3.5110 -1.2166  1.3870
   82SAPS  H11B 7625   0.810   5.927  10.989 -0.1715  0.2937 -0.3950
   82SAPS     P 7626   0.589   5.983  10.821  0.4473  0.0736 -0.0153
   82SAPS   O13 7627   0.448   5.975  10.771  0.0425  0.5538 -0.3655
   82SAPS   O14 7628   0.635   6.123  10.838 -0.0302 -0.1822 -0.2925
   82SAPS   O12 7629   0.610   5.910  10.963  0.4466 -0.2928 -0.0109
   82SAPS   O11 7630   0.681   5.906  10.725 -0.3740  0.0107  0.2013
   82SAPS    C1 7631   0.804   5.958  10.669  0.4932  0.2362  0.5717
   82SAPS    HA 7632   0.862   6.014  10.746  2.8905 -2.2043  0.6173
   82SAPS    HB 7633   0.871   5.871  10.653 -1.0520 -0.6895 -1.0899
   82SAPS    C2 7634   0.786   6.034  10.542  0.5092  0.2692  0.7172
   82SAPS    HS 7635   0.741   6.129  10.577 -0.1284  0.3216 -0.2366
   82SAPS   O21 7636   0.701   5.960  10.453 -0.3066 -0.2063 -0.1320
   82SAPS   C21 7637   0.597   6.021  10.403  0.3529  0.4119  0.6095
   82SAPS   O22 7638   0.582   6.139  10.400 -0.0205 -0.5554  0.3853
   82SAPS   C22 7639   0.513   5.912  10.337 -0.0516  0.2664  0.0576
   82SAPS   H2R 7640   0.585   5.840  10.292 -1.1647 -0.1276 -1.1005
   82SAPS   H2S 7641   0.475   5.860  10.428  0.6447 -1.2504 -0.4992
   82SAPS    C3 7642   0.922   6.081  10.480 -0.6269  0.6172 -0.3477
   82SAPS    HX 7643   0.989   5.992  10.471  0.0223  1.3989 -4.7427
   82SAPS    HY 7644   0.972   6.144  10.556 -0.8129 -0.6750  0.8640
   82SAPS   O31 7645   0.909   6.142  10.352  0.6366  0.6480  0.7356
   82SAPS   C31 7646   0.930   6.275  10.347 -1.0714 -0.2071  0.1940
   82SAPS   O32 7647   0.956   6.347  10.440  0.5710  0.0112 -0.3528
   82SAPS   C32 7648   0.919   6.328  10.203 -0.3138 -0.0636  0.2935
   82SAPS   H2X 7649   0.936   6.438  10.204 -0.3578 -0.0564  1.9570
   82SAPS   H2Y 7650   0.813   6.302  10.179 -0.6585  1.5353 -0.0475
   82SAPS   C23 7651   0.394   5.981  10.255 -0.2413  0.5679 -0.3432
   82SAPS   H3R 7652   0.439   6.050  10.180  0.6529 -0.3678 -0.6701
   82SAPS   H3S 7653   0.322   6.034  10.321 -2.7040  0.5514 -2.8942
   82SAPS   C24 7654   0.308   5.873  10.186 -0.5965  0.1682  0.2404
   82SAPS   H4R 7655   0.242   5.926  10.113 -0.3517 -2.9266 -2.3570
   82SAPS   H4S 7656   0.240   5.825  10.260  1.3725 -0.7276  1.5045
   82SAPS   C25 7657   0.394   5.773  10.116 -0.9810 -0.6091 -0.2809
   82SAPS   H5R 7658   0.481   5.723  10.160 -0.4602  1.2850  0.9146
   82SAPS   C26 7659   0.364   5.721   9.996  0.1504  0.8092  0.5898
   82SAPS   H6R 7660   0.429   5.641   9.958  2.8995  3.6119 -0.8586
   82SAPS   C27 7661   0.253   5.763   9.910 -0.1343 -0.4029 -0.3316
   82SAPS   H7R 7662   0.174   5.782   9.986  2.2323 -2.9611  2.9194
   82SAPS   H7S 7663   0.224   5.679   9.843 -0.1003  1.4554 -2.7476
   82SAPS   C28 7664   0.281   5.883   9.833  0.2913  0.6077 -0.2885
   82SAPS   H8R 7665   0.272   5.973   9.895  0.6850 -0.9504  2.1153
   82SAPS   C29 7666   0.299   5.894   9.700  0.5642  0.0262 -0.1802
   82SAPS   H9R 7667   0.309   5.993   9.651  0.2833 -0.3918 -1.0925
   82SAPS  C210 7668   0.305   5.785   9.597 -0.5589  0.2876  0.4941
   82SAPS  H10R 7669   0.343   5.692   9.644  0.0521  0.9431  1.3085
   82SAPS  H10S 7670   0.375   5.810   9.514 -0.4965  0.3734  0.5736
   82SAPS  C211 7671   0.165   5.765   9.537  0.4048  0.4715  0.5683
   82SAPS  H11R 7672   0.082   5.820   9.582 -0.2164 -0.7025  0.8751
   82SAPS  C212 7673   0.150   5.705   9.412 -0.0446 -0.5985 -0.0495
   82SAPS  H12R 7674   0.046   5.692   9.378 -0.3843  1.4677  0.1024
   82SAPS  C213 7675   0.262   5.638   9.331  0.1001  0.6645 -0.1545
   82SAPS  H13R 7676   0.352   5.616   9.392 -0.8156  1.2103  1.4224
   82SAPS  H13S 7677   0.298   5.715   9.259  0.4908  0.4015 -0.2415
   82SAPS  C214 7678   0.202   5.524   9.246 -0.5822 -0.1069 -0.2324
   82SAPS  H14R 7679   0.145   5.452   9.307 -0.5701 -0.9333 -1.2003
   82SAPS  C215 7680   0.204   5.509   9.115 -0.7937 -0.2892  0.0331
   82SAPS  H15R 7681   0.150   5.432   9.058  0.5042 -0.7200 -0.6413
   82SAPS  C216 7682   0.278   5.595   9.015  0.3079 -0.0088  0.0079
   82SAPS  H16R 7683   0.371   5.540   8.990  0.7952  0.1044  1.5074
   82SAPS  H16S 7684   0.319   5.690   9.054  0.3941 -0.2213  0.4423
   82SAPS  C217 7685   0.210   5.633   8.884 -0.0488 -0.6740  0.4276
   82SAPS  H17R 7686   0.105   5.666   8.902 -0.4251 -1.6368  0.0465
   82SAPS  H17S 7687   0.204   5.542   8.822  3.0666 -1.7082  1.5558
   82SAPS  C218 7688   0.289   5.751   8.816 -0.0329  0.4370 -0.0515
   82SAPS  H18R 7689   0.378   5.703   8.770  0.4485 -0.2713  1.5610
   82SAPS  H18S 7690   0.332   5.829   8.884 -0.1172 -0.5092  1.1126
   82SAPS  C219 7691   0.221   5.818   8.701  0.7915  0.1238  0.2265
   82SAPS  H19R 7692   0.203   5.746   8.618 -0.1047  0.7427 -0.1277
   82SAPS  H19S 7693   0.301   5.886   8.664  0.4405  1.2176  1.4368
   82SAPS  C220 7694   0.104   5.903   8.740  0.5006 -0.2893  0.1245
   82SAPS  H20R 7695   0.084   5.973   8.656  1.2644 -0.9563 -0.6305
   82SAPS  H20S 7696   0.134   5.983   8.812  0.6093 -0.0805 -0.1495
   82SAPS  H20T 7697   0.023   5.831   8.763  0.8143 -0.5078  0.5511
   82SAPS   C33 7698   1.018   6.262  10.108  0.3071  0.3645 -0.1094
   82SAPS   H3X 7699   1.003   6.154  10.130  0.2893  0.7204  1.7738
   82SAPS   H3Y 7700   1.126   6.285  10.122  0.2699 -0.0879  1.0676
   82SAPS   C34 7701   0.977   6.301   9.962 -0.5595  0.2699  0.6201
   82SAPS   H4X 7702   0.982   6.411   9.948  2.2356  0.2938  1.3651
   82SAPS   H4Y 7703   0.870   6.277   9.947 -0.4308 -0.4697  0.8300
   82SAPS   C35 7704   1.069   6.230   9.860  0.1099  0.9606  0.7364
   82SAPS   H5X 7705   1.082   6.125   9.891 -0.4226  0.8336  0.5472
   82SAPS   H5Y 7706   1.172   6.270   9.871  0.2493  0.6723  0.4818
   82SAPS   C36 7707   1.026   6.234   9.713 -0.5220 -0.8786 -0.0010
   82SAPS   H6X 7708   0.923   6.197   9.699 -0.7575  0.5127 -2.1623
   82SAPS   H6Y 7709   1.098   6.168   9.661 -0.3948 -2.8196  2.5496
   82SAPS   C37 7710   1.041   6.376   9.659  0.7383 -0.1736  0.0427
   82SAPS   H7X 7711   1.148   6.406   9.660  0.5821  0.3822 -0.0775
   82SAPS   H7Y 7712   0.983   6.447   9.721 -0.3310 -0.0436 -1.1089
   82SAPS   C38 7713   0.990   6.394   9.515  0.7887 -0.0779  0.1185
   82SAPS   H8X 7714   0.879   6.396   9.518  0.7952 -0.8580  1.0931
   82SAPS   H8Y 7715   1.023   6.306   9.456 -2.2799 -0.8675 -0.4937
   82SAPS   C39 7716   1.057   6.516   9.456 -0.1330  0.0036 -0.3999
   82SAPS   H9X 7717   1.163   6.510   9.488 -1.1132  0.0280  3.0802
   82SAPS   H9Y 7718   1.011   6.607   9.502  1.9261  0.4895  0.7807
   82SAPS  C310 7719   1.063   6.526   9.301  0.2554 -0.3386 -0.2117
   82SAPS  H10X 7720   0.960   6.552   9.269  1.2737  0.4066 -3.0843
   82SAPS  H10Y 7721   1.090   6.425   9.263 -1.7539 -1.4513  1.2631
   82SAPS  C311 7722   1.163   6.630   9.251  0.2714  0.6815 -0.2670
   82SAPS  H11X 7723   1.261   6.627   9.303 -0.6696  1.9270  1.6245
   82SAPS  H11Y 7724   1.110   6.726   9.268 -2.1034 -0.4390 -1.1306
   82SAPS  C312 7725   1.178   6.621   9.099  0.1093 -0.1857 -0.1985
   82SAPS  H12X 7726   1.250   6.538   9.083  0.2900 -0.7655  3.1387
   82SAPS  H12Y 7727   1.223   6.719   9.073  0.3651 -0.0094  0.8769
   82SAPS  C313 7728   1.057   6.608   9.005  0.7352  0.0296 -0.5972
   82SAPS  H13X 7729   0.991   6.697   9.017  0.6565 -0.3097  1.6063
   82SAPS  H13Y 7730   0.998   6.521   9.039  2.1037 -0.4763  0.5223
   82SAPS  C314 7731   1.091   6.589   8.858 -0.2074  0.3452  0.5351
   82SAPS  H14X 7732   1.001   6.587   8.794  0.1688 -0.8416  0.0411
   82SAPS  H14Y 7733   1.143   6.494   8.834  0.6618  0.4568  1.8810
   82SAPS  C315 7734   1.170   6.707   8.794 -0.6367 -0.3285  0.1720
   82SAPS  H15X 7735   1.277   6.692   8.820 -0.0643  1.4906 -1.0144
   82SAPS  H15Y 7736   1.137   6.794   8.855  0.8012  0.6262 -0.3937
   82SAPS  C316 7737   1.139   6.723   8.647 -0.0889  0.4880 -0.4275
   82SAPS  H16X 7738   1.031   6.739   8.631 -0.4447  1.2591  2.5853
   82SAPS  H16Y 7739   1.153   6.628   8.590 -6.1715 -0.0537 -1.3664
   82SAPS  C317 7740   1.211   6.831   8.575  0.2283  0.5133 -0.0411
   82SAPS  H17X 7741   1.189   6.823   8.467 -0.4960  1.2327  0.0473
   82SAPS  H17Y 7742   1.319   6.824   8.599  0.8783  1.1601 -2.6520
   82SAPS  C318 7743   1.165   6.973   8.617 -1.0118 -0.4137 -0.8347
   82SAPS  H18X 7744   1.067   6.994   8.569 -1.0006  1.2243 -0.1570
   82SAPS  H18Y 7745   1.239   7.048   8.583 -0.1200 -0.1690  1.5545
   82SAPS  H18Z 7746   1.158   6.984   8.727 -0.1713 -1.7956 -0.6319
   83SAPS     N 7747   2.527   6.732  10.938  0.1859 -0.3208  0.0944
   83SAPS   HN1 7748   2.556   6.632  10.930 -1.1354 -0.7662  0.8196
   83SAPS   HN2 7749   2.428   6.756  10.920  0.3301  0.6562  0.5405
   83SAPS   HN3 7750   2.587   6.779  10.867 -0.7376 -0.0117 -0.4807
   83SAPS   C12 7751   2.537   6.779  11.076  1.0429  0.3512 -1.0730
   83SAPS  H12A 7752   2.470   6.720  11.137  1.0943  0.6645 -0.7132
   83SAPS   C13 7753   2.674   6.770  11.140 -0.5175  0.1811 -0.2991
   83SAPS  O13A 7754   2.771   6.713  11.085  0.6997  0.0781  0.7212
   83SAPS  O13B 7755   2.685   6.819  11.258 -0.1823  0.4636  0.4932
   83SAPS   C11 7756   2.480   6.921  11.071  0.7295  0.5320  0.1897
   83SAPS  H11A 7757   2.516   6.992  10.993 -1.1266  1.6156  0.2966
   83SAPS  H11B 7758   2.507   6.963  11.171 -0.3849 -0.6267  0.9874
   83SAPS     P 7759   2.249   7.026  11.125  0.5449  0.1007  0.4042
   83SAPS   O13 7760   2.103   7.009  11.113  0.1449  0.4937  0.0466
   83SAPS   O14 7761   2.301   7.035  11.262 -0.1757  0.9275  0.0061
   83SAPS   O12 7762   2.334   6.910  11.053  0.0504 -0.4299  0.0933
   83SAPS   O11 7763   2.299   7.151  11.038 -0.9283 -0.5582  0.1785
   83SAPS    C1 7764   2.273   7.135  10.895 -0.4030 -0.0703  0.2124
   83SAPS    HA 7765   2.323   7.045  10.853 -1.4234  0.3743 -2.0354
   83SAPS    HB 7766   2.165   7.113  10.879 -0.8455  1.2809  1.2174
   83SAPS    C2 7767   2.315   7.264  10.816 -0.0133 -0.1534  0.0648
   83SAPS    HS 7768   2.262   7.349  10.864 -2.7475 -2.7133  1.7892
   83SAPS   O21 7769   2.273   7.259  10.677 -0.0987  0.1095 -0.5899
   83SAPS   C21 7770   2.142   7.261  10.649  0.3360  0.2591 -0.4178
   83SAPS   O22 7771   2.053   7.264  10.733  0.3961 -0.1219  0.1805
   83SAPS   C22 7772   2.120   7.246  10.501 -0.1854 -0.7524 -0.6598
   83SAPS   H2R 7773   2.011   7.238  10.483 -0.3641 -3.7515  1.4913
   83SAPS   H2S 7774   2.160   7.341  10.457 -0.8448 -0.4242 -0.5580
   83SAPS    C3 7775   2.469   7.294  10.828  0.0171  0.1838 -0.4094
   83SAPS    HX 7776   2.527   7.207  10.793 -0.0271  0.6246 -1.6278
   83SAPS    HY 7777   2.506   7.299  10.932 -0.8467  1.2575 -0.1427
   83SAPS   O31 7778   2.519   7.400  10.744 -0.7726 -0.3424  0.9041
   83SAPS   C31 7779   2.510   7.527  10.787 -0.3321 -0.2539 -0.1496
   83SAPS   O32 7780   2.445   7.566  10.879 -0.5141 -0.2694 -0.5083
   83SAPS   C32 7781   2.583   7.619  10.687  1.1624 -0.0463 -0.0162
   83SAPS   H2X 7782   2.693   7.604  10.694  1.3666  0.2448 -2.3883
   83SAPS   H2Y 7783   2.547   7.717  10.727 -1.6697 -1.6161  1.4161
   83SAPS   C23 7784   2.198   7.119  10.452  0.3847  0.0256  1.1957
   83SAPS   H3R 7785   2.169   7.025  10.503 -1.9409 -0.1059 -0.2818
   83SAPS   H3S 7786   2.307   7.132  10.467  0.2345  2.3101  0.4248
   83SAPS   C24 7787   2.180   7.098  10.299 -0.8339 -0.4735 -0.0203
   83SAPS   H4R 7788   2.194   7.201  10.258 -0.1788 -0.9366 -0.9740
   83SAPS   H4S 7789   2.074   7.074  10.275 -0.6786  1.2212 -2.5966
   83SAPS   C25 7790   2.270   6.989  10.251 -0.2068  0.3756  0.9033
   83SAPS   H5R 7791   2.286   6.901  10.315  2.4562 -0.0672 -0.3198
   83SAPS   C26 7792   2.324   6.998  10.129  0.1848  0.4489 -0.1785
   83SAPS   H6R 7793   2.385   6.916  10.087  3.3951  1.9545  1.3700
   83SAPS   C27 7794   2.317   7.112  10.034  0.1981 -0.5914  0.3557
   83SAPS   H7R 7795   2.299   7.213  10.077  0.5720 -0.1911 -0.4199
   83SAPS   H7S 7796   2.221   7.102   9.981 -0.4676  3.0008  0.7999
   83SAPS   C28 7797   2.421   7.125   9.925  0.0549 -0.4015  0.1722
   83SAPS   H8R 7798   2.503   7.185   9.966 -2.1618  1.9013  1.3538
   83SAPS   C29 7799   2.426   7.072   9.806  0.4710  0.5470 -0.3304
   83SAPS   H9R 7800   2.509   7.096   9.738  1.3062 -4.2707 -1.1322
   83SAPS  C210 7801   2.319   6.974   9.752 -0.6344  0.2600 -0.1880
   83SAPS  H10R 7802   2.248   7.034   9.691 -1.9642 -0.9912  0.0968
   83SAPS  H10S 7803   2.261   6.932   9.837  1.6443 -4.5111 -0.8441
   83SAPS  C211 7804   2.397   6.871   9.671  0.1865  1.4320 -0.1701
   83SAPS  H11R 7805   2.427   6.785   9.732 -2.9197 -0.4850 -1.2622
   83SAPS  C212 7806   2.421   6.872   9.535  1.1894  0.5447 -0.7604
   83SAPS  H12R 7807   2.488   6.797   9.490  1.9703  1.9856 -2.0758
   83SAPS  C213 7808   2.373   6.973   9.440 -0.0644 -0.1912 -0.2300
   83SAPS  H13R 7809   2.302   7.047   9.481 -0.6848 -0.6039 -0.5530
   83SAPS  H13S 7810   2.311   6.905   9.378 -0.6458  0.8396 -0.7941
   83SAPS  C214 7811   2.490   7.049   9.367  0.8639  0.4428  0.6354
   83SAPS  H14R 7812   2.546   7.122   9.427  0.7809  0.3258  0.8567
   83SAPS  C215 7813   2.504   7.048   9.234  0.0223 -0.1328 -0.5421
   83SAPS  H15R 7814   2.597   7.085   9.188  0.3287  0.2387  0.3640
   83SAPS  C216 7815   2.409   6.974   9.145  0.1528 -0.5440 -0.0764
   83SAPS  H16R 7816   2.427   7.017   9.044  0.5780 -0.4771  0.0239
   83SAPS  H16S 7817   2.303   6.985   9.176  0.7588  0.8968  1.6199
   83SAPS  C217 7818   2.448   6.833   9.120 -0.2648 -0.1645 -0.2227
   83SAPS  H17R 7819   2.435   6.771   9.211 -3.6479 -0.8093 -1.0631
   83SAPS  H17S 7820   2.553   6.818   9.090 -0.7696 -1.3337 -1.4465
   83SAPS  C218 7821   2.365   6.772   9.001  0.0833 -0.5184  0.0020
   83SAPS  H18R 7822   2.266   6.735   9.035 -1.5180  1.8305 -1.9692
   83SAPS  H18S 7823   2.426   6.681   8.982 -0.5963 -1.4534  2.1659
   83SAPS  C219 7824   2.356   6.849   8.873 -0.3113  0.5971 -0.2029
   83SAPS  H19R 7825   2.444   6.917   8.861 -0.3457  0.9975  1.7214
   83SAPS  H19S 7826   2.264   6.908   8.891 -0.6564  0.4066 -1.3139
   83SAPS  C220 7827   2.344   6.767   8.745 -0.4873  0.2315 -0.1917
   83SAPS  H20R 7828   2.244   6.721   8.732  0.0557 -1.6564  1.9996
   83SAPS  H20S 7829   2.418   6.686   8.733  0.2425  0.8051  0.4087
   83SAPS  H20T 7830   2.342   6.841   8.662  0.5046  0.1604 -0.2787
   83SAPS   C33 7831   2.535   7.608  10.538 -0.1997 -0.0786 -0.0203
   83SAPS   H3X 7832   2.513   7.708  10.496 -0.5449  0.0850  0.5354
   83SAPS   H3Y 7833   2.431   7.568  10.534 -0.6040  0.6241  2.3753
   83SAPS   C34 7834   2.636   7.549  10.446 -0.7289  0.4353  0.1325
   83SAPS   H4X 7835   2.650   7.447  10.488 -0.4486 -0.1095 -1.2576
   83SAPS   H4Y 7836   2.732   7.605  10.454  0.8021 -1.8998 -1.2654
   83SAPS   C35 7837   2.591   7.525  10.302  0.3867 -0.2040  0.6151
   83SAPS   H5X 7838   2.539   7.622  10.284 -0.5963 -1.0937 -1.5889
   83SAPS   H5Y 7839   2.514   7.446  10.288 -0.3904  0.4778  0.9931
   83SAPS   C36 7840   2.698   7.503  10.193 -0.0681  0.3221 -0.3356
   83SAPS   H6X 7841   2.772   7.430  10.231 -0.9547 -0.1505  0.4840
   83SAPS   H6Y 7842   2.744   7.603  10.173 -0.6772  0.5740 -0.4935
   83SAPS   C37 7843   2.655   7.440  10.060 -0.0035 -0.0410 -0.2704
   83SAPS   H7X 7844   2.577   7.508  10.019  1.2434  0.4497 -1.8804
   83SAPS   H7Y 7845   2.612   7.338  10.073  0.1947  0.0052  0.7304
   83SAPS   C38 7846   2.773   7.408   9.961 -0.5347  0.2513 -0.4594
   83SAPS   H8X 7847   2.823   7.319  10.005 -1.8202 -0.0117  0.4821
   83SAPS   H8Y 7848   2.844   7.494   9.961 -1.7222  1.2584 -1.6189
   83SAPS   C39 7849   2.737   7.372   9.814 -0.1740  0.3364 -0.3906
   83SAPS   H9X 7850   2.686   7.273   9.816  0.9602 -0.3056 -1.8652
   83SAPS   H9Y 7851   2.839   7.371   9.768 -0.7905  0.3288 -1.7819
   83SAPS  C310 7852   2.659   7.475   9.746  0.0430  0.2426  1.1459
   83SAPS  H10X 7853   2.710   7.574   9.747  1.9894 -0.7224  1.9381
   83SAPS  H10Y 7854   2.556   7.465   9.786  0.4423 -0.2183  2.0800
   83SAPS  C311 7855   2.637   7.437   9.599 -0.5083 -0.2757 -0.1955
   83SAPS  H11X 7856   2.553   7.504   9.569 -1.3920 -1.2529  0.0822
   83SAPS  H11Y 7857   2.603   7.333   9.584 -1.5805  0.1244 -0.6449
   83SAPS  C312 7858   2.754   7.459   9.506  0.8160  0.3492 -0.6818
   83SAPS  H12X 7859   2.838   7.398   9.547  0.1302  1.5515  2.6840
   83SAPS  H12Y 7860   2.787   7.565   9.504 -1.7861  1.2947  2.0895
   83SAPS  C313 7861   2.726   7.414   9.363 -0.0526  0.6693  0.2300
   83SAPS  H13X 7862   2.661   7.474   9.296  0.5531  0.0050 -0.9809
   83SAPS  H13Y 7863   2.686   7.310   9.361  0.6824  0.3863 -0.7869
   83SAPS  C314 7864   2.865   7.401   9.283 -0.5944  0.1253 -0.0794
   83SAPS  H14X 7865   2.943   7.361   9.352  0.6970 -1.6322 -2.4782
   83SAPS  H14Y 7866   2.899   7.499   9.244 -1.2203 -0.5566 -2.4146
   83SAPS  C315 7867   2.846   7.309   9.162 -0.3580  0.6600  0.3809
   83SAPS  H15X 7868   2.808   7.210   9.195 -0.8570  0.6371 -0.2689
   83SAPS  H15Y 7869   2.944   7.301   9.111  0.1585  0.1392  1.4397
   83SAPS  C316 7870   2.745   7.367   9.066  0.2951  0.2886  0.3960
   83SAPS  H16X 7871   2.779   7.468   9.035 -0.6341  0.2984 -0.6242
   83SAPS  H16Y 7872   2.646   7.364   9.117  0.6184 -1.6775  0.9531
   83SAPS  C317 7873   2.718   7.273   8.946  0.2606 -0.1910  0.1155
   83SAPS  H17X 7874   2.716   7.170   8.986  3.2406  0.1701  1.3542
   83SAPS  H17Y 7875   2.793   7.288   8.865  1.9265 -0.6843  1.5368
   83SAPS  C318 7876   2.577   7.299   8.878  0.3880  0.5741  0.3297
   83SAPS  H18X 7877   2.579   7.232   8.789  0.4744  2.4035 -1.0715
   83SAPS  H18Y 7878   2.562   7.406   8.853  1.5841  1.2340  2.3598
   83SAPS  H18Z 7879   2.491   7.275   8.943 -0.1658  0.1459 -0.5534
   84SAPS     N 7880   4.078   6.358  11.517  0.3179 -0.4420 -0.1139
   84SAPS   HN1 7881   4.110   6.280  11.578 -0.1024 -1.2456 -0.9121
   84SAPS   HN2 7882   4.159   6.388  11.459 -1.7894  0.0174 -2.9116
   84SAPS   HN3 7883   4.040   6.437  11.574  0.0110  0.6485 -1.8006
   84SAPS   C12 7884   3.977   6.301  11.429  0.3109  0.5400  0.2729
   84SAPS  H12A 7885   4.024   6.219  11.377  0.3577  0.1108  0.9911
   84SAPS   C13 7886   3.851   6.236  11.493 -0.6241 -0.6075  0.6978
   84SAPS  O13A 7887   3.839   6.225  11.618  0.4783 -0.2352  0.0514
   84SAPS  O13B 7888   3.771   6.186  11.409  0.1508 -0.2434  0.0949
   84SAPS   C11 7889   3.919   6.413  11.325 -0.5662  0.0288  0.6185
   84SAPS  H11A 7890   3.859   6.490  11.377  0.1420  0.8961  0.1720
   84SAPS  H11B 7891   3.843   6.363  11.262  0.3450  0.3592 -0.7807
   84SAPS     P 7892   4.042   6.617  11.210 -0.2557  0.4461  0.6365
   84SAPS   O13 7893   4.040   6.692  11.335  0.6156 -0.1909 -0.8050
   84SAPS   O14 7894   4.162   6.633  11.123  0.4534 -0.2100 -0.2308
   84SAPS   O12 7895   4.026   6.461  11.247  0.3282  0.1123  1.0905
   84SAPS   O11 7896   3.924   6.661  11.120 -0.5878 -0.3254 -0.2440
   84SAPS    C1 7897   3.860   6.562  11.039  0.5599 -0.1070  0.1545
   84SAPS    HA 7898   3.815   6.482  11.102 -2.5496  0.7000 -0.9351
   84SAPS    HB 7899   3.778   6.607  10.979 -0.3566 -1.9624  0.0081
   84SAPS    C2 7900   3.953   6.501  10.927  0.4160 -0.9210 -0.0899
   84SAPS    HS 7901   4.039   6.450  10.975  1.5148  2.3970  1.5984
   84SAPS   O21 7902   3.989   6.595  10.828 -0.2232  0.9001 -0.3541
   84SAPS   C21 7903   4.097   6.557  10.752  0.0702 -0.5659 -0.4518
   84SAPS   O22 7904   4.164   6.455  10.767  0.1691  0.5450 -0.2925
   84SAPS   C22 7905   4.122   6.655  10.636  0.2761 -0.4756  0.6252
   84SAPS   H2R 7906   4.084   6.755  10.665  0.6513  0.5695 -2.2975
   84SAPS   H2S 7907   4.229   6.680  10.617  0.8431 -2.1625  1.4585
   84SAPS    C3 7908   3.862   6.395  10.851  0.2571  0.4448 -0.0479
   84SAPS    HX 7909   3.841   6.321  10.931 -0.6101 -1.0898 -1.6327
   84SAPS    HY 7910   3.912   6.340  10.768  1.3700 -1.4989  1.8545
   84SAPS   O31 7911   3.749   6.465  10.804 -0.3676  1.2146  0.2107
   84SAPS   C31 7912   3.656   6.388  10.735 -0.5490 -0.0456 -0.5488
   84SAPS   O32 7913   3.673   6.263  10.727 -0.7485 -0.1948  0.0285
   84SAPS   C32 7914   3.543   6.478  10.676 -0.4178  0.7315  0.7573
   84SAPS   H2X 7915   3.584   6.566  10.621  1.1174  0.5761  1.6315
   84SAPS   H2Y 7916   3.472   6.516  10.753 -1.2421  0.0407  0.3454
   84SAPS   C23 7917   4.064   6.610  10.496 -0.7280  0.3448  0.5470
   84SAPS   H3R 7918   4.093   6.507  10.465  0.6158  1.1801 -0.9722
   84SAPS   H3S 7919   4.099   6.680  10.418 -4.1714  0.8227 -0.6841
   84SAPS   C24 7920   3.907   6.610  10.506 -0.0138  1.1775 -0.0364
   84SAPS   H4R 7921   3.867   6.690  10.571  0.6350  0.0200  1.8289
   84SAPS   H4S 7922   3.868   6.516  10.551 -0.3752  1.1562 -0.3928
   84SAPS   C25 7923   3.836   6.626  10.371  0.6012 -0.2868  0.1088
   84SAPS   H5R 7924   3.791   6.726  10.357  0.0991 -0.6707 -1.1111
   84SAPS   C26 7925   3.816   6.533  10.278 -0.4800 -0.4077 -0.6081
   84SAPS   H6R 7926   3.761   6.560  10.187 -0.4262  0.5254 -0.3658
   84SAPS   C27 7927   3.867   6.392  10.285 -1.1448  0.3650 -0.4297
   84SAPS   H7R 7928   3.789   6.319  10.255 -0.1312 -0.5539 -0.8299
   84SAPS   H7S 7929   3.894   6.352  10.385  0.0016 -2.7218 -1.9032
   84SAPS   C28 7930   3.993   6.376  10.204 -0.3844 -0.0349 -0.1705
   84SAPS   H8R 7931   4.085   6.366  10.263  0.6194  0.9206 -1.5551
   84SAPS   C29 7932   4.000   6.345  10.073 -0.4372 -0.1867  0.1165
   84SAPS   H9R 7933   4.097   6.341  10.020 -0.6159 -1.3784 -0.1157
   84SAPS  C210 7934   3.886   6.316   9.982  0.1014 -0.6096  0.7131
   84SAPS  H10R 7935   3.875   6.404   9.916 -2.1246  1.1351  3.2978
   84SAPS  H10S 7936   3.788   6.305  10.033 -0.3973 -1.1443 -0.3351
   84SAPS  C211 7937   3.896   6.194   9.892 -0.1861 -0.4468 -0.4203
   84SAPS  H11R 7938   3.856   6.100   9.935  1.2874 -0.7851  0.2492
   84SAPS  C212 7939   3.962   6.179   9.777 -0.0580  0.2672  0.1574
   84SAPS  H12R 7940   3.976   6.079   9.734  0.0605  0.6801 -0.7749
   84SAPS  C213 7941   4.027   6.301   9.711  0.0778  0.1802 -0.5681
   84SAPS  H13R 7942   4.112   6.255   9.657 -0.2635 -0.7001 -0.3532
   84SAPS  H13S 7943   4.057   6.372   9.791  0.4523  0.1881 -0.7164
   84SAPS  C214 7944   3.938   6.367   9.606  0.2010 -0.0699  0.3595
   84SAPS  H14R 7945   3.856   6.430   9.642  0.7506  1.9862 -1.8471
   84SAPS  C215 7946   3.962   6.366   9.474 -0.6291 -0.0143  0.2269
   84SAPS  H15R 7947   3.885   6.410   9.409  0.7858  2.4727  0.1996
   84SAPS  C216 7948   4.080   6.300   9.396 -0.0487 -0.7151  0.1507
   84SAPS  H16R 7949   4.115   6.209   9.450 -0.0253  0.0736  1.4749
   84SAPS  H16S 7950   4.167   6.366   9.374 -3.1193  2.8053 -1.9651
   84SAPS  C217 7951   4.045   6.252   9.260 -0.1091 -0.6712  0.1895
   84SAPS  H17R 7952   3.947   6.198   9.258 -0.6353  0.2509  0.5858
   84SAPS  H17S 7953   4.120   6.178   9.225  1.1916  0.0079  1.4890
   84SAPS  C218 7954   4.035   6.353   9.149  0.0157  0.3965  0.1867
   84SAPS  H18R 7955   4.109   6.430   9.178 -0.7301  0.4456  2.0154
   84SAPS  H18S 7956   3.938   6.406   9.139  0.4115  1.0173 -0.4232
   84SAPS  C219 7957   4.045   6.303   9.001  0.0886 -0.3492 -0.3924
   84SAPS  H19R 7958   4.139   6.243   8.999  0.7942  0.7519 -0.4524
   84SAPS  H19S 7959   4.042   6.400   8.947  2.1526  0.5426  1.0073
   84SAPS  C220 7960   3.936   6.203   8.960  0.4565 -0.0191  0.4669
   84SAPS  H20R 7961   3.934   6.114   9.026  1.5939 -1.8549 -1.8653
   84SAPS  H20S 7962   3.952   6.155   8.861  1.8078 -1.5825  1.4006
   84SAPS  H20T 7963   3.840   6.258   8.956 -0.2462 -1.3113 -1.3980
   84SAPS   C33 7964   3.448   6.395  10.575 -0.6523 -0.2996  0.0805
   84SAPS   H3X 7965   3.367   6.469  10.558 -1.1487 -0.7906  0.3093
   84SAPS   H3Y 7966   3.408   6.297  10.609  0.2821 -1.0287 -0.8858
   84SAPS   C34 7967   3.524   6.372  10.448  0.0065 -0.3523 -0.3881
   84SAPS   H4X 7968   3.588   6.284  10.470  0.1705 -0.0487  0.3603
   84SAPS   H4Y 7969   3.585   6.459  10.415  0.2589 -0.2625  0.3224
   84SAPS   C35 7970   3.422   6.342  10.333  0.3019  0.6893 -0.0561
   84SAPS   H5X 7971   3.348   6.425  10.344 -1.1319 -0.8547  2.4982
   84SAPS   H5Y 7972   3.373   6.243  10.341  0.7165  0.3788 -1.2187
   84SAPS   C36 7973   3.500   6.355  10.199 -0.7709  0.4514 -0.0458
   84SAPS   H6X 7974   3.581   6.279  10.208  0.6753  1.8424 -1.1189
   84SAPS   H6Y 7975   3.539   6.458  10.189 -0.4391  0.2161 -1.2414
   84SAPS   C37 7976   3.418   6.310  10.077  0.1650  0.4076 -0.3558
   84SAPS   H7X 7977   3.348   6.396  10.068  0.1077  0.4477  0.4291
   84SAPS   H7Y 7978   3.353   6.223  10.097 -0.5832  0.0505 -3.9106
   84SAPS   C38 7979   3.504   6.297   9.951  0.0637  0.0631  0.2695
   84SAPS   H8X 7980   3.581   6.218   9.966 -0.4269 -0.3417  0.6650
   84SAPS   H8Y 7981   3.556   6.392   9.927  0.4907 -0.9606 -3.0788
   84SAPS   C39 7982   3.430   6.249   9.823 -0.3130 -0.4248  0.3410
   84SAPS   H9X 7983   3.337   6.302   9.794  1.2655  3.3168  1.8393
   84SAPS   H9Y 7984   3.401   6.142   9.827 -1.7746 -0.0125  1.4059
   84SAPS  C310 7985   3.514   6.292   9.701 -0.3003  0.3063  0.4873
   84SAPS  H10X 7986   3.619   6.259   9.714 -0.1125  0.1252 -1.3705
   84SAPS  H10Y 7987   3.509   6.403   9.705  1.0461  0.3885 -0.0435
   84SAPS  C311 7988   3.468   6.251   9.558  1.0532 -0.1852  1.0573
   84SAPS  H11X 7989   3.358   6.267   9.554  0.8744 -1.8005 -1.7753
   84SAPS  H11Y 7990   3.483   6.141   9.549  0.6264 -0.2176  0.7619
   84SAPS  C312 7991   3.541   6.316   9.440  0.7623  0.4751  0.0101
   84SAPS  H12X 7992   3.649   6.297   9.461  0.3845 -2.5471 -0.4731
   84SAPS  H12Y 7993   3.521   6.425   9.441  1.1574  0.5407  0.8475
   84SAPS  C313 7994   3.497   6.245   9.313 -0.4340  0.6613  0.4647
   84SAPS  H13X 7995   3.424   6.312   9.264 -0.7350 -0.6133 -0.8979
   84SAPS  H13Y 7996   3.437   6.152   9.326  1.1994 -0.5745 -0.5393
   84SAPS  C314 7997   3.625   6.226   9.226  0.4020  0.3483 -0.3548
   84SAPS  H14X 7998   3.690   6.156   9.281 -1.8340 -1.8871 -0.4727
   84SAPS  H14Y 7999   3.679   6.323   9.214  2.7321 -1.1334 -2.4728
   84SAPS  C315 8000   3.600   6.157   9.090 -0.0632 -0.2962  0.0885
   84SAPS  H15X 8001   3.519   6.081   9.097 -0.2156 -0.0004  1.8722
   84SAPS  H15Y 8002   3.696   6.108   9.062 -0.8186 -1.7613 -0.0013
   84SAPS  C316 8003   3.546   6.267   8.995 -0.3839 -0.5574  0.4227
   84SAPS  H16X 8004   3.623   6.347   9.001  0.7693 -1.6182 -0.1192
   84SAPS  H16Y 8005   3.457   6.322   9.034 -0.9247 -0.2205 -1.2604
   84SAPS  C317 8006   3.519   6.214   8.857  0.3775 -0.4997  0.0670
   84SAPS  H17X 8007   3.477   6.288   8.785 -0.4319 -0.5193  0.5092
   84SAPS  H17Y 8008   3.434   6.143   8.869  0.5004 -0.5307  0.7763
   84SAPS  C318 8009   3.629   6.132   8.784  0.3343  0.3530  0.3771
   84SAPS  H18X 8010   3.604   6.130   8.675 -3.4365  0.1420  1.1545
   84SAPS  H18Y 8011   3.630   6.027   8.822  1.2977  0.1249 -0.2737
   84SAPS  H18Z 8012   3.729   6.176   8.800  0.1268  1.3722 -0.9925
   85SAPS     N 8013   1.594   1.275  11.075  0.0277  0.2297 -0.1569
   85SAPS   HN1 8014   1.555   1.260  10.980  2.4909  0.9971 -1.3435
   85SAPS   HN2 8015   1.659   1.354  11.059  0.8905 -0.1446  1.3381
   85SAPS   HN3 8016   1.645   1.191  11.110  0.1829 -0.4700 -2.0311
   85SAPS   C12 8017   1.476   1.285  11.171 -0.1910  0.4095  0.2949
   85SAPS  H12A 8018   1.430   1.188  11.164  0.1286  0.1183  1.9916
   85SAPS   C13 8019   1.524   1.313  11.313  0.0169 -0.0742 -0.9323
   85SAPS  O13A 8020   1.646   1.329  11.345  0.7103 -0.9654  0.9417
   85SAPS  O13B 8021   1.439   1.317  11.402  0.2204  0.6931  0.1060
   85SAPS   C11 8022   1.378   1.397  11.119 -1.1657 -0.2690 -0.3069
   85SAPS  H11A 8023   1.440   1.480  11.081 -0.5438 -0.9940 -0.8948
   85SAPS  H11B 8024   1.314   1.433  11.203  1.2382 -0.0454  1.4841
   85SAPS     P 8025   1.324   1.368  10.866  0.2108 -0.0928  0.1407
   85SAPS   O13 8026   1.457   1.313  10.838  0.6173  0.1687  0.5192
   85SAPS   O14 8027   1.211   1.312  10.786  0.4287 -0.0239  0.1942
   85SAPS   O12 8028   1.293   1.345  11.021  0.2533  0.1807  0.3081
   85SAPS   O11 8029   1.331   1.525  10.871  0.1172 -0.0301  0.3316
   85SAPS    C1 8030   1.214   1.606  10.899 -0.2543 -0.1797 -0.2766
   85SAPS    HA 8031   1.152   1.559  10.978  0.7096 -0.9417  0.0405
   85SAPS    HB 8032   1.259   1.698  10.940  2.5069 -1.5371 -0.1507
   85SAPS    C2 8033   1.136   1.643  10.764 -1.1611 -0.0244 -0.1523
   85SAPS    HS 8034   1.071   1.557  10.736  0.2515 -0.3966 -2.3991
   85SAPS   O21 8035   1.226   1.692  10.665  0.4117  0.0535  0.0399
   85SAPS   C21 8036   1.205   1.641  10.544 -0.2211 -0.0495 -0.2549
   85SAPS   O22 8037   1.108   1.577  10.508 -0.2137 -0.0079  0.8966
   85SAPS   C22 8038   1.325   1.672  10.463  0.1194 -0.6163 -0.6322
   85SAPS   H2R 8039   1.371   1.773  10.477  0.8569 -0.8824 -1.0871
   85SAPS   H2S 8040   1.398   1.598  10.501  0.5607  0.3037  0.3485
   85SAPS    C3 8041   1.036   1.762  10.793  0.2032 -0.1219  0.0410
   85SAPS    HX 8042   1.090   1.859  10.779 -1.3781  0.8525  0.5666
   85SAPS    HY 8043   0.993   1.759  10.896 -0.4293  0.1742 -0.2147
   85SAPS   O31 8044   0.922   1.766  10.701  0.4836  0.1838  0.0475
   85SAPS   C31 8045   0.825   1.695  10.726 -0.0697  0.2303  0.1362
   85SAPS   O32 8046   0.811   1.615  10.821 -0.5417 -0.4439  0.1943
   85SAPS   C32 8047   0.720   1.716  10.615  0.2869  0.2180 -0.2749
   85SAPS   H2X 8048   0.686   1.822  10.617 -1.3103 -0.2486 -1.6897
   85SAPS   H2Y 8049   0.635   1.649  10.639  0.9859 -0.3281  0.6802
   85SAPS   C23 8050   1.300   1.641  10.317 -0.1875  0.1221  0.1367
   85SAPS   H3R 8051   1.225   1.561  10.300 -1.9270  1.4451  1.4778
   85SAPS   H3S 8052   1.393   1.593  10.278  1.2015  1.9961  1.0711
   85SAPS   C24 8053   1.259   1.760  10.225 -0.3969  0.1513  0.1942
   85SAPS   H4R 8054   1.231   1.717  10.126  3.8286  0.1562 -1.1065
   85SAPS   H4S 8055   1.346   1.824  10.197 -0.0516 -1.0218 -1.5259
   85SAPS   C25 8056   1.155   1.844  10.281 -0.1187  0.2902 -0.0904
   85SAPS   H5R 8057   1.139   1.837  10.389 -1.9134 -0.2304 -0.3809
   85SAPS   C26 8058   1.065   1.929  10.215 -0.0917 -0.5020  0.9219
   85SAPS   H6R 8059   1.010   1.993  10.284 -0.7827  0.3870 -0.4286
   85SAPS   C27 8060   1.047   1.955  10.071 -0.4177  0.3409  0.5910
   85SAPS   H7R 8061   1.144   1.936  10.022  0.4593  1.6235  1.8125
   85SAPS   H7S 8062   1.015   2.060  10.056  1.4241  0.7832 -0.3764
   85SAPS   C28 8063   0.945   1.868   9.999 -0.4216  0.0656  0.3926
   85SAPS   H8R 8064   0.906   1.777  10.047 -0.2132  0.1003  0.6291
   85SAPS   C29 8065   0.909   1.878   9.870 -0.3528 -0.7102 -0.4127
   85SAPS   H9R 8066   0.832   1.817   9.820 -1.9602 -0.5685  1.8198
   85SAPS  C210 8067   0.965   1.984   9.777  0.1514  1.2354 -0.5205
   85SAPS  H10R 8068   1.044   2.044   9.826  2.5627 -0.2689 -2.4448
   85SAPS  H10S 8069   0.884   2.060   9.764  0.2886  1.2975 -1.0170
   85SAPS  C211 8070   1.025   1.935   9.649  0.7228  0.0189  0.3212
   85SAPS  H11R 8071   1.125   1.889   9.659  1.0558  0.4667 -0.8608
   85SAPS  C212 8072   0.959   1.928   9.534  0.1054 -0.1894 -0.0956
   85SAPS  H12R 8073   1.015   1.884   9.449  0.3513  2.7946 -1.5257
   85SAPS  C213 8074   0.823   1.967   9.503  0.3626 -0.5630  0.2109
   85SAPS  H13R 8075   0.825   2.031   9.412 -2.3696 -1.3871 -0.5007
   85SAPS  H13S 8076   0.802   2.042   9.583  1.1543 -0.9915  0.8261
   85SAPS  C214 8077   0.720   1.860   9.510  0.1574  0.2995  0.3676
   85SAPS  H14R 8078   0.719   1.807   9.607 -0.8067  1.0712  0.7908
   85SAPS  C215 8079   0.640   1.809   9.414  0.0656 -1.0384  0.2803
   85SAPS  H15R 8080   0.557   1.740   9.430  0.5065 -1.6312  0.0476
   85SAPS  C216 8081   0.631   1.869   9.272 -0.8316  0.2178 -0.3032
   85SAPS  H16R 8082   0.655   1.976   9.254  0.6295 -0.0157  0.2319
   85SAPS  H16S 8083   0.527   1.846   9.241 -0.3258 -2.9147  0.1635
   85SAPS  C217 8084   0.744   1.797   9.191  0.4602 -0.0219 -0.3027
   85SAPS  H17R 8085   0.721   1.689   9.180  0.5334 -0.1577  0.7998
   85SAPS  H17S 8086   0.833   1.783   9.256 -0.4423 -4.4432  0.1028
   85SAPS  C218 8087   0.779   1.869   9.061 -0.3312 -0.3948 -0.2688
   85SAPS  H18R 8088   0.798   1.979   9.064 -1.6951  0.0295 -3.7645
   85SAPS  H18S 8089   0.704   1.846   8.982  1.0364 -2.4141 -1.0070
   85SAPS  C219 8090   0.909   1.810   8.999 -0.6539  0.0212  0.5761
   85SAPS  H19R 8091   0.898   1.704   8.966 -2.1341  0.5776 -0.8197
   85SAPS  H19S 8092   0.991   1.809   9.073  0.5442 -1.7766 -0.7282
   85SAPS  C220 8093   0.954   1.885   8.874 -0.0952  0.3769 -0.5879
   85SAPS  H20R 8094   0.888   1.856   8.789  2.2151 -1.0194 -1.9751
   85SAPS  H20S 8095   1.057   1.849   8.850 -0.6582 -2.1079  0.5617
   85SAPS  H20T 8096   0.951   1.995   8.886 -0.1350  0.3263 -0.1158
   85SAPS   C33 8097   0.764   1.699  10.468  0.0324  0.7404  0.0573
   85SAPS   H3X 8098   0.835   1.614  10.459  1.0310  1.6661 -0.8083
   85SAPS   H3Y 8099   0.817   1.790  10.434  1.0355  0.2651  0.3236
   85SAPS   C34 8100   0.645   1.677  10.380  0.1770 -0.6542 -0.1285
   85SAPS   H4X 8101   0.578   1.766  10.382  0.5772 -0.3247 -1.0079
   85SAPS   H4Y 8102   0.579   1.595  10.414 -0.9133 -0.2802 -1.3237
   85SAPS   C35 8103   0.693   1.645  10.233  0.2126 -0.0839 -0.1898
   85SAPS   H5X 8104   0.772   1.568  10.232 -0.4634 -0.7807 -0.2952
   85SAPS   H5Y 8105   0.723   1.743  10.188  2.0378 -0.7272 -0.4103
   85SAPS   C36 8106   0.571   1.605  10.155  0.2422  0.5491  0.4220
   85SAPS   H6X 8107   0.492   1.682  10.169  0.0684  0.0546  2.2095
   85SAPS   H6Y 8108   0.525   1.511  10.192  2.0732  0.0849  1.5714
   85SAPS   C37 8109   0.615   1.572  10.014  0.1416  0.0722  0.0809
   85SAPS   H7X 8110   0.686   1.487  10.017  0.6301  0.4277 -1.1997
   85SAPS   H7Y 8111   0.671   1.657   9.969  1.4715  0.5444  2.5058
   85SAPS   C38 8112   0.500   1.541   9.920 -0.0123 -0.7357 -0.7306
   85SAPS   H8X 8113   0.424   1.621   9.910 -0.2175 -1.1757 -2.8712
   85SAPS   H8Y 8114   0.443   1.453   9.959 -0.8627  0.2790  0.3397
   85SAPS   C39 8115   0.559   1.505   9.780  0.0867 -0.2721 -0.5400
   85SAPS   H9X 8116   0.634   1.423   9.795 -1.9635 -1.8112  1.5412
   85SAPS   H9Y 8117   0.624   1.583   9.735  1.3855 -0.4278  1.0304
   85SAPS  C310 8118   0.453   1.464   9.676  0.2996  0.6050 -0.4987
   85SAPS  H10X 8119   0.357   1.520   9.686  0.3417  0.5766  0.0879
   85SAPS  H10Y 8120   0.432   1.359   9.707  1.8371  0.3314 -0.3689
   85SAPS  C311 8121   0.517   1.461   9.547 -0.0399 -0.7758  0.4832
   85SAPS  H11X 8122   0.607   1.396   9.541 -0.7417 -1.7169  0.0691
   85SAPS  H11Y 8123   0.543   1.562   9.510 -1.3168 -0.3240  0.8080
   85SAPS  C312 8124   0.429   1.410   9.427  0.3333 -0.0840 -0.0170
   85SAPS  H12X 8125   0.337   1.473   9.429  0.7975  0.5524  1.7285
   85SAPS  H12Y 8126   0.387   1.313   9.461  1.7881 -0.5936  0.3391
   85SAPS  C313 8127   0.491   1.408   9.285  0.3185  0.8840 -0.1007
   85SAPS  H13X 8128   0.583   1.345   9.287  0.2122  0.6834 -1.0952
   85SAPS  H13Y 8129   0.514   1.507   9.240 -0.9764  0.9384 -0.6528
   85SAPS  C314 8130   0.397   1.330   9.186  0.0470 -0.3668  0.1085
   85SAPS  H14X 8131   0.318   1.401   9.156  2.0734  1.1776 -1.7478
   85SAPS  H14Y 8132   0.364   1.235   9.234 -1.1868  1.4201  2.8980
   85SAPS  C315 8133   0.462   1.288   9.057  0.0686  0.5446 -0.3019
   85SAPS  H15X 8134   0.536   1.211   9.088  0.3628  0.3504 -1.4802
   85SAPS  H15Y 8135   0.529   1.367   9.019 -1.4325  1.8323 -0.3064
   85SAPS  C316 8136   0.362   1.233   8.953 -0.0397 -0.1092  0.6168
   85SAPS  H16X 8137   0.267   1.290   8.954 -0.3752 -0.6656  0.5227
   85SAPS  H16Y 8138   0.343   1.126   8.974  0.7376 -0.3060  0.3529
   85SAPS  C317 8139   0.422   1.241   8.802 -0.0996  0.6282  0.8542
   85SAPS  H17X 8140   0.532   1.247   8.812  0.0548 -0.4846 -0.1852
   85SAPS  H17Y 8141   0.382   1.328   8.745  1.1189 -1.1172 -2.7735
   85SAPS  C318 8142   0.386   1.116   8.723  0.2793 -0.1409 -0.1656
   85SAPS  H18X 8143   0.424   1.124   8.619 -2.6488  0.4086 -1.2367
   85SAPS  H18Y 8144   0.277   1.098   8.717  0.1777  1.0388 -2.3572
   85SAPS  H18Z 8145   0.439   1.027   8.763  1.3802  1.0990  1.2108
   86SAPS     N 8146   2.885   2.566  11.033 -0.1162 -0.5910 -0.5445
   86SAPS   HN1 8147   2.853   2.622  10.952 -1.2657 -0.5327 -0.0490
   86SAPS   HN2 8148   2.822   2.585  11.113 -0.1369 -2.2447 -0.1369
   86SAPS   HN3 8149   2.983   2.595  11.052 -0.4201  0.5190 -0.6422
   86SAPS   C12 8150   2.881   2.420  11.007  0.3393 -0.2359 -0.1671
   86SAPS  H12A 8151   2.927   2.370  11.091 -0.1717 -0.6477 -0.1342
   86SAPS   C13 8152   2.735   2.367  11.002 -0.4032  0.1304  0.4774
   86SAPS  O13A 8153   2.638   2.446  10.995  0.7018 -0.1018  0.2100
   86SAPS  O13B 8154   2.723   2.240  11.005  0.1562  0.6072  0.3493
   86SAPS   C11 8155   2.972   2.391  10.879  0.1054 -0.0301 -0.2999
   86SAPS  H11A 8156   2.931   2.448  10.793 -1.4404  2.1485  1.8144
   86SAPS  H11B 8157   2.958   2.284  10.853 -0.7748  0.0998 -0.3604
   86SAPS     P 8158   3.223   2.321  10.836  0.4892 -0.2274 -0.0377
   86SAPS   O13 8159   3.349   2.400  10.831  0.5626  0.5101  0.1526
   86SAPS   O14 8160   3.234   2.200  10.915 -0.1930  0.0897  0.3271
   86SAPS   O12 8161   3.107   2.420  10.897 -0.2887  0.1504 -0.0938
   86SAPS   O11 8162   3.175   2.270  10.694 -0.0788 -0.3468  0.1602
   86SAPS    C1 8163   3.191   2.341  10.573 -0.2994  0.0805  0.2283
   86SAPS    HA 8164   3.128   2.433  10.572 -1.5549 -0.7336  2.1554
   86SAPS    HB 8165   3.295   2.381  10.567  0.0094 -0.4253  1.8318
   86SAPS    C2 8166   3.159   2.243  10.452 -0.4255  0.6048 -0.0450
   86SAPS    HS 8167   3.162   2.301  10.357  0.6408  0.3043 -0.2000
   86SAPS   O21 8168   3.028   2.193  10.466 -0.0140 -0.0134  0.0516
   86SAPS   C21 8169   2.938   2.284  10.468 -0.1683 -0.0372  0.0879
   86SAPS   O22 8170   2.950   2.403  10.449 -0.1149  0.2046  0.1382
   86SAPS   C22 8171   2.801   2.224  10.489  0.0592  0.5528 -0.7602
   86SAPS   H2R 8172   2.800   2.182  10.591  1.8863  2.2559 -0.0034
   86SAPS   H2S 8173   2.729   2.308  10.476 -1.1824 -0.3342  0.3022
   86SAPS    C3 8174   3.267   2.130  10.451 -0.1710 -0.9748  0.6741
   86SAPS    HX 8175   3.257   2.065  10.540  0.1156 -2.2953 -0.2465
   86SAPS    HY 8176   3.362   2.188  10.454 -0.8595  0.1806  0.6864
   86SAPS   O31 8177   3.267   2.051  10.331 -0.5017 -0.7361  0.1660
   86SAPS   C31 8178   3.220   1.930  10.329  0.6884 -1.1487 -1.1608
   86SAPS   O32 8179   3.224   1.850  10.420  0.0430  0.5920  0.2031
   86SAPS   C32 8180   3.170   1.913  10.179  0.9783 -0.1834  0.4059
   86SAPS   H2X 8181   3.151   1.804  10.166 -0.2133  0.0967 -0.2893
   86SAPS   H2Y 8182   3.255   1.945  10.115 -0.8508  1.1176 -1.4261
   86SAPS   C23 8183   2.769   2.118  10.380  0.6830 -0.0661  0.2277
   86SAPS   H3R 8184   2.858   2.053  10.369 -1.0322 -2.3340 -0.4630
   86SAPS   H3S 8185   2.753   2.165  10.281  2.0898 -2.2584 -1.0684
   86SAPS   C24 8186   2.648   2.023  10.396  0.5957  0.2190  0.3279
   86SAPS   H4R 8187   2.654   1.977  10.497  1.1061  1.3408  0.8194
   86SAPS   H4S 8188   2.651   1.931  10.333 -0.6317 -2.1363  3.5254
   86SAPS   C25 8189   2.513   2.092  10.372 -0.0685  0.2541  0.5177
   86SAPS   H5R 8190   2.451   2.107  10.462 -2.0472 -1.1988 -0.5643
   86SAPS   C26 8191   2.456   2.116  10.248 -0.0232 -1.2299 -0.4656
   86SAPS   H6R 8192   2.358   2.166  10.256  1.2809  1.4588 -0.8901
   86SAPS   C27 8193   2.510   2.092  10.110 -0.0841  0.3487  0.3674
   86SAPS   H7R 8194   2.615   2.127  10.117  0.1094 -0.5205  2.1018
   86SAPS   H7S 8195   2.458   2.161  10.039 -0.2821 -1.9611 -1.7807
   86SAPS   C28 8196   2.524   1.953  10.057  0.4872 -0.1513 -0.0917
   86SAPS   H8R 8197   2.549   1.875  10.130  1.6262 -0.8776 -1.2335
   86SAPS   C29 8198   2.535   1.913   9.927 -0.1961 -0.3133 -0.8135
   86SAPS   H9R 8199   2.552   1.806   9.905  0.4288  0.2682 -3.3178
   86SAPS  C210 8200   2.538   1.988   9.793 -0.3300 -0.0519  0.4945
   86SAPS  H10R 8201   2.435   2.028   9.780 -0.5321 -0.2665  1.4070
   86SAPS  H10S 8202   2.542   1.911   9.713  1.9531  0.5995 -0.0405
   86SAPS  C211 8203   2.646   2.089   9.785 -0.0951 -0.0324  0.1727
   86SAPS  H11R 8204   2.682   2.125   9.882  0.1512 -1.3096  0.5654
   86SAPS  C212 8205   2.692   2.147   9.671 -0.3904 -0.8648 -0.5744
   86SAPS  H12R 8206   2.763   2.229   9.690  0.8016 -2.1222  0.5796
   86SAPS  C213 8207   2.657   2.121   9.527  0.4099 -0.3808 -0.1523
   86SAPS  H13R 8208   2.558   2.155   9.490  0.9004 -1.7053 -2.8288
   86SAPS  H13S 8209   2.668   2.012   9.510  0.7045 -0.2239 -1.0251
   86SAPS  C214 8210   2.773   2.177   9.446  0.1243 -0.0418 -0.3320
   86SAPS  H14R 8211   2.869   2.141   9.485 -0.1449  1.4760  1.8450
   86SAPS  C215 8212   2.768   2.245   9.326  0.0816 -1.0340  0.1948
   86SAPS  H15R 8213   2.853   2.304   9.288 -0.5619  0.4476  1.0132
   86SAPS  C216 8214   2.646   2.277   9.244 -0.6357 -0.0962 -0.9219
   86SAPS  H16R 8215   2.637   2.387   9.235  1.0379  0.1688  0.3868
   86SAPS  H16S 8216   2.551   2.238   9.288  0.2282  2.1747  3.1302
   86SAPS  C217 8217   2.662   2.210   9.107  0.0282 -0.1043  0.3788
   86SAPS  H17R 8218   2.696   2.105   9.117  1.3177 -0.0367 -2.8040
   86SAPS  H17S 8219   2.742   2.263   9.050  2.3211 -2.3831  1.4017
   86SAPS  C218 8220   2.531   2.223   9.019 -0.1751  0.0680 -0.1587
   86SAPS  H18R 8221   2.495   2.327   9.006 -1.7748 -0.4705 -0.0597
   86SAPS  H18S 8222   2.451   2.179   9.082 -0.5988 -2.3093 -2.2746
   86SAPS  C219 8223   2.539   2.153   8.881  0.2055  0.1608  0.6289
   86SAPS  H19R 8224   2.634   2.097   8.868  0.3164  0.3534  0.6072
   86SAPS  H19S 8225   2.534   2.237   8.808  0.8987 -0.8728 -0.6157
   86SAPS  C220 8226   2.425   2.058   8.845 -0.4797  0.6093  0.8944
   86SAPS  H20R 8227   2.437   2.027   8.739  3.8234  0.8290  1.2611
   86SAPS  H20S 8228   2.329   2.114   8.852 -1.5934 -1.0307 -0.6758
   86SAPS  H20T 8229   2.421   1.966   8.906  0.4999  0.1353  0.2403
   86SAPS   C33 8230   3.049   1.992  10.138 -1.3411 -0.0046 -0.6884
   86SAPS   H3X 8231   3.058   2.103  10.142 -0.4493 -0.0600 -0.9342
   86SAPS   H3Y 8232   2.960   1.960  10.195 -1.0637 -1.0548 -0.8381
   86SAPS   C34 8233   3.011   1.962   9.993  0.0146  0.4925  0.0591
   86SAPS   H4X 8234   2.923   2.025   9.969  0.2325  0.9201  0.3864
   86SAPS   H4Y 8235   2.989   1.854   9.979  0.6722  0.0434  2.2787
   86SAPS   C35 8236   3.115   1.985   9.883  0.0424  0.1870  0.5800
   86SAPS   H5X 8237   3.199   1.913   9.889 -0.2131 -0.1581  0.0166
   86SAPS   H5Y 8238   3.154   2.088   9.904 -0.7273  0.7535 -0.7202
   86SAPS   C36 8239   3.044   1.988   9.747 -0.2365  0.1313 -0.9509
   86SAPS   H6X 8240   2.963   2.064   9.746 -1.3539 -1.0414 -0.3515
   86SAPS   H6Y 8241   2.990   1.893   9.729  0.5061 -0.6328  0.7821
   86SAPS   C37 8242   3.142   2.021   9.631  0.3170 -0.3510  0.4426
   86SAPS   H7X 8243   3.068   2.014   9.549  0.6200 -0.8801  0.2111
   86SAPS   H7Y 8244   3.216   1.938   9.630 -0.7029 -1.2910 -1.8857
   86SAPS   C38 8245   3.196   2.161   9.636  0.1529 -0.6094 -0.2578
   86SAPS   H8X 8246   3.237   2.180   9.738  0.1289 -0.9693 -0.1822
   86SAPS   H8Y 8247   3.118   2.238   9.615 -0.7269 -0.4650  3.1786
   86SAPS   C39 8248   3.310   2.174   9.531 -0.2659  0.4135  0.6580
   86SAPS   H9X 8249   3.392   2.117   9.579 -0.5519  0.1038  0.7784
   86SAPS   H9Y 8250   3.339   2.281   9.523  3.0693 -0.3800  1.2168
   86SAPS  C310 8251   3.293   2.105   9.389 -0.1078  0.4990 -0.9781
   86SAPS  H10X 8252   3.205   2.144   9.333 -1.5106  0.3388  1.0723
   86SAPS  H10Y 8253   3.278   1.996   9.395  2.1831  0.1016 -2.1351
   86SAPS  C311 8254   3.421   2.127   9.307 -0.6710  0.1108  0.0895
   86SAPS  H11X 8255   3.515   2.108   9.362  0.9518  1.6079 -2.0943
   86SAPS  H11Y 8256   3.431   2.237   9.295  2.0106 -0.0596  0.5198
   86SAPS  C312 8257   3.416   2.055   9.174  0.2828  0.5393 -0.4849
   86SAPS  H12X 8258   3.490   2.105   9.107  2.3978  0.5433  1.7971
   86SAPS  H12Y 8259   3.311   2.067   9.139  1.1970  2.1055 -2.8678
   86SAPS  C313 8260   3.445   1.904   9.182  0.8594  0.0741 -0.3281
   86SAPS  H13X 8261   3.383   1.861   9.264  2.1849 -0.1878  0.5677
   86SAPS  H13Y 8262   3.551   1.898   9.215  0.9965  0.4939 -0.7055
   86SAPS  C314 8263   3.432   1.827   9.048  0.3686  0.2585  0.3319
   86SAPS  H14X 8264   3.322   1.818   9.036  0.2632 -0.6650  1.8107
   86SAPS  H14Y 8265   3.485   1.729   9.053  1.0493  0.5780 -0.5139
   86SAPS  C315 8266   3.497   1.897   8.930  0.0256 -0.3145 -0.1488
   86SAPS  H15X 8267   3.601   1.914   8.964 -0.9557 -0.0957  2.8938
   86SAPS  H15Y 8268   3.455   2.000   8.929  0.5367 -0.0292  2.7522
   86SAPS  C316 8269   3.506   1.829   8.798 -0.3866 -0.2019 -0.9567
   86SAPS  H16X 8270   3.557   1.731   8.807  1.7536  0.9251 -0.5022
   86SAPS  H16Y 8271   3.566   1.892   8.728 -1.1240 -0.1297 -1.5380
   86SAPS  C317 8272   3.377   1.805   8.727  0.6733 -0.4567 -0.1058
   86SAPS  H17X 8273   3.357   1.901   8.675  0.8182  0.4191  1.4384
   86SAPS  H17Y 8274   3.307   1.775   8.808  1.0870 -1.2668 -0.0454
   86SAPS  C318 8275   3.371   1.697   8.617 -0.3050  0.4824  0.3026
   86SAPS  H18X 8276   3.264   1.687   8.586  0.3716  2.0395 -2.7375
   86SAPS  H18Y 8277   3.415   1.605   8.661  2.3924  1.3764 -0.4512
   86SAPS  H18Z 8278   3.424   1.737   8.528  0.5452 -1.8463 -0.2690
   87SAPS     N 8279   3.246   3.251  10.649 -0.2305 -0.1340  0.0753
   87SAPS   HN1 8280   3.340   3.267  10.606  0.4315 -2.0475  0.7389
   87SAPS   HN2 8281   3.190   3.235  10.563 -3.7471  1.1849  2.0129
   87SAPS   HN3 8282   3.211   3.339  10.692  0.6740  0.0332  0.4904
   87SAPS   C12 8283   3.245   3.137  10.749 -0.1869 -0.4646 -0.5272
   87SAPS  H12A 8284   3.280   3.045  10.704 -0.6770 -0.5215 -0.7885
   87SAPS   C13 8285   3.339   3.158  10.868 -0.1863  0.1507 -0.5653
   87SAPS  O13A 8286   3.379   3.275  10.895 -0.4425  0.1418 -0.0337
   87SAPS  O13B 8287   3.342   3.067  10.953  0.4441  0.0764  0.0715
   87SAPS   C11 8288   3.096   3.119  10.807 -0.7914  0.0152 -0.4024
   87SAPS  H11A 8289   3.063   3.212  10.859  2.8309  1.2996 -0.2446
   87SAPS  H11B 8290   3.101   3.044  10.888 -0.9660  2.0471  1.5298
   87SAPS     P 8291   2.845   3.090  10.726 -0.4771 -0.0195  0.1103
   87SAPS   O13 8292   2.790   2.963  10.774 -0.0397 -0.0875  0.3093
   87SAPS   O14 8293   2.825   3.210  10.804 -0.0513  0.3544 -0.0720
   87SAPS   O12 8294   3.004   3.072  10.706 -0.2751 -0.2590 -0.5745
   87SAPS   O11 8295   2.803   3.121  10.582 -0.0544 -0.1254  0.5368
   87SAPS    C1 8296   2.834   3.029  10.479  0.3397  0.4179  0.1347
   87SAPS    HA 8297   2.865   3.082  10.386 -0.2464  2.5754  1.1443
   87SAPS    HB 8298   2.928   2.975  10.505 -1.2218 -1.3529  2.3620
   87SAPS    C2 8299   2.719   2.949  10.444  0.0273 -0.5001  0.6086
   87SAPS    HS 8300   2.664   2.905  10.530  0.1632 -0.5696  0.6626
   87SAPS   O21 8301   2.765   2.846  10.358  0.3890  0.2249 -0.4699
   87SAPS   C21 8302   2.691   2.733  10.335 -0.4959  0.4921  0.6147
   87SAPS   O22 8303   2.587   2.709  10.390  0.4609  0.3749  0.2603
   87SAPS   C22 8304   2.763   2.641  10.237  0.0322 -0.0641 -0.1934
   87SAPS   H2R 8305   2.777   2.690  10.139 -1.4751 -0.2710 -0.5253
   87SAPS   H2S 8306   2.858   2.604  10.281 -0.5600  1.3101  2.3467
   87SAPS    C3 8307   2.605   3.033  10.373  0.0141 -0.1352 -0.3264
   87SAPS    HX 8308   2.579   3.104  10.454  2.6816 -0.9695  1.3245
   87SAPS    HY 8309   2.517   2.969  10.351  0.2019 -0.0794 -1.2413
   87SAPS   O31 8310   2.647   3.096  10.245 -0.4332  0.2920 -0.1583
   87SAPS   C31 8311   2.645   3.016  10.137  0.5299 -0.3245 -0.5571
   87SAPS   O32 8312   2.595   2.910  10.133  0.4123 -0.2057  0.0482
   87SAPS   C32 8313   2.707   3.088  10.008  0.0590  0.1088 -0.3034
   87SAPS   H2X 8314   2.815   3.066  10.010 -0.4661 -2.6596 -0.9908
   87SAPS   H2Y 8315   2.703   3.198  10.023 -1.0241  0.1836 -1.0825
   87SAPS   C23 8316   2.679   2.511  10.215  1.0875 -0.0620 -0.1233
   87SAPS   H3R 8317   2.580   2.533  10.170  1.1892 -0.7743 -0.7054
   87SAPS   H3S 8318   2.645   2.463  10.309  2.1629 -5.0136 -2.0867
   87SAPS   C24 8319   2.756   2.408  10.129  0.0215  0.3021  0.4162
   87SAPS   H4R 8320   2.683   2.325  10.143  1.8357 -1.8274 -2.2786
   87SAPS   H4S 8321   2.850   2.391  10.185 -0.5481  0.5205  1.4676
   87SAPS   C25 8322   2.771   2.444   9.983 -0.3731 -0.2943 -0.8327
   87SAPS   H5R 8323   2.673   2.458   9.935 -1.3487 -1.4848  0.7680
   87SAPS   C26 8324   2.884   2.445   9.914 -0.3496  0.4005  0.4242
   87SAPS   H6R 8325   2.883   2.477   9.809 -0.2695  1.0137  0.6028
   87SAPS   C27 8326   3.021   2.394   9.969  0.1968  0.5666 -0.5263
   87SAPS   H7R 8327   3.008   2.284   9.968  0.2191  0.5440 -2.7903
   87SAPS   H7S 8328   3.024   2.428  10.075 -1.7519  0.4554 -0.4158
   87SAPS   C28 8329   3.151   2.445   9.909 -0.0271 -0.6034  0.0145
   87SAPS   H8R 8330   3.152   2.516   9.824 -1.9497  1.9357  2.0331
   87SAPS   C29 8331   3.276   2.413   9.960  0.2994  0.2781 -0.1577
   87SAPS   H9R 8332   3.363   2.466   9.917  0.8796  0.4649  1.2078
   87SAPS  C210 8333   3.318   2.316  10.068 -0.3953 -0.5016 -0.0622
   87SAPS  H10R 8334   3.375   2.233  10.020  2.8324  1.5697  0.0639
   87SAPS  H10S 8335   3.231   2.266  10.117  0.7972 -2.6038 -0.0362
   87SAPS  C211 8336   3.407   2.374  10.175 -0.6521  0.2824 -0.5394
   87SAPS  H11R 8337   3.370   2.462  10.230 -0.7378  0.9928 -1.7088
   87SAPS  C212 8338   3.531   2.329  10.206  0.7772 -0.3451 -0.4591
   87SAPS  H12R 8339   3.588   2.386  10.281 -0.0882 -2.0603  1.5197
   87SAPS  C213 8340   3.624   2.227  10.143 -0.2420 -0.0138 -0.5094
   87SAPS  H13R 8341   3.575   2.155  10.074  1.2217 -1.0938 -0.4410
   87SAPS  H13S 8342   3.682   2.162  10.211  0.0467  1.6484  0.8689
   87SAPS  C214 8343   3.737   2.311  10.076  0.2820  1.1800 -0.2863
   87SAPS  H14R 8344   3.787   2.383  10.143  0.0225  0.8632  0.2559
   87SAPS  C215 8345   3.777   2.297   9.952 -0.0067  0.1201  0.0506
   87SAPS  H15R 8346   3.843   2.376   9.915 -1.1563  0.2201 -1.9242
   87SAPS  C216 8347   3.723   2.202   9.855 -0.3095 -0.1018  0.7170
   87SAPS  H16R 8348   3.693   2.115   9.917 -1.2528  1.1887  2.1073
   87SAPS  H16S 8349   3.805   2.174   9.785 -1.6475 -0.8833 -0.5393
   87SAPS  C217 8350   3.609   2.259   9.765 -0.1593 -0.0361 -0.6865
   87SAPS  H17R 8351   3.530   2.301   9.831  0.5011 -1.7235  1.2507
   87SAPS  H17S 8352   3.556   2.178   9.712  1.9592 -2.1914  0.3796
   87SAPS  C218 8353   3.654   2.367   9.663  0.1526  0.2788  0.0917
   87SAPS  H18R 8354   3.723   2.444   9.703 -0.6602  0.8910  0.3293
   87SAPS  H18S 8355   3.561   2.417   9.630  1.1566  0.7163 -2.1319
   87SAPS  C219 8356   3.718   2.303   9.541 -0.2297  0.3000  0.1424
   87SAPS  H19R 8357   3.648   2.222   9.511 -0.9702  0.6983  0.8077
   87SAPS  H19S 8358   3.808   2.243   9.567  0.8796  1.6338 -0.5694
   87SAPS  C220 8359   3.734   2.394   9.423  0.9512  0.6022 -0.5219
   87SAPS  H20R 8360   3.639   2.448   9.400  0.9095  1.6973  2.0809
   87SAPS  H20S 8361   3.762   2.340   9.330  1.6685  0.7202 -0.3747
   87SAPS  H20T 8362   3.788   2.488   9.448  0.4256  0.3987  1.4440
   87SAPS   C33 8363   2.635   3.054   9.874  0.2752  0.5250 -1.1936
   87SAPS   H3X 8364   2.528   3.034   9.895  0.3332  0.2883 -1.1184
   87SAPS   H3Y 8365   2.671   2.955   9.839  2.2270  0.9809 -0.5382
   87SAPS   C34 8366   2.641   3.151   9.763  0.0102 -0.0204  0.0711
   87SAPS   H4X 8367   2.748   3.178   9.752 -0.4614  1.3578 -1.4201
   87SAPS   H4Y 8368   2.577   3.241   9.776  1.9325  0.9554  3.1673
   87SAPS   C35 8369   2.600   3.105   9.616  0.6449 -0.1242 -0.7031
   87SAPS   H5X 8370   2.490   3.098   9.610  0.7693 -1.6435 -1.2827
   87SAPS   H5Y 8371   2.628   3.000   9.596 -2.3115 -1.0821  0.0813
   87SAPS   C36 8372   2.665   3.192   9.504 -0.7523 -0.3346 -0.9188
   87SAPS   H6X 8373   2.774   3.176   9.488 -0.6192 -1.1741  0.7338
   87SAPS   H6Y 8374   2.664   3.297   9.540 -0.3212 -0.2593 -1.1278
   87SAPS   C37 8375   2.596   3.167   9.366  0.0069  0.7095 -0.3414
   87SAPS   H7X 8376   2.614   3.261   9.309  0.5168  1.3151  0.7949
   87SAPS   H7Y 8377   2.487   3.149   9.378  0.0024  1.1129  0.2937
   87SAPS   C38 8378   2.674   3.058   9.279  0.4687 -0.0094  0.4803
   87SAPS   H8X 8379   2.670   2.959   9.328 -1.4697  0.8857  2.1852
   87SAPS   H8Y 8380   2.779   3.093   9.288 -0.2003  1.9466  0.8916
   87SAPS   C39 8381   2.635   3.035   9.138  0.1134 -0.3594 -0.2113
   87SAPS   H9X 8382   2.675   2.936   9.106  0.9177 -0.0762 -0.0829
   87SAPS   H9Y 8383   2.666   3.123   9.078 -1.8123  0.7809  0.4352
   87SAPS  C310 8384   2.483   3.019   9.114 -0.2981  0.9273 -0.4100
   87SAPS  H10X 8385   2.425   3.114   9.112  1.1660  1.8377 -2.9384
   87SAPS  H10Y 8386   2.444   2.960   9.200  1.6938  1.2543  0.7500
   87SAPS  C311 8387   2.440   2.939   8.987  1.0358 -0.0554 -0.2517
   87SAPS  H11X 8388   2.334   2.911   9.003  0.2701  2.2161 -1.0638
   87SAPS  H11Y 8389   2.489   2.840   8.996  0.7384 -0.3356 -1.5422
   87SAPS  C312 8390   2.451   3.009   8.851  0.4484 -0.8636  0.3548
   87SAPS  H12X 8391   2.557   3.029   8.823  0.3095 -1.5747 -0.6959
   87SAPS  H12Y 8392   2.409   3.110   8.873  1.1064 -0.8287  1.4828
   87SAPS  C313 8393   2.382   2.947   8.737  0.2584  0.2349  0.6621
   87SAPS  H13X 8394   2.281   2.923   8.777  1.2869 -1.7932  2.1341
   87SAPS  H13Y 8395   2.435   2.852   8.715  0.5339  0.3888  0.6556
   87SAPS  C314 8396   2.399   3.037   8.616 -0.3475 -0.2019  0.5295
   87SAPS  H14X 8397   2.505   3.033   8.581 -0.1647  1.2726  0.9082
   87SAPS  H14Y 8398   2.376   3.143   8.636 -1.3106 -0.3162  0.0425
   87SAPS  C315 8399   2.294   2.986   8.520  0.0259 -0.2252  0.0422
   87SAPS  H15X 8400   2.197   2.982   8.573 -0.9045  1.1310 -1.5181
   87SAPS  H15Y 8401   2.327   2.882   8.502 -0.4451 -0.6322  1.4435
   87SAPS  C316 8402   2.278   3.067   8.393  0.1241  0.3222  0.2210
   87SAPS  H16X 8403   2.372   3.065   8.334  0.1741  0.8643  0.2786
   87SAPS  H16Y 8404   2.267   3.177   8.410  1.6338  0.6691 -0.9714
   87SAPS  C317 8405   2.167   3.003   8.307  0.7875  0.8074 -0.1351
   87SAPS  H17X 8406   2.062   3.010   8.345  0.4152  1.1573 -1.2089
   87SAPS  H17Y 8407   2.198   2.899   8.285  2.8448  1.4564 -0.3797
   87SAPS  C318 8408   2.157   3.074   8.171  0.1383 -0.9316  0.2620
   87SAPS  H18X 8409   2.085   3.013   8.111  1.6316 -1.0546 -1.4616
   87SAPS  H18Y 8410   2.264   3.072   8.141  0.2296  1.6080  0.2914
   87SAPS  H18Z 8411   2.118   3.178   8.163 -0.6491 -1.2187  0.3211
   88SAPS     N 8412   5.836   1.562  10.590  0.0996  0.7652 -0.0296
   88SAPS   HN1 8413   5.759   1.629  10.570  1.5749  2.4939 -0.0199
   88SAPS   HN2 8414   5.926   1.615  10.593  0.7613 -0.4659  2.9414
   88SAPS   HN3 8415   5.839   1.498  10.508 -1.1576  2.6841 -1.6247
   88SAPS   C12 8416   5.815   1.504  10.727  0.0611  0.2136 -0.4109
   88SAPS  H12A 8417   5.907   1.466  10.768  0.1420 -0.0315 -0.8120
   88SAPS   C13 8418   5.769   1.603  10.838 -0.3309  0.1130  0.4812
   88SAPS  O13A 8419   5.725   1.715  10.807  0.2593 -0.0788  0.4135
   88SAPS  O13B 8420   5.764   1.565  10.955 -0.0597  0.6718  0.3564
   88SAPS   C11 8421   5.719   1.382  10.711  0.5333  0.5117  0.0870
   88SAPS  H11A 8422   5.614   1.417  10.696  0.3184 -0.4846 -0.8158
   88SAPS  H11B 8423   5.721   1.329  10.809  0.1838 -0.2049 -0.2890
   88SAPS     P 8424   5.689   1.153  10.603  0.1078  0.3270 -0.8966
   88SAPS   O13 8425   5.793   1.061  10.649 -0.0766  0.6870 -0.2613
   88SAPS   O14 8426   5.562   1.164  10.676  0.1644 -0.4698 -0.2864
   88SAPS   O12 8427   5.754   1.298  10.603 -0.1151 -0.0917 -0.7626
   88SAPS   O11 8428   5.665   1.139  10.447  0.0406 -0.3529  0.4400
   88SAPS    C1 8429   5.770   1.171  10.355 -0.0146 -0.8399 -0.8213
   88SAPS    HA 8430   5.750   1.273  10.317  0.3704 -0.5655 -0.3023
   88SAPS    HB 8431   5.871   1.174  10.403 -0.3230  1.5469 -0.2322
   88SAPS    C2 8432   5.767   1.074  10.236 -0.3428  0.1684 -0.8475
   88SAPS    HS 8433   5.856   1.093  10.172  1.7219 -1.0495  1.5566
   88SAPS   O21 8434   5.646   1.095  10.165  0.4605  0.4253  0.1952
   88SAPS   C21 8435   5.645   1.055  10.038 -0.9102 -0.0914  0.4991
   88SAPS   O22 8436   5.739   1.019   9.972  0.1335  0.5961  0.1608
   88SAPS   C22 8437   5.504   1.060   9.982 -0.1147  0.1048  0.3496
   88SAPS   H2R 8438   5.444   0.980  10.031  1.0355 -0.2538  1.1800
   88SAPS   H2S 8439   5.461   1.161  10.000 -0.5467 -0.2590  1.4508
   88SAPS    C3 8440   5.787   0.934  10.297  0.2394  0.6683  0.8446
   88SAPS    HX 8441   5.687   0.922  10.343  0.3980 -1.1921  0.7517
   88SAPS    HY 8442   5.864   0.932  10.377 -0.6233  0.3820  1.6663
   88SAPS   O31 8443   5.806   0.828  10.203  0.2173  0.3423  0.3520
   88SAPS   C31 8444   5.930   0.829  10.154 -0.4927 -0.5043  0.1128
   88SAPS   O32 8445   6.025   0.898  10.195  0.8414  0.0432  0.9532
   88SAPS   C32 8446   5.965   0.721  10.048 -0.2084  0.5220 -0.0465
   88SAPS   H2X 8447   5.872   0.661  10.039  0.8670 -1.6045  2.3604
   88SAPS   H2Y 8448   6.051   0.662  10.089 -1.1328  1.1186  2.8705
   88SAPS   C23 8449   5.500   1.030   9.830  0.8485 -0.3663  0.4148
   88SAPS   H3R 8450   5.566   0.947   9.797  1.6454  1.1982 -2.0903
   88SAPS   H3S 8451   5.545   1.122   9.788 -3.0255  0.2007 -2.8127
   88SAPS   C24 8452   5.357   0.999   9.773 -0.4654  0.8193  0.2925
   88SAPS   H4R 8453   5.295   1.089   9.793 -0.3348  1.5090 -2.2498
   88SAPS   H4S 8454   5.323   0.909   9.828 -0.0063  0.8536  0.6375
   88SAPS   C25 8455   5.362   0.974   9.627 -0.0010 -0.3219  0.4528
   88SAPS   H5R 8456   5.460   0.964   9.577 -0.6099 -0.4544 -0.7234
   88SAPS   C26 8457   5.258   0.982   9.547 -0.2248  0.1064 -0.8031
   88SAPS   H6R 8458   5.266   0.970   9.438 -2.1269 -2.7486 -0.6897
   88SAPS   C27 8459   5.112   1.000   9.593 -0.1571 -0.4250  0.0108
   88SAPS   H7R 8460   5.064   1.080   9.533 -0.9600 -0.4351  0.6399
   88SAPS   H7S 8461   5.108   1.023   9.701  1.4559  1.2617 -0.2630
   88SAPS   C28 8462   5.029   0.873   9.561 -0.6541  0.4628  0.0627
   88SAPS   H8R 8463   5.016   0.811   9.651 -1.0803  1.9519  1.0620
   88SAPS   C29 8464   4.983   0.832   9.440  0.1204 -0.1435  0.1199
   88SAPS   H9R 8465   4.931   0.738   9.421  1.3133 -0.7648 -0.1033
   88SAPS  C210 8466   5.005   0.910   9.312  0.4705 -0.0009 -0.1853
   88SAPS  H10R 8467   5.010   0.835   9.231  1.0585  0.5483 -0.6667
   88SAPS  H10S 8468   5.108   0.951   9.310  1.1024 -1.5533  0.5809
   88SAPS  C211 8469   4.922   1.028   9.290  0.7473  0.3571  0.5217
   88SAPS  H11R 8470   4.859   1.055   9.376 -1.1241 -0.0746 -0.6627
   88SAPS  C212 8471   4.914   1.101   9.173 -0.8985  0.0383  0.1362
   88SAPS  H12R 8472   4.835   1.176   9.159 -1.6902 -0.5659  1.2863
   88SAPS  C213 8473   4.999   1.074   9.048  0.3409  0.7194 -0.5182
   88SAPS  H13R 8474   4.931   1.054   8.962  0.7352 -2.0348 -0.2150
   88SAPS  H13S 8475   5.061   0.983   9.059 -1.0385 -0.2619 -0.7047
   88SAPS  C214 8476   5.085   1.196   9.023 -0.5476 -0.6094  0.2140
   88SAPS  H14R 8477   5.145   1.213   9.113  0.5305 -0.4262 -0.5335
   88SAPS  C215 8478   5.074   1.276   8.909  0.2929  0.2967 -0.5627
   88SAPS  H15R 8479   5.112   1.379   8.916  1.6860 -0.1002 -1.8875
   88SAPS  C216 8480   4.985   1.247   8.791 -0.2189 -0.2576  0.5676
   88SAPS  H16R 8481   4.894   1.310   8.795 -0.7798 -0.8860 -1.7564
   88SAPS  H16S 8482   4.967   1.138   8.774  0.4635 -0.0467 -1.5792
   88SAPS  C217 8483   5.044   1.290   8.652 -0.4470 -0.2702  0.6349
   88SAPS  H17R 8484   5.058   1.401   8.647 -2.8934 -0.0228 -2.3305
   88SAPS  H17S 8485   4.964   1.266   8.579 -1.5109  1.2781  1.2667
   88SAPS  C218 8486   5.168   1.217   8.590  0.2156 -0.9154 -0.0531
   88SAPS  H18R 8487   5.148   1.108   8.597 -3.3230 -0.4941 -2.3346
   88SAPS  H18S 8488   5.252   1.240   8.659 -0.2065  0.4708  0.0325
   88SAPS  C219 8489   5.206   1.275   8.454  0.5798  0.5043  0.5058
   88SAPS  H19R 8490   5.210   1.386   8.446 -0.4836  0.5347  0.3761
   88SAPS  H19S 8491   5.122   1.246   8.387  0.0465  2.3615  0.3580
   88SAPS  C220 8492   5.326   1.207   8.399 -0.4298 -0.6146 -0.0607
   88SAPS  H20R 8493   5.349   1.249   8.298 -2.1929  1.0651  0.2101
   88SAPS  H20S 8494   5.300   1.101   8.380  0.5653 -0.8368 -0.2017
   88SAPS  H20T 8495   5.424   1.211   8.451  0.7811  0.7195 -2.3390
   88SAPS   C33 8496   5.987   0.774   9.903  0.0967  0.2473 -0.0257
   88SAPS   H3X 8497   6.064   0.853   9.893 -0.8651  1.3478  1.1394
   88SAPS   H3Y 8498   5.893   0.821   9.868  0.2867 -0.3365 -1.3487
   88SAPS   C34 8499   5.996   0.655   9.810 -0.0325  0.2261  0.2908
   88SAPS   H4X 8500   5.903   0.595   9.817 -1.2092  1.6172 -2.3193
   88SAPS   H4Y 8501   6.079   0.584   9.827  0.3237  0.6802  0.4717
   88SAPS   C35 8502   6.001   0.704   9.664 -0.0658 -0.5626  0.3861
   88SAPS   H5X 8503   6.080   0.781   9.656 -1.0847  0.7724  2.8624
   88SAPS   H5Y 8504   5.906   0.757   9.642  0.2653  0.7746  2.1019
   88SAPS   C36 8505   6.004   0.590   9.558  0.3139  0.3800 -0.1361
   88SAPS   H6X 8506   5.919   0.520   9.569 -0.9462  1.8079 -0.6536
   88SAPS   H6Y 8507   6.095   0.529   9.580  0.8797  1.4428  0.5264
   88SAPS   C37 8508   6.018   0.645   9.416 -0.1303 -0.4386 -0.9369
   88SAPS   H7X 8509   6.121   0.685   9.402 -0.7112  2.0378  1.3739
   88SAPS   H7Y 8510   5.945   0.729   9.420 -1.9251 -2.0600  1.7088
   88SAPS   C38 8511   5.980   0.543   9.303 -0.4850 -0.7736  0.3909
   88SAPS   H8X 8512   5.885   0.494   9.334 -0.9365  1.2959  2.4890
   88SAPS   H8Y 8513   6.061   0.470   9.282  1.3966  2.1687 -3.1616
   88SAPS   C39 8514   5.931   0.610   9.174 -0.2104 -0.8632  0.2240
   88SAPS   H9X 8515   5.997   0.695   9.145 -0.2063 -0.6014  0.9882
   88SAPS   H9Y 8516   5.835   0.660   9.198  0.8971  3.0863 -2.8965
   88SAPS  C310 8517   5.907   0.518   9.054  0.0906 -0.2259 -0.2045
   88SAPS  H10X 8518   5.872   0.424   9.102 -0.0100 -0.0369  0.0967
   88SAPS  H10Y 8519   5.996   0.483   8.997  0.1432  3.0046 -2.2154
   88SAPS  C311 8520   5.797   0.574   8.961 -0.4890 -0.0096  0.7988
   88SAPS  H11X 8521   5.829   0.673   8.922 -0.0123  0.8402  3.2637
   88SAPS  H11Y 8522   5.705   0.596   9.020 -1.3038 -0.0567 -0.4319
   88SAPS  C312 8523   5.769   0.473   8.850 -0.0175 -0.5766 -0.2338
   88SAPS  H12X 8524   5.739   0.380   8.903 -1.9454  2.3692  4.1848
   88SAPS  H12Y 8525   5.864   0.445   8.799  1.0807  0.9265  0.9645
   88SAPS  C313 8526   5.673   0.517   8.735  0.6117  0.1455 -0.1547
   88SAPS  H13X 8527   5.717   0.611   8.696  0.0314  0.6610  0.4132
   88SAPS  H13Y 8528   5.573   0.545   8.776  0.3745  2.6248 -2.3422
   88SAPS  C314 8529   5.652   0.395   8.643 -0.5507  0.3153  0.0180
   88SAPS  H14X 8530   5.607   0.318   8.708 -0.5984  1.5791  1.5069
   88SAPS  H14Y 8531   5.747   0.351   8.604 -1.6271 -2.0699  0.0163
   88SAPS  C315 8532   5.548   0.423   8.532  0.2797 -0.6634 -0.1567
   88SAPS  H15X 8533   5.456   0.471   8.571 -0.2259 -1.4222 -0.4159
   88SAPS  H15Y 8534   5.521   0.332   8.475 -0.9522 -0.2749 -0.2074
   88SAPS  C316 8535   5.604   0.523   8.428 -0.6553 -0.9951 -0.7299
   88SAPS  H16X 8536   5.601   0.624   8.473  0.8232 -1.1769 -0.1660
   88SAPS  H16Y 8537   5.538   0.531   8.339 -0.9112  0.5291 -0.4123
   88SAPS  C317 8538   5.744   0.500   8.384 -0.5770  0.2986 -0.0326
   88SAPS  H17X 8539   5.826   0.507   8.458  0.1666 -0.6698 -0.7620
   88SAPS  H17Y 8540   5.770   0.585   8.317  1.4742 -0.2024  0.1115
   88SAPS  C318 8541   5.763   0.371   8.298  0.6620 -0.5266 -0.0451
   88SAPS  H18X 8542   5.717   0.285   8.351  1.9222  0.0643  2.0643
   88SAPS  H18Y 8543   5.868   0.360   8.265  0.8118 -0.5405  0.4256
   88SAPS  H18Z 8544   5.712   0.382   8.200 -5.3024 -1.9041  2.6797
   89SAPS     N 8545   4.984   2.933  10.607 -0.1888 -0.1476 -0.0720
   89SAPS   HN1 8546   4.881   2.923  10.601 -0.3574 -2.3981  4.0776
   89SAPS   HN2 8547   5.015   2.997  10.532 -2.3986 -1.2256 -1.9502
   89SAPS   HN3 8548   5.033   2.844  10.583 -0.1344 -0.4905  1.2425
   89SAPS   C12 8549   5.010   2.978  10.741  0.3165 -0.1764 -0.1561
   89SAPS  H12A 8550   4.989   3.084  10.749 -0.5410 -0.2962 -0.7034
   89SAPS   C13 8551   4.922   2.939  10.860  0.1781 -0.1469 -0.3842
   89SAPS  O13A 8552   4.815   2.873  10.844 -0.8773 -0.3619 -0.2007
   89SAPS  O13B 8553   4.959   2.982  10.974  0.1304  0.9294 -0.3029
   89SAPS   C11 8554   5.161   2.966  10.768  0.4093 -0.5134  0.3984
   89SAPS  H11A 8555   5.180   2.858  10.787 -1.0889 -0.7533  0.6545
   89SAPS  H11B 8556   5.177   3.029  10.858 -4.2059  1.1311  0.2151
   89SAPS     P 8557   5.391   3.076  10.699  0.3446  0.5215  0.4270
   89SAPS   O13 8558   5.394   3.124  10.838  0.1168  0.7893  0.1821
   89SAPS   O14 8559   5.484   2.966  10.661  0.3129  0.1779 -0.2798
   89SAPS   O12 8560   5.239   3.018  10.665 -0.3692  0.9491  0.1386
   89SAPS   O11 8561   5.409   3.205  10.606 -0.6296  0.4873  0.2869
   89SAPS    C1 8562   5.305   3.239  10.516 -0.2753 -0.6397 -0.5229
   89SAPS    HA 8563   5.261   3.150  10.467 -0.5152 -0.9430  0.2299
   89SAPS    HB 8564   5.219   3.274  10.578 -1.0001  0.7088 -2.2349
   89SAPS    C2 8565   5.344   3.346  10.407 -0.1280 -0.0820  0.0031
   89SAPS    HS 8566   5.258   3.393  10.354  1.2825  1.9243 -0.5488
   89SAPS   O21 8567   5.434   3.296  10.297 -0.3775  0.1437 -0.2170
   89SAPS   C21 8568   5.368   3.246  10.197  0.5558 -1.4682  0.5618
   89SAPS   O22 8569   5.248   3.236  10.197  0.2454 -0.1350  0.3142
   89SAPS   C22 8570   5.460   3.178  10.095 -0.1580  0.3408  0.2954
   89SAPS   H2R 8571   5.557   3.147  10.138 -1.6915 -1.8388  2.2462
   89SAPS   H2S 8572   5.407   3.087  10.061  1.5544  0.2487 -2.2461
   89SAPS    C3 8573   5.428   3.458  10.475  0.3484  0.0203 -0.0456
   89SAPS    HX 8574   5.535   3.428  10.481  0.1312 -0.5369  1.2526
   89SAPS    HY 8575   5.387   3.460  10.578  1.4189  0.5443  0.3754
   89SAPS   O31 8576   5.408   3.589  10.411  0.3990 -0.6695 -0.2543
   89SAPS   C31 8577   5.463   3.696  10.479  0.1205 -0.2919 -0.0595
   89SAPS   O32 8578   5.521   3.676  10.587  0.0555 -0.1859  0.3785
   89SAPS   C32 8579   5.459   3.824  10.396 -0.1428  0.1716 -0.4208
   89SAPS   H2X 8580   5.359   3.842  10.353  0.3192  0.1805 -1.5049
   89SAPS   H2Y 8581   5.525   3.798  10.311 -0.6088 -0.2559 -0.6516
   89SAPS   C23 8582   5.483   3.256   9.963 -0.1983 -0.3699 -0.1610
   89SAPS   H3R 8583   5.544   3.347   9.978 -0.9812  0.4929 -2.0858
   89SAPS   H3S 8584   5.389   3.286   9.912 -0.0868 -1.4693 -1.0301
   89SAPS   C24 8585   5.553   3.151   9.875  0.4196  1.0532 -0.6482
   89SAPS   H4R 8586   5.484   3.065   9.877 -1.5009  2.5706  1.3494
   89SAPS   H4S 8587   5.643   3.108   9.923 -2.0116 -4.4799 -0.6373
   89SAPS   C25 8588   5.588   3.197   9.735 -0.6876  0.3624  0.3506
   89SAPS   H5R 8589   5.684   3.251   9.729 -0.5012  0.0001 -0.0394
   89SAPS   C26 8590   5.522   3.176   9.618 -0.7124 -0.5936 -1.3197
   89SAPS   H6R 8591   5.567   3.221   9.528  0.6692  1.1036  0.1824
   89SAPS   C27 8592   5.399   3.099   9.599 -0.2808  0.0747  0.3691
   89SAPS   H7R 8593   5.337   3.091   9.691  1.2322  0.2859  1.4190
   89SAPS   H7S 8594   5.422   2.995   9.567  1.5260  0.2090  1.2080
   89SAPS   C28 8595   5.319   3.170   9.494  0.1917  0.5638 -0.9520
   89SAPS   H8R 8596   5.257   3.247   9.542  1.1867 -0.3999  1.9376
   89SAPS   C29 8597   5.313   3.151   9.359 -0.5548 -0.2642 -1.1534
   89SAPS   H9R 8598   5.245   3.222   9.310  0.2857  0.1915 -1.6578
   89SAPS  C210 8599   5.386   3.046   9.281 -0.5167  1.0186  0.5432
   89SAPS  H10R 8600   5.318   2.964   9.251  0.1868  1.3027 -1.9919
   89SAPS  H10S 8601   5.451   2.983   9.346 -0.9741  2.2576  2.2364
   89SAPS  C211 8602   5.464   3.116   9.171 -0.1088  0.1519  0.0384
   89SAPS  H11R 8603   5.561   3.159   9.200 -1.2167  1.0493  2.6119
   89SAPS  C212 8604   5.434   3.113   9.038 -0.2844  0.7423  0.0940
   89SAPS  H12R 8605   5.502   3.176   8.978 -0.5462  0.6987 -0.2521
   89SAPS  C213 8606   5.323   3.052   8.960 -0.2489 -1.0227  0.2255
   89SAPS  H13R 8607   5.236   3.018   9.021  1.5614 -1.2698  2.7192
   89SAPS  H13S 8608   5.360   2.953   8.924 -0.5704 -0.3782 -1.9863
   89SAPS  C214 8609   5.262   3.133   8.850  0.0063 -0.3199  0.5721
   89SAPS  H14R 8610   5.221   3.233   8.871  2.4995  1.0446 -0.9035
   89SAPS  C215 8611   5.264   3.096   8.716  0.5672 -0.2173  0.3723
   89SAPS  H15R 8612   5.227   3.167   8.642  0.4838 -0.1519  0.4751
   89SAPS  C216 8613   5.338   2.983   8.655  0.0101  0.3844  0.5869
   89SAPS  H16R 8614   5.416   2.946   8.725 -0.7829  0.4656  1.5410
   89SAPS  H16S 8615   5.387   3.019   8.563  1.6329  0.8684  1.6144
   89SAPS  C217 8616   5.243   2.874   8.598 -1.0213  0.5939 -0.0962
   89SAPS  H17R 8617   5.188   2.837   8.687 -1.0601  1.5451  0.2899
   89SAPS  H17S 8618   5.300   2.794   8.546 -3.3218 -0.5537 -0.8837
   89SAPS  C218 8619   5.144   2.923   8.491  0.0921 -0.1289  0.3817
   89SAPS  H18R 8620   5.194   2.919   8.392  0.1574  0.2649  0.3970
   89SAPS  H18S 8621   5.125   3.031   8.509 -0.1074  0.0783 -1.0324
   89SAPS  C219 8622   5.011   2.836   8.499  0.1038  0.2545  0.6009
   89SAPS  H19R 8623   4.943   2.857   8.414  1.3187  1.9003  0.0219
   89SAPS  H19S 8624   4.958   2.858   8.594 -1.1144  1.3787 -0.3117
   89SAPS  C220 8625   5.035   2.686   8.507 -0.2568 -0.4601 -0.3822
   89SAPS  H20R 8626   4.939   2.633   8.487 -0.3741  0.1351 -1.4008
   89SAPS  H20S 8627   5.075   2.652   8.605 -0.9316  3.9190  1.5138
   89SAPS  H20T 8628   5.096   2.661   8.418 -0.5831 -0.5272 -0.5869
   89SAPS   C33 8629   5.509   3.943  10.478  0.6258  0.2443 -0.0115
   89SAPS   H3X 8630   5.611   3.922  10.517  0.5104 -0.2202  0.0378
   89SAPS   H3Y 8631   5.448   3.979  10.565 -0.8019  0.7716 -1.2045
   89SAPS   C34 8632   5.521   4.072  10.397  0.0085  0.7634  0.2641
   89SAPS   H4X 8633   5.566   4.047  10.298 -0.6631  0.7335 -0.0409
   89SAPS   H4Y 8634   5.589   4.143  10.449 -0.1476  2.4633 -1.7893
   89SAPS   C35 8635   5.380   4.140  10.380 -0.8990  0.0320 -0.1446
   89SAPS   H5X 8636   5.338   4.143  10.482 -1.9377 -4.0596 -0.3977
   89SAPS   H5Y 8637   5.318   4.076  10.313 -0.5675 -0.8103  0.3539
   89SAPS   C36 8638   5.407   4.280  10.316  0.2233 -0.1634 -0.6546
   89SAPS   H6X 8639   5.472   4.348  10.375 -0.6657  0.3631 -0.2782
   89SAPS   H6Y 8640   5.309   4.331  10.306  1.5640  2.3529 -1.3674
   89SAPS   C37 8641   5.459   4.280  10.170 -0.4789  0.2150 -0.5150
   89SAPS   H7X 8642   5.568   4.257  10.176 -0.0667  2.1637 -0.0095
   89SAPS   H7Y 8643   5.439   4.379  10.125  0.7243  0.1014 -1.3401
   89SAPS   C38 8644   5.411   4.175  10.082 -0.0415 -0.0938 -0.4200
   89SAPS   H8X 8645   5.300   4.175  10.074 -0.2707  2.3141  1.9752
   89SAPS   H8Y 8646   5.450   4.081  10.125 -1.6806  0.0769  1.5640
   89SAPS   C39 8647   5.474   4.199   9.941 -0.1125 -0.2093 -0.6150
   89SAPS   H9X 8648   5.582   4.222   9.953 -0.0974 -1.0782  1.0789
   89SAPS   H9Y 8649   5.433   4.290   9.894 -2.7402 -0.9584  0.1502
   89SAPS  C310 8650   5.459   4.083   9.844 -0.3591 -0.5164 -0.1505
   89SAPS  H10X 8651   5.352   4.052   9.852 -0.0698 -0.9425  2.9467
   89SAPS  H10Y 8652   5.499   3.991   9.892  2.0467  1.2266  1.3057
   89SAPS  C311 8653   5.486   4.114   9.697 -0.0878  0.0166  0.1829
   89SAPS  H11X 8654   5.594   4.093   9.681 -0.0999  0.5689 -0.6923
   89SAPS  H11Y 8655   5.456   4.219   9.676  0.9168  0.1008 -0.8856
   89SAPS  C312 8656   5.400   4.029   9.606 -0.2928 -0.3441  0.5192
   89SAPS  H12X 8657   5.296   4.036   9.642 -0.6695 -2.0507 -0.1562
   89SAPS  H12Y 8658   5.432   3.923   9.603 -0.4287 -0.3865  0.5940
   89SAPS  C313 8659   5.406   4.065   9.456 -0.5204  0.0295  0.1068
   89SAPS  H13X 8660   5.513   4.055   9.427 -1.2945 -1.3883 -2.4228
   89SAPS  H13Y 8661   5.378   4.171   9.439 -1.6408 -0.1227  0.9816
   89SAPS  C314 8662   5.305   3.986   9.369 -0.9569 -0.8970  0.1797
   89SAPS  H14X 8663   5.206   3.982   9.419 -0.9844  0.3581  0.2569
   89SAPS  H14Y 8664   5.349   3.885   9.357 -0.7557 -1.0602  2.1165
   89SAPS  C315 8665   5.289   4.060   9.234 -0.1551  0.2110  0.4516
   89SAPS  H15X 8666   5.395   4.055   9.200 -0.5512 -1.8693 -0.5254
   89SAPS  H15Y 8667   5.262   4.163   9.265 -2.7017  0.1158 -1.3566
   89SAPS  C316 8668   5.196   3.984   9.144  0.3716 -0.3140  0.2157
   89SAPS  H16X 8669   5.213   3.875   9.144 -1.9679 -0.6836  0.2122
   89SAPS  H16Y 8670   5.224   4.020   9.042 -0.4636  1.6605  0.6449
   89SAPS  C317 8671   5.042   4.001   9.157 -1.0967  0.2440  0.4033
   89SAPS  H17X 8672   5.008   4.102   9.188 -1.3088 -0.4615  2.5875
   89SAPS  H17Y 8673   5.005   3.941   9.243 -2.7247 -0.0420 -0.4771
   89SAPS  C318 8674   4.977   3.966   9.030  0.8256 -0.1814 -0.2727
   89SAPS  H18X 8675   5.045   3.904   8.968  0.4982  0.2849 -1.1108
   89SAPS  H18Y 8676   4.965   4.063   8.976 -1.2940 -0.8077 -0.9653
   89SAPS  H18Z 8677   4.875   3.928   9.052 -0.0353  2.2196  0.0306
   90SAPS     N 8678   0.051   3.294  10.952 -0.5120  0.3702 -0.4505
   90SAPS   HN1 8679   0.032   3.272  11.052 -0.3403 -0.6058 -0.6343
   90SAPS   HN2 8680  -0.033   3.319  10.897 -1.8035 -1.9947  0.4065
   90SAPS   HN3 8681   0.087   3.208  10.907 -1.6657  0.9283 -2.5184
   90SAPS   C12 8682   0.154   3.397  10.945  0.4957 -0.5612 -0.7327
   90SAPS  H12A 8683   0.106   3.493  10.938 -0.5996 -0.9850  0.7770
   90SAPS   C13 8684   0.241   3.411  11.076 -0.7100  0.2546  0.0656
   90SAPS  O13A 8685   0.236   3.329  11.167  0.2302 -0.3947  0.0158
   90SAPS  O13B 8686   0.302   3.519  11.088  0.1950  0.4873  0.0479
   90SAPS   C11 8687   0.248   3.377  10.815 -0.2852  0.2973 -0.0453
   90SAPS  H11A 8688   0.340   3.439  10.830 -0.6720  0.6422  0.9454
   90SAPS  H11B 8689   0.193   3.412  10.725 -0.2924 -0.6124 -0.3982
   90SAPS     P 8690   0.413   3.172  10.742 -0.2378  0.0682 -0.2478
   90SAPS   O13 8691   0.522   3.266  10.780  0.1213  0.3883  0.3230
   90SAPS   O14 8692   0.421   3.032  10.794 -1.0016  0.9009 -0.0805
   90SAPS   O12 8693   0.282   3.240  10.791  0.4002  0.1234  0.0194
   90SAPS   O11 8694   0.399   3.163  10.585 -0.2950 -0.1984  0.4435
   90SAPS    C1 8695   0.273   3.102  10.545 -0.2793  0.0192 -0.1010
   90SAPS    HA 8696   0.257   2.997  10.577  3.0875  0.1707  2.3529
   90SAPS    HB 8697   0.188   3.161  10.586  0.6314  0.8148  0.6851
   90SAPS    C2 8698   0.234   3.131  10.397  0.4188 -0.1021  0.3170
   90SAPS    HS 8699   0.136   3.082  10.380 -0.0681  0.0118  2.5691
   90SAPS   O21 8700   0.330   3.066  10.316  0.0886  0.1268 -0.4701
   90SAPS   C21 8701   0.342   2.936  10.321  0.6168  0.6093  0.2513
   90SAPS   O22 8702   0.271   2.858  10.383  0.6223  0.0351 -0.0377
   90SAPS   C22 8703   0.443   2.897  10.210  0.8458  0.1021 -0.2675
   90SAPS   H2R 8704   0.398   2.926  10.113  1.4909 -0.2762 -0.6795
   90SAPS   H2S 8705   0.540   2.949  10.221  1.2426 -0.3285 -1.6778
   90SAPS    C3 8706   0.239   3.284  10.370 -0.0313  0.1477  0.3667
   90SAPS    HX 8707   0.327   3.320  10.427  0.3731  0.0842 -0.2050
   90SAPS    HY 8708   0.148   3.333  10.411 -1.9732 -1.0019 -2.3670
   90SAPS   O31 8709   0.238   3.310  10.233  0.1588  0.3436 -0.1523
   90SAPS   C31 8710   0.356   3.332  10.175 -0.8009  0.0894 -0.3530
   90SAPS   O32 8711   0.467   3.328  10.225  0.2961  0.4967  0.2569
   90SAPS   C32 8712   0.331   3.395  10.034  0.3340  0.2535  0.3186
   90SAPS   H2X 8713   0.337   3.504  10.053 -0.3864  0.3189  0.1773
   90SAPS   H2Y 8714   0.235   3.362   9.990 -0.1389  2.2359 -0.1577
   90SAPS   C23 8715   0.487   2.745  10.215  0.5421 -1.2021 -0.0568
   90SAPS   H3R 8716   0.406   2.680  10.177  1.2879 -1.3567 -1.4303
   90SAPS   H3S 8717   0.493   2.729  10.325  1.8601 -1.2508 -0.1258
   90SAPS   C24 8718   0.622   2.707  10.154  0.2501  0.5982 -0.1957
   90SAPS   H4R 8719   0.697   2.779  10.192 -0.2600  1.0567 -0.0588
   90SAPS   H4S 8720   0.607   2.726  10.046  0.7066  0.7771 -0.2280
   90SAPS   C25 8721   0.671   2.567  10.158 -0.3168  0.1864 -0.2230
   90SAPS   H5R 8722   0.603   2.508  10.222  1.6532  1.7918  3.5411
   90SAPS   C26 8723   0.785   2.507  10.109  0.2161  0.3071 -0.2124
   90SAPS   H6R 8724   0.794   2.398  10.114  0.4626  0.2648 -1.6074
   90SAPS   C27 8725   0.891   2.571  10.031 -0.1420  0.1033 -0.7586
   90SAPS   H7R 8726   0.946   2.657  10.074 -1.0614  1.4172 -2.1893
   90SAPS   H7S 8727   0.840   2.622   9.947  2.7266  2.2407 -1.2979
   90SAPS   C28 8728   0.992   2.473   9.980 -0.5460 -0.0699 -0.0733
   90SAPS   H8R 8729   1.071   2.445  10.052 -1.5581 -2.7115  0.0689
   90SAPS   C29 8730   0.996   2.405   9.859 -0.3583 -0.4338  0.3031
   90SAPS   H9R 8731   1.063   2.319   9.846 -0.1384 -0.5669  2.2617
   90SAPS  C210 8732   0.900   2.414   9.749  0.9819 -0.1738  0.0814
   90SAPS  H10R 8733   0.805   2.452   9.790  0.7400 -0.1751 -0.4749
   90SAPS  H10S 8734   0.867   2.317   9.708  0.4949  0.5321 -1.2444
   90SAPS  C211 8735   0.947   2.498   9.632  0.6205  0.2671  0.2286
   90SAPS  H11R 8736   1.014   2.584   9.650  0.3080  1.0637 -2.2488
   90SAPS  C212 8737   0.945   2.470   9.503  0.1061  0.4261  0.5113
   90SAPS  H12R 8738   0.997   2.536   9.431 -2.7322  0.3553 -1.7081
   90SAPS  C213 8739   0.886   2.337   9.451 -0.0847  0.3734  0.1617
   90SAPS  H13R 8740   0.840   2.278   9.533  1.8239 -1.3206  0.0456
   90SAPS  H13S 8741   0.971   2.278   9.410  0.0510  1.5985 -1.3875
   90SAPS  C214 8742   0.790   2.343   9.341 -0.0600 -0.3110 -0.7596
   90SAPS  H14R 8743   0.687   2.321   9.372  0.3235 -1.9102 -0.5932
   90SAPS  C215 8744   0.826   2.354   9.211 -0.0313  0.7395 -0.6650
   90SAPS  H15R 8745   0.737   2.344   9.147 -0.0897 -0.4652 -0.4197
   90SAPS  C216 8746   0.961   2.354   9.148 -0.3484  0.8221  0.5048
   90SAPS  H16R 8747   0.977   2.273   9.075 -0.1892  0.6322  0.7470
   90SAPS  H16S 8748   1.043   2.342   9.222 -1.9911 -0.6361  2.1265
   90SAPS  C217 8749   0.983   2.481   9.056  0.7143 -0.3054 -0.2944
   90SAPS  H17R 8750   0.982   2.583   9.099  1.2929  0.0569 -1.1175
   90SAPS  H17S 8751   0.911   2.482   8.971 -0.9228 -1.3620  1.0544
   90SAPS  C218 8752   1.123   2.472   8.995  0.0183 -0.0411 -0.1525
   90SAPS  H18R 8753   1.162   2.368   8.984  0.4532 -0.2493  2.9153
   90SAPS  H18S 8754   1.201   2.501   9.069  0.0317 -0.6752  0.0880
   90SAPS  C219 8755   1.144   2.563   8.874  0.1689  0.4760  0.1846
   90SAPS  H19R 8756   1.148   2.667   8.913 -1.3151  0.3352  0.7320
   90SAPS  H19S 8757   1.058   2.546   8.805  0.3967 -0.7273  0.1941
   90SAPS  C220 8758   1.273   2.525   8.801 -0.3297  0.1540  0.1271
   90SAPS  H20R 8759   1.364   2.542   8.863  0.0967 -2.7950  0.3456
   90SAPS  H20S 8760   1.295   2.578   8.705 -1.9963 -1.6845 -1.3108
   90SAPS  H20T 8761   1.279   2.417   8.776 -2.2052  0.2806 -1.0132
   90SAPS   C33 8762   0.442   3.350   9.941 -0.2427 -0.5767  0.0212
   90SAPS   H3X 8763   0.444   3.242   9.917  1.5899 -0.5743  0.0994
   90SAPS   H3Y 8764   0.542   3.371   9.984 -0.0358 -1.4614 -0.0351
   90SAPS   C34 8765   0.429   3.429   9.803  0.4162 -0.2674 -0.7004
   90SAPS   H4X 8766   0.516   3.411   9.736 -0.6060 -5.6008 -0.8621
   90SAPS   H4Y 8767   0.410   3.538   9.812 -1.6195 -0.7562  1.4016
   90SAPS   C35 8768   0.319   3.354   9.714  0.0237 -0.3950 -0.0984
   90SAPS   H5X 8769   0.222   3.388   9.755 -1.1678 -0.8019 -2.4996
   90SAPS   H5Y 8770   0.336   3.245   9.726 -0.9941 -0.4375  1.1047
   90SAPS   C36 8771   0.333   3.378   9.567 -0.4767  0.1796  0.0296
   90SAPS   H6X 8772   0.415   3.313   9.530 -1.0597  0.5567 -1.9939
   90SAPS   H6Y 8773   0.356   3.486   9.560  4.5052 -0.7436  0.2845
   90SAPS   C37 8774   0.204   3.346   9.499 -0.5599  0.2450  0.0254
   90SAPS   H7X 8775   0.137   3.434   9.506 -1.4130 -0.4292  0.2984
   90SAPS   H7Y 8776   0.158   3.263   9.556 -0.6238  2.6611  3.6182
   90SAPS   C38 8777   0.215   3.312   9.348 -0.1531  0.1265 -0.3422
   90SAPS   H8X 8778   0.274   3.380   9.283 -0.1688  0.9125  0.4492
   90SAPS   H8Y 8779   0.113   3.293   9.310 -0.7185  0.2644  1.0630
   90SAPS   C39 8780   0.283   3.177   9.329  0.0319 -0.3629 -0.0258
   90SAPS   H9X 8781   0.221   3.109   9.391 -0.4806  0.3931  0.2947
   90SAPS   H9Y 8782   0.381   3.188   9.380 -1.3602  0.8251  2.4863
   90SAPS  C310 8783   0.311   3.124   9.190  0.0681  0.1961 -0.1978
   90SAPS  H10X 8784   0.222   3.135   9.125 -0.8270 -0.7893  0.8357
   90SAPS  H10Y 8785   0.344   3.018   9.197  1.4674  0.4853 -1.9833
   90SAPS  C311 8786   0.424   3.199   9.121 -0.1280 -0.0656  0.3564
   90SAPS  H11X 8787   0.520   3.187   9.177  1.7651  1.8598 -2.3184
   90SAPS  H11Y 8788   0.406   3.309   9.116  1.9937  0.2757 -0.4285
   90SAPS  C312 8789   0.441   3.159   8.969  0.6695  0.6870 -0.4879
   90SAPS  H12X 8790   0.486   3.232   8.898 -0.3283  1.0283 -0.7817
   90SAPS  H12Y 8791   0.343   3.140   8.921  0.6807 -2.3927  0.5475
   90SAPS  C313 8792   0.515   3.029   8.943 -0.5608 -0.5167  0.6760
   90SAPS  H13X 8793   0.435   2.958   8.974 -0.3639 -0.4757  1.2806
   90SAPS  H13Y 8794   0.603   3.023   9.011 -0.0861 -0.0955  0.1053
   90SAPS  C314 8795   0.563   3.007   8.803 -0.0553  1.0792 -0.3872
   90SAPS  H14X 8796   0.652   3.068   8.777 -0.3123  1.1943 -0.9801
   90SAPS  H14Y 8797   0.481   3.020   8.730 -0.9632 -0.1671  0.3897
   90SAPS  C315 8798   0.611   2.862   8.789 -0.0203  0.1202  0.2002
   90SAPS  H15X 8799   0.545   2.802   8.856 -0.4258 -0.0820 -0.3705
   90SAPS  H15Y 8800   0.711   2.845   8.834 -0.7933 -0.8990  1.5546
   90SAPS  C316 8801   0.632   2.813   8.646 -0.1045  0.9523  1.0098
   90SAPS  H16X 8802   0.699   2.890   8.602  0.7412  0.6827  1.8189
   90SAPS  H16Y 8803   0.527   2.819   8.609 -0.0321 -0.8862  0.4818
   90SAPS  C317 8804   0.692   2.676   8.632  0.0393  0.0551  0.6174
   90SAPS  H17X 8805   0.673   2.653   8.525 -2.9475 -0.2270  1.1543
   90SAPS  H17Y 8806   0.641   2.597   8.692  0.5578 -1.9232 -1.4708
   90SAPS  C318 8807   0.843   2.657   8.650  0.1972 -0.2061 -0.3709
   90SAPS  H18X 8808   0.870   2.662   8.757  0.0001 -2.3780 -0.2084
   90SAPS  H18Y 8809   0.896   2.733   8.588 -0.6511  1.7522  1.2136
   90SAPS  H18Z 8810   0.869   2.557   8.611 -0.8255 -0.5538 -0.1768
   91SAPS     N 8811   5.049   1.264   5.651  0.0938  0.5631 -0.0263
   91SAPS   HN1 8812   5.058   1.172   5.603  0.3531 -0.2596  1.5735
   91SAPS   HN2 8813   4.968   1.318   5.614 -1.1373 -2.8605 -2.6552
   91SAPS   HN3 8814   5.142   1.309   5.638  0.1263  0.4128 -0.3258
   91SAPS   C12 8815   5.026   1.227   5.793  0.6981 -0.4910  0.2594
   91SAPS  H12A 8816   5.015   1.314   5.856  0.4129 -0.9478  0.8441
   91SAPS   C13 8817   4.892   1.155   5.814 -0.0302 -0.0982  0.3859
   91SAPS  O13A 8818   4.800   1.169   5.730  0.7497 -0.5521 -0.0524
   91SAPS  O13B 8819   4.859   1.123   5.931 -0.3758  0.1402 -0.0430
   91SAPS   C11 8820   5.146   1.150   5.845 -0.3503 -0.5765  0.1239
   91SAPS  H11A 8821   5.166   1.065   5.777 -0.1796 -2.5441  2.5765
   91SAPS  H11B 8822   5.121   1.110   5.945  0.2300 -0.7343  0.2060
   91SAPS     P 8823   5.391   1.189   5.910  0.3871 -0.0651  0.1135
   91SAPS   O13 8824   5.419   1.064   5.836 -0.6143 -0.0999  0.4536
   91SAPS   O14 8825   5.495   1.299   5.895  0.8372  0.4000 -0.1380
   91SAPS   O12 8826   5.257   1.240   5.855 -0.3361 -0.7029 -0.2831
   91SAPS   O11 8827   5.367   1.152   6.065 -0.5397 -0.5053  0.0218
   91SAPS    C1 8828   5.294   1.249   6.146 -0.2006 -0.2890  1.0461
   91SAPS    HA 8829   5.249   1.329   6.084 -1.4267 -0.7886  1.2661
   91SAPS    HB 8830   5.205   1.200   6.191 -0.9749  0.8717  0.7873
   91SAPS    C2 8831   5.367   1.313   6.267 -0.1125 -0.0913 -0.3063
   91SAPS    HS 8832   5.457   1.365   6.226 -0.1639 -1.4965 -2.2662
   91SAPS   O21 8833   5.398   1.209   6.365  0.5522  0.0986  0.1374
   91SAPS   C21 8834   5.507   1.237   6.431 -0.1695  1.4302 -0.4660
   91SAPS   O22 8835   5.590   1.319   6.413  1.1339 -0.5224 -0.4878
   91SAPS   C22 8836   5.512   1.142   6.555  0.6543  0.0564 -0.3316
   91SAPS   H2R 8837   5.581   1.058   6.532  1.0672  0.4741 -0.6131
   91SAPS   H2S 8838   5.556   1.214   6.628  3.3771  0.4770 -2.3077
   91SAPS    C3 8839   5.267   1.415   6.330  1.5772  0.2908 -0.1423
   91SAPS    HX 8840   5.176   1.356   6.355  1.8255 -0.9509 -2.0260
   91SAPS    HY 8841   5.235   1.484   6.248  0.8994 -0.6413 -0.6745
   91SAPS   O31 8842   5.306   1.474   6.457  0.1811 -0.2114  0.1345
   91SAPS   C31 8843   5.357   1.597   6.455  0.5559  0.4655  0.4339
   91SAPS   O32 8844   5.367   1.661   6.353  0.4680 -0.5436  0.2743
   91SAPS   C32 8845   5.390   1.647   6.600  0.1797  0.1354 -0.3582
   91SAPS   H2X 8846   5.429   1.561   6.659 -0.4432 -0.3312 -0.6156
   91SAPS   H2Y 8847   5.294   1.681   6.644  0.5212  0.0934  0.4305
   91SAPS   C23 8848   5.386   1.077   6.596  0.6272  0.4706  0.2464
   91SAPS   H3R 8849   5.357   0.992   6.531  0.2917  1.7421 -1.3072
   91SAPS   H3S 8850   5.307   1.152   6.576 -0.1851 -0.3814  0.2246
   91SAPS   C24 8851   5.394   1.051   6.747 -0.3249  0.6071 -0.5545
   91SAPS   H4R 8852   5.309   1.000   6.797  0.6400 -0.7141 -0.2256
   91SAPS   H4S 8853   5.403   1.157   6.778  2.3872  0.3357 -0.3127
   91SAPS   C25 8854   5.524   0.974   6.789  0.2610  0.3875  0.3727
   91SAPS   H5R 8855   5.538   0.889   6.721 -0.3405  0.9070 -0.4051
   91SAPS   C26 8856   5.602   0.995   6.897  0.2394  0.1903  1.4006
   91SAPS   H6R 8857   5.694   0.936   6.913  0.3951  0.2916  0.8692
   91SAPS   C27 8858   5.571   1.099   6.997 -0.4387  0.0851 -0.0543
   91SAPS   H7R 8859   5.595   1.053   7.096  1.7460  0.0738 -0.5624
   91SAPS   H7S 8860   5.461   1.103   7.012 -1.1497  1.8165 -4.7793
   91SAPS   C28 8861   5.627   1.234   6.964  0.5821  1.2876 -0.2489
   91SAPS   H8R 8862   5.627   1.262   6.858 -1.2893 -0.3606 -0.7176
   91SAPS   C29 8863   5.676   1.314   7.058 -0.6794  0.1270 -0.0386
   91SAPS   H9R 8864   5.713   1.413   7.029 -0.4817  1.4826  4.5688
   91SAPS  C210 8865   5.683   1.302   7.212 -0.5909  0.6743 -0.0033
   91SAPS  H10R 8866   5.786   1.335   7.237  0.7635 -0.2223 -4.0263
   91SAPS  H10S 8867   5.657   1.196   7.233 -1.1138  0.2773 -2.5008
   91SAPS  C211 8868   5.570   1.391   7.267 -0.5377  0.1748  0.1914
   91SAPS  H11R 8869   5.498   1.424   7.191 -1.2205  1.7316  1.4789
   91SAPS  C212 8870   5.557   1.422   7.397 -0.3805 -0.4188  0.0762
   91SAPS  H12R 8871   5.461   1.471   7.415  0.7025  1.7641  0.0974
   91SAPS  C213 8872   5.644   1.377   7.510 -0.1002 -0.5118  0.2449
   91SAPS  H13R 8873   5.678   1.464   7.570 -1.1277  0.2582 -0.2537
   91SAPS  H13S 8874   5.738   1.327   7.480  1.7366  2.3370  1.0621
   91SAPS  C214 8875   5.564   1.288   7.597 -0.0778 -0.1769  0.2175
   91SAPS  H14R 8876   5.550   1.185   7.561  0.0059 -0.0914 -0.0598
   91SAPS  C215 8877   5.499   1.329   7.708 -0.0665  0.0886  0.2139
   91SAPS  H15R 8878   5.433   1.263   7.766 -0.9098  0.8807  0.1622
   91SAPS  C216 8879   5.505   1.470   7.769  0.0508  0.3791 -0.0343
   91SAPS  H16R 8880   5.407   1.518   7.748  0.7088  1.3441 -0.9510
   91SAPS  H16S 8881   5.589   1.524   7.720  0.5654  0.0841  0.5098
   91SAPS  C217 8882   5.540   1.457   7.924 -0.2632  0.0303 -0.1497
   91SAPS  H17R 8883   5.647   1.430   7.941 -0.8254 -1.7284  0.6817
   91SAPS  H17S 8884   5.477   1.377   7.969 -3.8635  1.0604 -3.1230
   91SAPS  C218 8885   5.526   1.586   8.007 -0.0009  0.1266 -0.5079
   91SAPS  H18R 8886   5.442   1.633   7.950 -1.2673 -0.1883  1.0572
   91SAPS  H18S 8887   5.611   1.657   8.012  0.6031 -0.5540 -0.9405
   91SAPS  C219 8888   5.457   1.561   8.144 -0.4399  0.3356  0.3308
   91SAPS  H19R 8889   5.397   1.467   8.141 -1.9430  1.2891  0.3595
   91SAPS  H19S 8890   5.391   1.647   8.166 -0.6553  0.2662 -0.0430
   91SAPS  C220 8891   5.557   1.542   8.257  0.2791 -0.2979 -0.8039
   91SAPS  H20R 8892   5.623   1.630   8.274 -0.2942 -0.2129  1.0494
   91SAPS  H20S 8893   5.619   1.451   8.246 -1.2148 -1.4946  0.5596
   91SAPS  H20T 8894   5.497   1.527   8.349  1.9484 -1.2571  0.1474
   91SAPS   C33 8895   5.500   1.754   6.610 -0.4265 -0.3725  0.4266
   91SAPS   H3X 8896   5.463   1.859   6.600  1.3417  0.4835  2.6235
   91SAPS   H3Y 8897   5.590   1.740   6.547 -0.7209  0.2833 -0.1517
   91SAPS   C34 8898   5.553   1.758   6.756 -0.7520  0.5376 -0.4305
   91SAPS   H4X 8899   5.636   1.831   6.756 -0.3487  0.0796 -0.6562
   91SAPS   H4Y 8900   5.583   1.654   6.782 -0.3694  0.5603 -0.7877
   91SAPS   C35 8901   5.455   1.793   6.861 -0.5747  0.4247 -0.0476
   91SAPS   H5X 8902   5.368   1.725   6.853  0.0003 -0.1658 -1.3687
   91SAPS   H5Y 8903   5.408   1.891   6.838 -0.0301  0.4779 -0.9559
   91SAPS   C36 8904   5.521   1.791   7.000  0.4169  0.0818 -0.3702
   91SAPS   H6X 8905   5.605   1.863   7.009 -1.3457  2.3021 -1.1964
   91SAPS   H6Y 8906   5.564   1.690   7.015  0.8602  0.5626  1.8273
   91SAPS   C37 8907   5.430   1.808   7.119 -0.0788 -0.7396  0.6078
   91SAPS   H7X 8908   5.327   1.767   7.106 -1.0924  1.6067  1.0033
   91SAPS   H7Y 8909   5.420   1.918   7.133  5.0826 -0.2825  1.3886
   91SAPS   C38 8910   5.501   1.757   7.244  0.2177 -0.5029  0.6977
   91SAPS   H8X 8911   5.612   1.761   7.234  0.2160 -0.0479  0.8567
   91SAPS   H8Y 8912   5.474   1.650   7.257 -3.6498  0.6069  2.4273
   91SAPS   C39 8913   5.467   1.833   7.370 -0.4666 -0.1456 -0.0157
   91SAPS   H9X 8914   5.360   1.827   7.400 -0.2711  0.6044  0.8729
   91SAPS   H9Y 8915   5.489   1.941   7.353  0.1775 -0.4366 -1.0350
   91SAPS  C310 8916   5.550   1.795   7.498 -0.6979  0.0531 -0.0619
   91SAPS  H10X 8917   5.657   1.792   7.467 -0.8225  2.3083 -0.8383
   91SAPS  H10Y 8918   5.514   1.698   7.537 -1.7692  1.2652  2.0349
   91SAPS  C311 8919   5.528   1.898   7.612 -0.2529 -0.2218 -0.4776
   91SAPS  H11X 8920   5.555   2.000   7.578 -0.7699  0.3205  0.7403
   91SAPS  H11Y 8921   5.601   1.867   7.691 -0.3637  2.4799  0.7262
   91SAPS  C312 8922   5.384   1.915   7.674  0.1924  0.0724 -0.3740
   91SAPS  H12X 8923   5.371   1.814   7.718  1.0685  0.0416 -0.1772
   91SAPS  H12Y 8924   5.311   1.937   7.593 -1.6816  0.6261  1.4197
   91SAPS  C313 8925   5.372   2.023   7.783  0.1279  0.4087  0.5647
   91SAPS  H13X 8926   5.265   2.054   7.792  0.6213  1.9334  1.4242
   91SAPS  H13Y 8927   5.443   2.106   7.762 -0.1923  0.4932 -0.1985
   91SAPS  C314 8928   5.411   1.970   7.918 -0.0240 -0.1515 -0.0784
   91SAPS  H14X 8929   5.515   1.932   7.917  1.2607  3.2085  0.9500
   91SAPS  H14Y 8930   5.336   1.894   7.950 -0.9061  0.7781  0.1133
   91SAPS  C315 8931   5.399   2.081   8.024  0.2013  0.1800  0.3317
   91SAPS  H15X 8932   5.309   2.140   7.999 -0.6807 -1.3391 -0.1740
   91SAPS  H15Y 8933   5.490   2.143   8.008 -0.5768  0.7431 -2.0812
   91SAPS  C316 8934   5.385   2.014   8.163 -0.1051  0.1424 -0.3501
   91SAPS  H16X 8935   5.455   1.927   8.163 -0.0040  0.2197  0.8973
   91SAPS  H16Y 8936   5.286   1.966   8.153 -0.3913  0.6142  0.2383
   91SAPS  C317 8937   5.406   2.113   8.283  0.9689  0.2478  0.7517
   91SAPS  H17X 8938   5.356   2.064   8.369 -0.3874  1.1587  0.4877
   91SAPS  H17Y 8939   5.347   2.206   8.267 -0.1988 -0.6062  0.0276
   91SAPS  C318 8940   5.541   2.145   8.332 -0.7698 -0.2681  0.4121
   91SAPS  H18X 8941   5.623   2.075   8.305  0.4872  1.1304  0.5735
   91SAPS  H18Y 8942   5.544   2.163   8.442 -0.0993 -0.4887  0.4306
   91SAPS  H18Z 8943   5.581   2.241   8.295 -2.0820  1.4865  3.3332
   92SAPS     N 8944   4.833   5.442   6.381 -0.3449  0.1250  0.7885
   92SAPS   HN1 8945   4.829   5.339   6.368  0.6819 -0.0483  1.8035
   92SAPS   HN2 8946   4.822   5.467   6.481 -1.8590 -1.0891  0.9651
   92SAPS   HN3 8947   4.746   5.476   6.335 -0.4650 -0.0134  0.9123
   92SAPS   C12 8948   4.944   5.503   6.310 -0.4609  0.1020 -0.0275
   92SAPS  H12A 8949   5.037   5.473   6.356 -0.8145 -1.8037 -0.5188
   92SAPS   C13 8950   4.963   5.469   6.161 -0.1903 -0.0173 -0.2065
   92SAPS  O13A 8951   4.885   5.391   6.113 -0.4001  0.0704 -0.6400
   92SAPS  O13B 8952   5.073   5.503   6.106 -0.9991 -0.2884 -0.1644
   92SAPS   C11 8953   4.926   5.656   6.320  0.2265  0.1276 -0.2037
   92SAPS  H11A 8954   4.851   5.682   6.243 -0.8451 -0.4995  0.6015
   92SAPS  H11B 8955   5.024   5.699   6.290 -0.2089  1.3322  0.1020
   92SAPS     P 8956   4.905   5.853   6.505 -0.2955 -0.2777  0.6023
   92SAPS   O13 8957   4.871   5.951   6.395 -0.2026 -0.4589  0.3466
   92SAPS   O14 8958   4.825   5.864   6.630 -0.0439  0.1875 -0.1271
   92SAPS   O12 8959   4.888   5.700   6.455 -0.5756 -0.0744 -0.4541
   92SAPS   O11 8960   5.060   5.876   6.541  0.2843 -0.1427 -0.0950
   92SAPS    C1 8961   5.166   5.780   6.531  0.7213  0.0926 -0.0095
   92SAPS    HA 8962   5.125   5.678   6.549  3.3575 -1.3863 -2.1628
   92SAPS    HB 8963   5.201   5.780   6.426 -1.4809  1.8132 -0.7878
   92SAPS    C2 8964   5.276   5.810   6.630 -0.5052 -1.0966  0.1179
   92SAPS    HS 8965   5.349   5.727   6.627  0.7330 -0.1217  2.2417
   92SAPS   O21 8966   5.219   5.803   6.762  0.7541 -0.4812  0.2532
   92SAPS   C21 8967   5.180   5.689   6.802 -0.0550 -0.1877  0.2099
   92SAPS   O22 8968   5.195   5.581   6.749 -0.0552  0.5992  0.1686
   92SAPS   C22 8969   5.106   5.705   6.940  0.7048 -0.0704 -0.0246
   92SAPS   H2R 8970   5.030   5.624   6.941  0.8824 -0.2404 -0.3155
   92SAPS   H2S 8971   5.186   5.682   7.013  2.1891  0.4951 -1.4559
   92SAPS    C3 8972   5.333   5.951   6.609  0.7277  0.1036 -0.2680
   92SAPS    HX 8973   5.255   6.016   6.564 -1.1382 -2.5124 -0.9279
   92SAPS    HY 8974   5.416   5.943   6.536  1.2677 -0.6539  0.4115
   92SAPS   O31 8975   5.381   6.017   6.731  0.2272 -0.1335 -0.3871
   92SAPS   C31 8976   5.473   5.947   6.805  1.0502  0.1346  0.3779
   92SAPS   O32 8977   5.520   5.837   6.772  0.5326  0.7185  0.1050
   92SAPS   C32 8978   5.514   6.018   6.937  0.0924  0.6025  0.0673
   92SAPS   H2X 8979   5.622   5.999   6.953  0.1673  1.5102  0.6881
   92SAPS   H2Y 8980   5.461   5.963   7.018  0.5666  1.6399  1.1020
   92SAPS   C23 8981   5.035   5.842   6.972  0.1339 -0.7116  0.2576
   92SAPS   H3R 8982   4.932   5.815   7.005  0.5765 -1.2448  1.2318
   92SAPS   H3S 8983   5.037   5.912   6.886  2.4822  0.1182  0.9579
   92SAPS   C24 8984   5.106   5.908   7.091 -0.2151  0.5550  0.1816
   92SAPS   H4R 8985   5.193   5.952   7.038  0.7898 -2.7639 -1.0553
   92SAPS   H4S 8986   5.148   5.846   7.173  3.2669 -0.9287 -2.5676
   92SAPS   C25 8987   5.019   6.023   7.137  0.2367  0.2122  0.4961
   92SAPS   H5R 8988   4.994   6.085   7.050 -1.3821 -0.8301  0.1830
   92SAPS   C26 8989   4.957   6.052   7.254  0.0047  0.3076 -0.2810
   92SAPS   H6R 8990   4.900   6.145   7.259 -1.4010 -0.4760 -1.4096
   92SAPS   C27 8991   4.966   5.970   7.383  0.4032 -0.5361  0.0694
   92SAPS   H7R 8992   5.006   6.041   7.458  2.3859  0.8972 -2.2322
   92SAPS   H7S 8993   5.029   5.881   7.361 -0.0867 -0.9380  0.2889
   92SAPS   C28 8994   4.827   5.931   7.425 -0.3051 -0.5528  0.2150
   92SAPS   H8R 8995   4.755   5.909   7.345 -0.0221 -3.8895  0.8042
   92SAPS   C29 8996   4.789   5.908   7.552  0.2808  1.0778 -0.5884
   92SAPS   H9R 8997   4.681   5.888   7.563  0.7081 -0.2218  1.4277
   92SAPS  C210 8998   4.862   5.909   7.686 -0.6371  0.2789  0.4088
   92SAPS  H10R 8999   4.968   5.933   7.662 -0.3957 -0.5771  0.6130
   92SAPS  H10S 9000   4.854   5.808   7.732 -0.5092  0.7818  1.5680
   92SAPS  C211 9001   4.813   6.014   7.779  0.7232  0.7176 -0.6799
   92SAPS  H11R 9002   4.739   6.083   7.737  0.7267  0.6091 -0.8647
   92SAPS  C212 9003   4.862   6.046   7.899 -0.2056  0.1237  0.9348
   92SAPS  H12R 9004   4.808   6.124   7.955  1.9552  0.2020  3.0138
   92SAPS  C213 9005   4.973   5.974   7.964  0.5427  0.0271  0.2449
   92SAPS  H13R 9006   5.066   6.030   7.940  0.2442 -0.1358 -1.3649
   92SAPS  H13S 9007   4.984   5.875   7.914  0.1947  0.3282 -0.4360
   92SAPS  C214 9008   4.945   5.946   8.110  0.1680 -0.1417  0.1798
   92SAPS  H14R 9009   4.840   5.932   8.141  0.1176  0.2553  0.1911
   92SAPS  C215 9010   5.035   5.924   8.201  0.5335  0.1130  0.1200
   92SAPS  H15R 9011   4.998   5.904   8.303  2.0554 -1.0315  0.4607
   92SAPS  C216 9012   5.183   5.929   8.182 -0.1211  0.3926  0.1211
   92SAPS  H16R 9013   5.215   6.024   8.134  1.0110 -0.6568 -1.2295
   92SAPS  H16S 9014   5.223   5.857   8.108  2.5306 -0.0145  1.9000
   92SAPS  C217 9015   5.252   5.885   8.313 -0.4379  0.1725 -0.0159
   92SAPS  H17R 9016   5.356   5.859   8.282  0.0042  1.6753  0.1767
   92SAPS  H17S 9017   5.198   5.797   8.354 -3.3110  0.2543 -3.3453
   92SAPS  C218 9018   5.254   5.987   8.431  0.5474  0.3307  0.4256
   92SAPS  H18R 9019   5.319   5.940   8.508 -0.6735 -1.1911  0.5786
   92SAPS  H18S 9020   5.156   5.987   8.483  0.8280 -1.0304  0.9909
   92SAPS  C219 9021   5.305   6.131   8.406  0.6250  0.0564  0.5043
   92SAPS  H19R 9022   5.231   6.177   8.338 -0.9437 -1.2449  1.2936
   92SAPS  H19S 9023   5.403   6.118   8.354  1.3463  1.0106  1.5949
   92SAPS  C220 9024   5.320   6.218   8.520  0.1451  0.6690  0.1747
   92SAPS  H20R 9025   5.378   6.165   8.599 -1.1169  0.1633  0.7834
   92SAPS  H20S 9026   5.222   6.233   8.570 -0.3265 -1.8952  0.0889
   92SAPS  H20T 9027   5.374   6.312   8.498 -0.7124  0.7320 -1.7345
   92SAPS   C33 9028   5.482   6.171   6.937 -0.9886 -1.2069  0.0039
   92SAPS   H3X 9029   5.380   6.193   6.897 -1.1601 -0.2836  0.9316
   92SAPS   H3Y 9030   5.553   6.211   6.861  0.5707 -1.0732  1.5181
   92SAPS   C34 9031   5.499   6.236   7.072 -0.2596  0.6687  0.4173
   92SAPS   H4X 9032   5.503   6.345   7.050  0.9065  0.5487  0.0271
   92SAPS   H4Y 9033   5.593   6.198   7.116 -0.8875 -1.8298 -0.3214
   92SAPS   C35 9034   5.393   6.215   7.180  0.5567 -0.4172 -0.7157
   92SAPS   H5X 9035   5.385   6.112   7.222  0.6008 -1.3952 -2.9869
   92SAPS   H5Y 9036   5.295   6.236   7.132  0.7560  1.4625 -0.3304
   92SAPS   C36 9037   5.404   6.336   7.278  0.1488  0.3098 -0.0921
   92SAPS   H6X 9038   5.415   6.428   7.217 -1.9064  1.2375  0.8654
   92SAPS   H6Y 9039   5.493   6.333   7.345 -1.0051 -0.5744  1.4253
   92SAPS   C37 9040   5.271   6.351   7.361 -0.0730 -0.3184  0.0939
   92SAPS   H7X 9041   5.258   6.258   7.420 -3.2969 -1.3171 -2.0386
   92SAPS   H7Y 9042   5.194   6.363   7.282  0.2513  2.1834  0.1293
   92SAPS   C38 9043   5.279   6.472   7.449  0.3342  0.1048  0.2160
   92SAPS   H8X 9044   5.179   6.522   7.455  1.6626  2.8933  0.0734
   92SAPS   H8Y 9045   5.341   6.551   7.401 -1.3958  0.3196 -1.7560
   92SAPS   C39 9046   5.320   6.437   7.594  0.3667 -0.0844  0.3689
   92SAPS   H9X 9047   5.425   6.407   7.574  0.0127 -1.0087 -0.1521
   92SAPS   H9Y 9048   5.267   6.347   7.633  0.5380 -0.8225 -1.0900
   92SAPS  C310 9049   5.322   6.568   7.683  0.2589  0.3618 -0.4336
   92SAPS  H10X 9050   5.220   6.613   7.688  0.3712  0.5335  0.3122
   92SAPS  H10Y 9051   5.394   6.644   7.647  1.8828 -1.1635 -0.4768
   92SAPS  C311 9052   5.360   6.530   7.831  0.2622  0.3350  0.1352
   92SAPS  H11X 9053   5.414   6.622   7.863  3.2375 -1.0828 -0.5689
   92SAPS  H11Y 9054   5.443   6.457   7.821 -1.0026 -0.6412 -4.4157
   92SAPS  C312 9055   5.255   6.490   7.922  0.2660  0.1493 -0.6801
   92SAPS  H12X 9056   5.222   6.387   7.896  0.4871 -0.2962  0.7512
   92SAPS  H12Y 9057   5.165   6.555   7.919 -0.5493 -0.9488 -0.6046
   92SAPS  C313 9058   5.302   6.478   8.071 -0.6957 -0.4822  0.0081
   92SAPS  H13X 9059   5.401   6.426   8.076 -1.1296 -1.3600 -0.3550
   92SAPS  H13Y 9060   5.221   6.425   8.126  1.0038 -2.8766  0.2970
   92SAPS  C314 9061   5.303   6.616   8.140  0.5877  0.3551  0.1578
   92SAPS  H14X 9062   5.202   6.661   8.140 -0.2028 -1.3591 -1.7810
   92SAPS  H14Y 9063   5.374   6.683   8.087 -1.1938  1.6898 -0.5722
   92SAPS  C315 9064   5.336   6.597   8.288 -0.0680 -0.4580 -0.4376
   92SAPS  H15X 9065   5.273   6.520   8.339 -0.2128  0.4426  0.7836
   92SAPS  H15Y 9066   5.324   6.693   8.344  1.7397  0.5296 -1.6819
   92SAPS  C316 9067   5.483   6.557   8.305 -0.1687 -0.2367 -0.3901
   92SAPS  H16X 9068   5.546   6.607   8.229  0.7564 -2.8470 -1.3966
   92SAPS  H16Y 9069   5.485   6.446   8.299 -2.5312 -0.2824 -0.8372
   92SAPS  C317 9070   5.546   6.582   8.441 -0.4165 -0.3196 -0.2367
   92SAPS  H17X 9071   5.511   6.491   8.495  2.3264 -1.1549  0.1937
   92SAPS  H17Y 9072   5.519   6.676   8.493 -0.5808 -1.4020  1.6809
   92SAPS  C318 9073   5.699   6.559   8.442 -0.7012  0.2869  0.0142
   92SAPS  H18X 9074   5.739   6.634   8.370 -0.2353 -0.3441 -0.3814
   92SAPS  H18Y 9075   5.725   6.455   8.415 -1.0498  0.2291 -0.1036
   92SAPS  H18Z 9076   5.745   6.589   8.538 -0.5123  0.3464 -0.0949
   93SAPS     N 9077   5.910   5.631   6.462  0.3188 -0.8565 -0.6699
   93SAPS   HN1 9078   5.849   5.549   6.444 -0.1369 -0.6592 -0.0398
   93SAPS   HN2 9079   5.980   5.588   6.525 -1.0670 -2.5115 -0.2378
   93SAPS   HN3 9080   5.853   5.695   6.520  1.7509  0.9638 -1.2089
   93SAPS   C12 9081   5.968   5.704   6.342  0.2246  0.9082 -0.5021
   93SAPS  H12A 9082   6.041   5.637   6.300 -0.5954 -0.5882  0.3911
   93SAPS   C13 9083   5.865   5.717   6.229  0.0296  0.2598 -1.4121
   93SAPS  O13A 9084   5.741   5.700   6.252 -0.0470  0.0701  0.2008
   93SAPS  O13B 9085   5.906   5.767   6.117  0.0236  0.2306  0.6747
   93SAPS   C11 9086   6.032   5.842   6.381  0.3356  0.0490  0.4174
   93SAPS  H11A 9087   5.947   5.907   6.410  1.2271  0.0347  3.2718
   93SAPS  H11B 9088   6.061   5.887   6.284  2.1159 -1.9272 -0.0142
   93SAPS     P 9089   6.219   5.976   6.496  0.4142  0.1149 -0.0497
   93SAPS   O13 9090   6.356   5.941   6.509  0.6626 -0.2781  1.0264
   93SAPS   O14 9091   6.197   6.075   6.389  0.6675 -0.1457  0.1462
   93SAPS   O12 9092   6.139   5.840   6.477  0.6301  0.1083 -0.2464
   93SAPS   O11 9093   6.169   6.042   6.633 -0.4298  0.1296  0.3200
   93SAPS    C1 9094   6.034   6.088   6.653  0.1478 -0.2119  0.2133
   93SAPS    HA 9095   6.043   6.198   6.668  1.9585 -0.3645  0.3932
   93SAPS    HB 9096   5.962   6.078   6.569  1.7917 -0.6924 -1.1659
   93SAPS    C2 9097   5.984   6.038   6.790  0.2347 -0.0999 -0.0800
   93SAPS    HS 9098   5.873   6.030   6.793  0.2819 -0.8180 -0.3348
   93SAPS   O21 9099   6.037   6.129   6.892  0.1482 -0.0127  0.0599
   93SAPS   C21 9100   5.962   6.233   6.925 -0.4346 -0.8134 -0.1674
   93SAPS   O22 9101   5.859   6.266   6.874  0.1948  0.0547  0.7238
   93SAPS   C22 9102   6.040   6.310   7.032  0.3099  0.7607 -0.1115
   93SAPS   H2R 9103   6.105   6.239   7.087 -2.4553  0.5324  3.0604
   93SAPS   H2S 9104   6.112   6.370   6.972 -0.6716  1.9329 -0.1351
   93SAPS    C3 9105   6.039   5.885   6.814 -0.0119  0.1899  0.4262
   93SAPS    HX 9106   6.150   5.894   6.816 -0.0017  0.0606  0.4277
   93SAPS    HY 9107   6.002   5.824   6.729 -0.0604  0.9853 -0.1290
   93SAPS   O31 9108   5.993   5.843   6.944  0.1777  0.1746 -0.1636
   93SAPS   C31 9109   5.987   5.712   6.961  0.1816 -0.3415  0.9582
   93SAPS   O32 9110   6.021   5.634   6.876 -0.3982 -0.0749  0.5200
   93SAPS   C32 9111   5.922   5.670   7.098 -0.2985  0.0707  0.6284
   93SAPS   H2X 9112   5.924   5.559   7.092  2.1543  0.1035 -0.0566
   93SAPS   H2Y 9113   5.821   5.716   7.091  0.0044  0.6178 -0.2996
   93SAPS   C23 9114   5.964   6.411   7.114 -1.1899  0.4051 -0.4279
   93SAPS   H3R 9115   5.906   6.471   7.041 -1.4807 -0.2170 -0.7096
   93SAPS   H3S 9116   6.031   6.477   7.173 -1.2337  0.6550 -0.6550
   93SAPS   C24 9117   5.867   6.337   7.200 -0.5381 -0.4995 -0.3748
   93SAPS   H4R 9118   5.935   6.290   7.276  1.2883  1.3374 -0.8305
   93SAPS   H4S 9119   5.819   6.248   7.155  0.7441 -2.3819  1.8358
   93SAPS   C25 9120   5.766   6.433   7.264 -0.6442 -0.2849 -0.6898
   93SAPS   H5R 9121   5.675   6.429   7.203 -2.2569  0.2720  1.6086
   93SAPS   C26 9122   5.762   6.511   7.377  0.1815  0.3520 -0.2829
   93SAPS   H6R 9123   5.683   6.588   7.377 -0.4584 -0.2893 -2.1630
   93SAPS   C27 9124   5.874   6.528   7.478  0.4872  0.4857 -0.0248
   93SAPS   H7R 9125   5.926   6.626   7.479  1.0752  0.1757 -0.0667
   93SAPS   H7S 9126   5.959   6.465   7.443  0.1118  0.2050 -0.4313
   93SAPS   C28 9127   5.831   6.480   7.611 -0.8080  0.2771  0.0495
   93SAPS   H8R 9128   5.824   6.370   7.616  3.3283 -0.1037 -0.0462
   93SAPS   C29 9129   5.814   6.552   7.722  0.0480  0.2392 -0.1660
   93SAPS   H9R 9130   5.771   6.518   7.817  0.6555  0.1218  0.0725
   93SAPS  C210 9131   5.816   6.705   7.711  0.8346  0.8157 -1.0094
   93SAPS  H10R 9132   5.749   6.737   7.628  0.4128  0.9220 -0.6273
   93SAPS  H10S 9133   5.921   6.737   7.696  0.7776  0.8612 -1.3209
   93SAPS  C211 9134   5.766   6.787   7.830  0.3968  0.1360  0.2010
   93SAPS  H11R 9135   5.665   6.822   7.807 -0.2604  0.9328  3.9462
   93SAPS  C212 9136   5.823   6.808   7.947 -0.2417 -0.2108  0.0239
   93SAPS  H12R 9137   5.775   6.874   8.021  2.1566  0.6110  0.9165
   93SAPS  C213 9138   5.951   6.751   8.001 -0.0452 -0.1428 -0.1385
   93SAPS  H13R 9139   6.024   6.759   7.917  1.5737  1.5394  1.3843
   93SAPS  H13S 9140   5.942   6.640   8.008  0.2343  0.0271  3.7201
   93SAPS  C214 9141   6.004   6.821   8.123 -0.1731 -0.6993  0.3560
   93SAPS  H14R 9142   5.978   6.925   8.147  0.4843 -0.9691  2.2732
   93SAPS  C215 9143   6.085   6.765   8.215  0.7054  0.2817 -0.2832
   93SAPS  H15R 9144   6.130   6.830   8.291 -1.3654  1.6298 -0.1675
   93SAPS  C216 9145   6.135   6.620   8.212 -0.0422 -0.8294 -0.4677
   93SAPS  H16R 9146   6.231   6.618   8.268  0.3531  0.1806 -1.0920
   93SAPS  H16S 9147   6.162   6.585   8.111  0.0594  0.4746 -0.9097
   93SAPS  C217 9148   6.044   6.521   8.279 -0.5178 -0.4468  0.5478
   93SAPS  H17R 9149   5.952   6.505   8.219  0.0484 -1.5884 -0.0366
   93SAPS  H17S 9150   6.012   6.568   8.375  0.5769 -1.6118  1.5130
   93SAPS  C218 9151   6.105   6.380   8.317  0.0288  0.4250 -0.2131
   93SAPS  H18R 9152   6.196   6.400   8.379  1.5540 -1.3257 -1.8186
   93SAPS  H18S 9153   6.132   6.314   8.232 -0.8213  0.3250 -0.4091
   93SAPS  C219 9154   6.013   6.294   8.409  0.7183  0.1347 -0.4273
   93SAPS  H19R 9155   5.911   6.285   8.366  0.2279 -0.5352  0.8246
   93SAPS  H19S 9156   5.996   6.354   8.501 -4.6681 -0.5991 -0.8206
   93SAPS  C220 9157   6.070   6.154   8.444  0.0656  0.2561 -0.7793
   93SAPS  H20R 9158   6.095   6.096   8.353 -1.8415 -1.1993 -0.4214
   93SAPS  H20S 9159   6.004   6.091   8.507  0.2767 -0.0956 -0.9091
   93SAPS  H20T 9160   6.162   6.159   8.505  0.4980 -0.0977 -1.3984
   93SAPS   C33 9161   5.988   5.717   7.222 -0.2287 -0.6018  0.1334
   93SAPS   H3X 9162   6.096   5.691   7.230 -0.6751 -2.5923 -0.0494
   93SAPS   H3Y 9163   5.944   5.654   7.302  0.0187 -2.1944 -0.9445
   93SAPS   C34 9164   5.955   5.860   7.260  0.2519  0.4207  0.8471
   93SAPS   H4X 9165   5.846   5.873   7.275  0.4071  1.6632  0.9674
   93SAPS   H4Y 9166   5.977   5.921   7.170 -2.9494 -0.5226 -0.6171
   93SAPS   C35 9167   6.032   5.927   7.382  0.0862  0.4673  0.0217
   93SAPS   H5X 9168   6.032   6.036   7.400 -4.0351  0.6424 -0.6120
   93SAPS   H5Y 9169   6.137   5.906   7.355 -0.6702  0.0593 -2.7151
   93SAPS   C36 9170   6.012   5.839   7.510 -0.4386  0.3073 -0.6143
   93SAPS   H6X 9171   6.111   5.851   7.561  0.3498  1.3189 -2.3220
   93SAPS   H6Y 9172   5.998   5.734   7.478 -2.9102  0.8549 -1.4097
   93SAPS   C37 9173   5.903   5.893   7.595 -0.4459  0.7739  0.9129
   93SAPS   H7X 9174   5.828   5.919   7.517  0.7858  2.4435  0.2347
   93SAPS   H7Y 9175   5.934   5.992   7.636 -1.1393  1.3263  0.1404
   93SAPS   C38 9176   5.841   5.799   7.702 -0.4407  0.2150  0.2979
   93SAPS   H8X 9177   5.783   5.721   7.649  1.5682 -1.7922  0.9584
   93SAPS   H8Y 9178   5.764   5.859   7.756 -2.2112 -0.1720 -1.7729
   93SAPS   C39 9179   5.937   5.731   7.796 -0.3223  0.1109  0.7201
   93SAPS   H9X 9180   6.012   5.676   7.736 -0.8542  1.5298 -1.2890
   93SAPS   H9Y 9181   5.904   5.648   7.861 -1.1239 -0.3438 -0.2646
   93SAPS  C310 9182   5.988   5.826   7.909  1.0589 -0.0339  0.2376
   93SAPS  H10X 9183   5.910   5.900   7.937  0.0706 -1.8187  2.4055
   93SAPS  H10Y 9184   6.069   5.881   7.857  1.3832  0.2849  1.0575
   93SAPS  C311 9185   6.046   5.758   8.025  0.1566 -0.4026  0.0553
   93SAPS  H11X 9186   6.122   5.825   8.071  0.0376 -0.1090 -0.1779
   93SAPS  H11Y 9187   6.109   5.678   7.981  2.8927  2.5789 -1.6395
   93SAPS  C312 9188   5.950   5.718   8.130 -0.5441  0.2459  0.2389
   93SAPS  H12X 9189   5.894   5.625   8.108 -1.3325  0.9651 -0.8272
   93SAPS  H12Y 9190   5.874   5.795   8.151 -4.5781 -3.1905 -1.0185
   93SAPS  C313 9191   6.028   5.675   8.261 -1.0150 -0.6332  0.2991
   93SAPS  H13X 9192   6.111   5.613   8.220 -0.9756  1.0293 -2.2827
   93SAPS  H13Y 9193   5.954   5.618   8.320 -0.8836 -2.8867 -1.6168
   93SAPS  C314 9194   6.061   5.801   8.351  0.2847 -0.1708 -0.5340
   93SAPS  H14X 9195   5.978   5.874   8.358  0.3017 -0.1327 -0.7421
   93SAPS  H14Y 9196   6.146   5.857   8.306  2.7125 -2.5833  0.8501
   93SAPS  C315 9197   6.102   5.767   8.494  0.0165  0.4043  0.1668
   93SAPS  H15X 9198   6.100   5.863   8.550  0.5409  0.0163  0.8652
   93SAPS  H15Y 9199   6.197   5.709   8.489 -0.9799 -1.3021  0.7230
   93SAPS  C316 9200   6.002   5.676   8.573 -0.4399  0.0111  0.0810
   93SAPS  H16X 9201   5.990   5.576   8.526 -0.3834 -0.6564  1.4657
   93SAPS  H16Y 9202   5.903   5.725   8.582 -0.4084  0.0892  0.0123
   93SAPS  C317 9203   6.060   5.651   8.714 -0.3656 -0.6100 -0.3315
   93SAPS  H17X 9204   6.084   5.752   8.751 -0.5401 -0.0907 -1.6088
   93SAPS  H17Y 9205   6.153   5.592   8.698  0.5531  0.5005  0.9094
   93SAPS  C318 9206   5.968   5.598   8.820  0.4093  0.9197  0.2351
   93SAPS  H18X 9207   5.918   5.503   8.792  1.4181  0.4715 -0.0938
   93SAPS  H18Y 9208   5.876   5.659   8.822 -1.0092 -1.1021 -1.4569
   93SAPS  H18Z 9209   6.017   5.591   8.920  1.2642 -2.1973 -0.3532
   94SAPS     N 9210   5.405   1.531   5.781  0.1394 -0.6237  0.5917
   94SAPS   HN1 9211   5.303   1.546   5.791  0.4416  1.6317  0.4811
   94SAPS   HN2 9212   5.419   1.432   5.809 -1.0378 -1.4323 -1.5693
   94SAPS   HN3 9213   5.460   1.583   5.852 -0.5291  0.7061  0.1642
   94SAPS   C12 9214   5.429   1.558   5.638 -0.3456 -0.2326  0.3764
   94SAPS  H12A 9215   5.532   1.528   5.622 -0.3652 -0.4237  0.6107
   94SAPS   C13 9216   5.334   1.478   5.546  0.1262  0.2333 -0.1090
   94SAPS  O13A 9217   5.298   1.359   5.577  0.2825 -0.2934 -0.3712
   94SAPS  O13B 9218   5.330   1.509   5.422  0.2187  0.2877 -0.4636
   94SAPS   C11 9219   5.408   1.709   5.617  0.6481  0.0227  1.0126
   94SAPS  H11A 9220   5.301   1.734   5.629  0.4982  0.7263 -1.4542
   94SAPS  H11B 9221   5.437   1.734   5.513 -3.1172  0.8313  0.0840
   94SAPS     P 9222   5.511   1.934   5.728 -0.1411  0.1421  0.1297
   94SAPS   O13 9223   5.619   1.959   5.826  0.1379  0.7355 -0.9567
   94SAPS   O14 9224   5.527   1.998   5.593 -0.1024 -0.1235  0.2611
   94SAPS   O12 9225   5.492   1.779   5.709 -0.1351 -0.3412  0.7006
   94SAPS   O11 9226   5.374   1.970   5.789  0.3034  0.0204 -0.3603
   94SAPS    C1 9227   5.315   1.902   5.897  0.2655  0.3442  0.0841
   94SAPS    HA 9228   5.204   1.905   5.900  0.2831  0.4973  0.9361
   94SAPS    HB 9229   5.343   1.795   5.897  0.8017  0.4824 -0.8965
   94SAPS    C2 9230   5.357   1.971   6.034 -0.1464  0.0665 -0.7775
   94SAPS    HS 9231   5.355   2.082   6.027  1.0804  0.1153 -0.4066
   94SAPS   O21 9232   5.480   1.920   6.087  0.5746  0.2229 -0.5938
   94SAPS   C21 9233   5.565   2.004   6.125  1.0963 -0.7060 -0.1586
   94SAPS   O22 9234   5.560   2.124   6.117  0.3486 -0.3348  0.1008
   94SAPS   C22 9235   5.690   1.924   6.165  1.0168 -0.3936  0.4217
   94SAPS   H2R 9236   5.704   1.829   6.108 -0.2498  0.0691 -0.6854
   94SAPS   H2S 9237   5.768   2.000   6.145  1.2106 -0.6843  0.0521
   94SAPS    C3 9238   5.249   1.933   6.141 -0.2671 -0.3787 -1.0685
   94SAPS    HX 9239   5.245   1.824   6.157 -1.7140 -0.3269 -0.9860
   94SAPS    HY 9240   5.148   1.966   6.109 -0.9409  2.2743  3.3306
   94SAPS   O31 9241   5.288   1.994   6.270 -0.6360  0.4182  0.2241
   94SAPS   C31 9242   5.210   2.087   6.312 -0.1227 -0.5724  0.3576
   94SAPS   O32 9243   5.116   2.140   6.258 -0.4319 -0.2268 -0.0287
   94SAPS   C32 9244   5.260   2.122   6.458 -0.0986  0.7488 -0.2729
   94SAPS   H2X 9245   5.359   2.169   6.438  1.1198 -0.6387  2.3389
   94SAPS   H2Y 9246   5.282   2.026   6.510  1.0185  0.0713 -1.9638
   94SAPS   C23 9247   5.697   1.899   6.318 -0.1410  0.1144  0.9839
   94SAPS   H3R 9248   5.778   1.825   6.332  1.0183  0.6220 -2.5799
   94SAPS   H3S 9249   5.603   1.848   6.348 -1.2406  1.2662 -0.3860
   94SAPS   C24 9250   5.726   2.033   6.390 -0.0611  0.0598  0.7448
   94SAPS   H4R 9251   5.667   2.113   6.340 -0.5706 -0.0760  1.1314
   94SAPS   H4S 9252   5.832   2.067   6.387  0.0803 -0.3537  1.0625
   94SAPS   C25 9253   5.672   2.046   6.531  0.6212  0.1624 -0.1908
   94SAPS   H5R 9254   5.568   2.080   6.535  0.7988  0.6947 -0.0098
   94SAPS   C26 9255   5.738   2.031   6.644 -0.6760 -0.2188  0.6062
   94SAPS   H6R 9256   5.691   2.046   6.742  0.5930  0.1349  1.1669
   94SAPS   C27 9257   5.883   2.005   6.659 -0.9563 -0.5078 -0.2570
   94SAPS   H7R 9258   5.935   2.103   6.667  0.9357 -1.3383 -1.8730
   94SAPS   H7S 9259   5.929   1.959   6.569 -0.0895 -2.3487  1.1008
   94SAPS   C28 9260   5.928   1.911   6.768  0.2896  0.1115  0.1718
   94SAPS   H8R 9261   5.945   1.808   6.733  0.5673  0.3703 -0.4585
   94SAPS   C29 9262   5.938   1.935   6.901 -0.0383 -0.2459  0.0105
   94SAPS   H9R 9263   5.942   1.840   6.956 -1.4881 -0.3451 -0.0592
   94SAPS  C210 9264   5.893   2.063   6.978  0.0018 -0.0889 -0.0691
   94SAPS  H10R 9265   5.802   2.096   6.923 -0.7779 -0.8278  0.7450
   94SAPS  H10S 9266   5.968   2.145   6.975  0.1751 -0.1295  2.2255
   94SAPS  C211 9267   5.855   2.019   7.119 -0.9681 -0.0544 -0.0666
   94SAPS  H11R 9268   5.875   1.914   7.145 -3.4760 -0.5409 -0.0568
   94SAPS  C212 9269   5.827   2.107   7.220 -0.1873  0.1013 -0.0610
   94SAPS  H12R 9270   5.768   2.068   7.304 -1.2476 -0.0324 -0.8544
   94SAPS  C213 9271   5.832   2.256   7.222  0.4335  0.1434 -0.4619
   94SAPS  H13R 9272   5.792   2.288   7.124 -2.6696  0.0628  0.7182
   94SAPS  H13S 9273   5.939   2.286   7.218  0.8286 -0.9857  1.0827
   94SAPS  C214 9274   5.752   2.326   7.330 -0.0049 -1.5558 -0.6629
   94SAPS  H14R 9275   5.658   2.373   7.300  0.9520  1.1233  0.4154
   94SAPS  C215 9276   5.780   2.327   7.462 -0.2076  0.6274  0.5137
   94SAPS  H15R 9277   5.709   2.380   7.526 -0.2535  2.3685 -0.9423
   94SAPS  C216 9278   5.901   2.260   7.535  0.1855 -0.5409 -0.3084
   94SAPS  H16R 9279   5.958   2.322   7.607 -0.7103 -0.2340  0.1538
   94SAPS  H16S 9280   5.977   2.223   7.463 -0.2077  0.7472 -1.4122
   94SAPS  C217 9281   5.852   2.145   7.618 -0.0305 -0.0847  0.1968
   94SAPS  H17R 9282   5.945   2.084   7.632 -1.4212 -1.9209  1.7019
   94SAPS  H17S 9283   5.781   2.082   7.560  0.6065  0.4370 -1.1763
   94SAPS  C218 9284   5.791   2.186   7.751 -0.2209 -0.0574  0.0889
   94SAPS  H18R 9285   5.695   2.240   7.737 -0.7216 -1.0328 -0.3285
   94SAPS  H18S 9286   5.859   2.262   7.793 -1.9010  0.5839  1.7263
   94SAPS  C219 9287   5.763   2.077   7.855 -0.6716  0.8371  0.8687
   94SAPS  H19R 9288   5.674   2.017   7.831 -0.2137 -0.0230  1.3042
   94SAPS  H19S 9289   5.744   2.115   7.958 -2.3680 -1.6665  1.5205
   94SAPS  C220 9290   5.878   1.976   7.881  0.1739  0.0250 -0.3414
   94SAPS  H20R 9291   5.857   1.899   7.959  0.9001 -0.2598 -0.4226
   94SAPS  H20S 9292   5.969   2.027   7.921  0.6400 -1.4926  0.5690
   94SAPS  H20T 9293   5.908   1.928   7.785 -0.3869 -1.0822  0.0272
   94SAPS   C33 9294   5.166   2.215   6.530  0.1063  0.2239  1.1725
   94SAPS   H3X 9295   5.079   2.159   6.571 -0.8444  0.5737 -0.3349
   94SAPS   H3Y 9296   5.129   2.294   6.462  0.8851 -1.6306 -1.4964
   94SAPS   C34 9297   5.244   2.292   6.637  0.0968  0.1101 -0.6309
   94SAPS   H4X 9298   5.181   2.377   6.670 -0.8158  0.3996 -3.0620
   94SAPS   H4Y 9299   5.331   2.341   6.589  1.6089 -2.1300 -0.2542
   94SAPS   C35 9300   5.278   2.199   6.756 -0.9564  0.7990  0.3539
   94SAPS   H5X 9301   5.380   2.158   6.739 -1.4540  0.2049 -1.3248
   94SAPS   H5Y 9302   5.220   2.104   6.756 -2.1070  1.4882 -1.0653
   94SAPS   C36 9303   5.269   2.269   6.897 -0.2040 -0.4686 -0.2456
   94SAPS   H6X 9304   5.162   2.289   6.919 -0.1216 -1.0995  0.7585
   94SAPS   H6Y 9305   5.322   2.367   6.895  1.1205 -1.1453  0.8610
   94SAPS   C37 9306   5.315   2.177   7.011  0.1200 -0.1190  0.6304
   94SAPS   H7X 9307   5.423   2.149   7.008  0.7431  2.2188  0.0713
   94SAPS   H7Y 9308   5.258   2.082   7.007  1.6156 -1.0102 -0.0051
   94SAPS   C38 9309   5.304   2.251   7.152 -0.4728 -0.5205 -0.0224
   94SAPS   H8X 9310   5.195   2.265   7.168 -0.9119  0.3930 -3.3551
   94SAPS   H8Y 9311   5.355   2.349   7.143  2.2704 -1.8793  0.2332
   94SAPS   C39 9312   5.356   2.171   7.282  0.0145 -0.1295  0.0325
   94SAPS   H9X 9313   5.464   2.144   7.278 -0.1076 -0.4598 -0.9636
   94SAPS   H9Y 9314   5.300   2.075   7.290  2.2654 -1.4989  0.0387
   94SAPS  C310 9315   5.321   2.257   7.409 -0.3106  0.3711  0.1231
   94SAPS  H10X 9316   5.368   2.222   7.504 -1.6101 -0.6940  0.4063
   94SAPS  H10Y 9317   5.210   2.251   7.423 -0.2205  1.6860  1.5295
   94SAPS  C311 9318   5.360   2.406   7.400 -0.3925  0.3928 -0.1414
   94SAPS  H11X 9319   5.292   2.454   7.327 -2.3217 -0.4978  1.0335
   94SAPS  H11Y 9320   5.462   2.410   7.356 -0.2695 -1.2099 -0.0523
   94SAPS  C312 9321   5.325   2.485   7.520 -0.6621 -0.1461 -0.4513
   94SAPS  H12X 9322   5.227   2.446   7.554 -0.8226  2.3505  2.1459
   94SAPS  H12Y 9323   5.314   2.594   7.497 -1.1745  0.1407  1.0637
   94SAPS  C313 9324   5.439   2.486   7.625  0.1433 -0.2785 -0.0109
   94SAPS  H13X 9325   5.523   2.554   7.602  1.5754 -2.1218 -0.3498
   94SAPS  H13Y 9326   5.485   2.385   7.631  1.1070  0.1906  0.4965
   94SAPS  C314 9327   5.378   2.523   7.768  0.1849 -0.6573 -0.4612
   94SAPS  H14X 9328   5.281   2.474   7.790  0.4229  0.7083  4.2177
   94SAPS  H14Y 9329   5.360   2.632   7.751  2.3382  0.4369  3.7284
   94SAPS  C315 9330   5.469   2.493   7.878  0.7060  0.3710 -0.3549
   94SAPS  H15X 9331   5.566   2.547   7.872  0.9251  0.0746  0.4352
   94SAPS  H15Y 9332   5.493   2.385   7.882  3.2048  0.9320  1.3714
   94SAPS  C316 9333   5.405   2.530   8.019 -0.5883  0.1110 -0.5710
   94SAPS  H16X 9334   5.486   2.504   8.091  0.9625 -0.4413 -2.4647
   94SAPS  H16Y 9335   5.313   2.469   8.031 -0.4578 -0.9105 -4.1990
   94SAPS  C317 9336   5.373   2.677   8.041  0.4104  0.2272  0.2786
   94SAPS  H17X 9337   5.290   2.717   7.979  1.4060  0.2149 -1.0584
   94SAPS  H17Y 9338   5.470   2.724   8.016  1.1125 -1.0460  0.5641
   94SAPS  C318 9339   5.326   2.714   8.192 -0.1519 -0.0706  0.2513
   94SAPS  H18X 9340   5.323   2.825   8.204  2.0619  0.0182  0.2730
   94SAPS  H18Y 9341   5.409   2.680   8.259 -0.0464  2.3787  1.4619
   94SAPS  H18Z 9342   5.227   2.675   8.222  0.3946  0.9672  3.7057
   95SAPS     N 9343   2.000   5.926   5.966 -0.9551 -0.1314  0.3288
   95SAPS   HN1 9344   1.985   5.997   6.040 -1.0335  0.4990 -0.2960
   95SAPS   HN2 9345   1.959   5.965   5.879 -1.9875 -0.6589  0.5789
   95SAPS   HN3 9346   1.952   5.837   5.993 -0.1125 -1.1206 -1.3517
   95SAPS   C12 9347   2.147   5.901   5.945  0.6211  0.8092 -0.0578
   95SAPS  H12A 9348   2.160   5.801   5.981  0.9264  0.5261 -0.9350
   95SAPS   C13 9349   2.186   5.893   5.796  0.2096  0.3626 -0.0489
   95SAPS  O13A 9350   2.095   5.924   5.717  0.0385  0.0801 -0.2820
   95SAPS  O13B 9351   2.301   5.861   5.757 -0.0566 -0.0280  0.4138
   95SAPS   C11 9352   2.239   6.002   6.017  0.6619 -0.0904 -0.1824
   95SAPS  H11A 9353   2.217   6.086   5.948 -1.1151 -0.7608 -0.4781
   95SAPS  H11B 9354   2.345   5.968   6.019  0.2832 -1.2457  1.1420
   95SAPS     P 9355   2.243   6.183   6.211  0.1150  0.4720 -0.1142
   95SAPS   O13 9356   2.391   6.178   6.191  0.4298  0.1115 -0.3770
   95SAPS   O14 9357   2.165   6.296   6.159 -0.2136  0.9879  0.0610
   95SAPS   O12 9358   2.190   6.053   6.141 -0.1384 -0.5993  0.5493
   95SAPS   O11 9359   2.203   6.170   6.359  0.2927 -0.3235  0.1453
   95SAPS    C1 9360   2.064   6.159   6.386 -0.3778 -0.2364  0.6641
   95SAPS    HA 9361   1.993   6.223   6.328 -1.1942  1.6312  3.5949
   95SAPS    HB 9362   2.028   6.055   6.370 -1.0694  0.1512 -0.3556
   95SAPS    C2 9363   2.036   6.211   6.530  0.5817 -0.2508 -0.2451
   95SAPS    HS 9364   2.068   6.317   6.519  0.0378 -0.2356 -1.6969
   95SAPS   O21 9365   2.112   6.141   6.624  0.2912  0.1275  0.2099
   95SAPS   C21 9366   2.189   6.209   6.705  0.8959 -0.7157  0.3231
   95SAPS   O22 9367   2.204   6.327   6.696 -0.2988  0.1281 -0.1831
   95SAPS   C22 9368   2.233   6.116   6.824  0.1635  0.0763  0.1818
   95SAPS   H2R 9369   2.152   6.061   6.877 -1.8752  3.2624  0.5680
   95SAPS   H2S 9370   2.303   6.045   6.776  1.4348  2.6648 -1.8825
   95SAPS    C3 9371   1.890   6.193   6.579 -0.1880  0.4505 -0.1377
   95SAPS    HX 9372   1.854   6.088   6.577 -5.2477  2.0448  0.2756
   95SAPS    HY 9373   1.834   6.260   6.510  2.3420  0.3284 -2.4017
   95SAPS   O31 9374   1.877   6.236   6.718 -0.4139 -0.0687  0.5396
   95SAPS   C31 9375   1.772   6.317   6.741 -0.1165 -0.0802  0.5143
   95SAPS   O32 9376   1.689   6.356   6.658  0.2090  0.0570  0.0393
   95SAPS   C32 9377   1.779   6.358   6.887  0.0840  0.0451 -0.1512
   95SAPS   H2X 9378   1.766   6.468   6.893  0.9576  0.0542  2.0627
   95SAPS   H2Y 9379   1.880   6.341   6.930  1.1352  3.2057 -1.2371
   95SAPS   C23 9380   2.318   6.187   6.939  0.3957 -0.0603  0.9728
   95SAPS   H3R 9381   2.263   6.270   6.989  0.3096 -0.7544  2.0602
   95SAPS   H3S 9382   2.406   6.238   6.896 -0.8020  1.0721 -0.1999
   95SAPS   C24 9383   2.367   6.082   7.046 -0.0888 -0.5348 -0.3100
   95SAPS   H4R 9384   2.398   5.990   6.992  4.3680 -1.6266  3.8203
   95SAPS   H4S 9385   2.276   6.052   7.102 -2.3875  2.5079 -2.2114
   95SAPS   C25 9386   2.474   6.138   7.131 -0.6299  0.0382 -0.4263
   95SAPS   H5R 9387   2.553   6.182   7.068  0.2546 -0.2170  0.4902
   95SAPS   C26 9388   2.483   6.148   7.267  0.4057  0.2500 -0.1261
   95SAPS   H6R 9389   2.574   6.187   7.315 -1.3306  1.8532  1.9536
   95SAPS   C27 9390   2.373   6.103   7.362  0.5828 -0.5993 -0.1147
   95SAPS   H7R 9391   2.425   6.032   7.430  0.6149  0.0592  0.5530
   95SAPS   H7S 9392   2.299   6.039   7.310  0.0846 -0.8333  0.8596
   95SAPS   C28 9393   2.312   6.217   7.438 -0.4889 -0.0655  0.2921
   95SAPS   H8R 9394   2.237   6.276   7.384 -0.1032  0.1438 -0.0083
   95SAPS   C29 9395   2.336   6.258   7.565  0.6861  0.4358  0.2549
   95SAPS   H9R 9396   2.283   6.345   7.606  0.7505 -0.3228  1.9602
   95SAPS  C210 9397   2.434   6.174   7.653  0.1800  0.2621 -0.1374
   95SAPS  H10R 9398   2.537   6.158   7.615  0.6174  0.9877  0.7240
   95SAPS  H10S 9399   2.399   6.068   7.651 -1.9773  0.9548 -0.4765
   95SAPS  C211 9400   2.448   6.227   7.794  0.0349  0.2218  0.8088
   95SAPS  H11R 9401   2.537   6.289   7.813  0.7487 -0.3566 -0.5522
   95SAPS  C212 9402   2.372   6.180   7.893  0.3015  0.1202 -0.3042
   95SAPS  H12R 9403   2.399   6.215   7.994 -0.8085 -0.7010  0.2836
   95SAPS  C213 9404   2.257   6.076   7.895  0.7161  0.6831 -0.4132
   95SAPS  H13R 9405   2.245   6.023   7.798  1.0138  0.2902 -0.2410
   95SAPS  H13S 9406   2.163   6.134   7.892 -0.2077 -0.6350  1.7048
   95SAPS  C214 9407   2.267   5.970   8.008  0.2065  0.0440  0.1168
   95SAPS  H14R 9408   2.352   5.902   7.994  2.2294  2.1676  1.6133
   95SAPS  C215 9409   2.189   5.944   8.118  0.3669  0.7333 -0.9606
   95SAPS  H15R 9410   2.216   5.870   8.195  2.7487  2.5002 -0.0480
   95SAPS  C216 9411   2.070   6.027   8.162 -0.1157  0.3347 -0.4870
   95SAPS  H16R 9412   1.979   5.965   8.177  0.2388 -0.1794 -0.4390
   95SAPS  H16S 9413   2.040   6.105   8.089 -0.8599  2.5550  2.0894
   95SAPS  C217 9414   2.085   6.113   8.284  0.0539 -0.2780  0.7882
   95SAPS  H17R 9415   1.983   6.154   8.301  1.6873  4.0629  1.0045
   95SAPS  H17S 9416   2.146   6.202   8.257 -0.3530 -0.5025 -0.9317
   95SAPS  C218 9417   2.129   6.051   8.414 -0.0691  0.6671 -0.0573
   95SAPS  H18R 9418   2.119   6.124   8.497 -0.9589  0.6618 -0.1538
   95SAPS  H18S 9419   2.233   6.013   8.417 -0.7838 -1.3241  0.3130
   95SAPS  C219 9420   2.039   5.932   8.458  0.1081 -0.9412  0.7640
   95SAPS  H19R 9421   2.013   5.874   8.367 -1.0645 -2.0305  1.7735
   95SAPS  H19S 9422   1.957   5.982   8.514 -1.1525 -2.5876  0.4137
   95SAPS  C220 9423   2.116   5.827   8.537  0.6472  0.5992  0.2225
   95SAPS  H20R 9424   2.194   5.771   8.481 -0.1819  2.0472 -2.4516
   95SAPS  H20S 9425   2.045   5.747   8.569 -0.5239  0.5444 -2.3985
   95SAPS  H20T 9426   2.165   5.873   8.625 -0.6907 -0.5281  1.5953
   95SAPS   C33 9427   1.683   6.275   6.984 -0.4564 -0.0171  1.3394
   95SAPS   H3X 9428   1.696   6.165   6.978 -2.2101 -0.1163 -1.4966
   95SAPS   H3Y 9429   1.580   6.297   6.949  0.9054  3.0465 -0.9347
   95SAPS   C34 9430   1.709   6.321   7.125  0.1306  0.3511  0.1842
   95SAPS   H4X 9431   1.687   6.429   7.135 -0.2154  0.4930 -1.8321
   95SAPS   H4Y 9432   1.806   6.315   7.178  0.3780  0.6848 -0.2282
   95SAPS   C35 9433   1.615   6.255   7.231 -0.2932  0.0507 -0.1315
   95SAPS   H5X 9434   1.595   6.146   7.223 -2.1711  0.2173  1.6773
   95SAPS   H5Y 9435   1.511   6.288   7.209  0.1062  1.2863 -0.1835
   95SAPS   C36 9436   1.642   6.294   7.378 -0.9105  0.5598  0.5798
   95SAPS   H6X 9437   1.654   6.402   7.403  0.1825  0.3978  0.7776
   95SAPS   H6Y 9438   1.735   6.242   7.409 -0.3904  0.0655 -1.7125
   95SAPS   C37 9439   1.531   6.252   7.471  1.0974 -0.3176 -0.2978
   95SAPS   H7X 9440   1.545   6.142   7.471  0.2881 -0.4188 -1.5759
   95SAPS   H7Y 9441   1.436   6.276   7.420  0.2409  0.5146  1.6396
   95SAPS   C38 9442   1.539   6.313   7.606  0.5857 -0.1080 -1.1475
   95SAPS   H8X 9443   1.531   6.423   7.589  0.8759  0.1163  0.1299
   95SAPS   H8Y 9444   1.637   6.279   7.646 -0.2562 -1.4755 -0.2175
   95SAPS   C39 9445   1.432   6.263   7.697  0.1767 -0.2151  0.4574
   95SAPS   H9X 9446   1.444   6.155   7.718 -1.8860 -0.3777  0.8871
   95SAPS   H9Y 9447   1.332   6.283   7.652  0.8907 -4.6525 -3.5289
   95SAPS  C310 9448   1.429   6.325   7.835 -0.7727  0.3927 -0.3029
   95SAPS  H10X 9449   1.442   6.436   7.836 -0.9787  0.4160  2.4986
   95SAPS  H10Y 9450   1.511   6.281   7.895 -0.0761 -0.3854 -1.8029
   95SAPS  C311 9451   1.300   6.284   7.899  0.2776  0.3522  0.0515
   95SAPS  H11X 9452   1.303   6.175   7.881  0.3851  0.3227  0.2424
   95SAPS  H11Y 9453   1.213   6.316   7.837  2.1639  0.4393 -2.6036
   95SAPS  C312 9454   1.307   6.323   8.047  0.5332  0.7120 -0.1095
   95SAPS  H12X 9455   1.292   6.432   8.056  2.3065  1.1208 -1.7047
   95SAPS  H12Y 9456   1.407   6.300   8.087 -0.2477 -3.4836 -0.2913
   95SAPS  C313 9457   1.192   6.247   8.119 -0.3618 -0.5103 -0.7759
   95SAPS  H13X 9458   1.178   6.140   8.090 -1.0344 -0.6468  0.0419
   95SAPS  H13Y 9459   1.092   6.277   8.083  0.0656  3.9628  1.4369
   95SAPS  C314 9460   1.192   6.259   8.272  0.5187  0.0296  0.5630
   95SAPS  H14X 9461   1.154   6.359   8.301  1.2078  0.5286 -0.2337
   95SAPS  H14Y 9462   1.296   6.234   8.301 -0.2587 -1.5840  2.0879
   95SAPS  C315 9463   1.090   6.151   8.329 -1.1664 -0.1446 -0.7781
   95SAPS  H15X 9464   1.121   6.047   8.304 -3.1679 -0.9454 -0.0230
   95SAPS  H15Y 9465   0.995   6.158   8.271 -1.9867 -2.3219  0.2381
   95SAPS  C316 9466   1.064   6.160   8.481 -0.3047 -0.4197 -0.2919
   95SAPS  H16X 9467   1.159   6.162   8.539  0.2288 -0.3931 -1.1642
   95SAPS  H16Y 9468   1.004   6.071   8.508  1.0606 -0.9732  0.9803
   95SAPS  C317 9469   1.002   6.299   8.524  0.0580  0.0070 -0.1646
   95SAPS  H17X 9470   0.904   6.303   8.473 -0.1752 -2.5788  0.0145
   95SAPS  H17Y 9471   1.058   6.391   8.495 -1.6152  2.0957  2.8614
   95SAPS  C318 9472   0.978   6.302   8.671 -1.1226 -0.3646 -0.6760
   95SAPS  H18X 9473   1.056   6.348   8.735 -0.1465 -1.6393 -0.9465
   95SAPS  H18Y 9474   0.961   6.202   8.718 -0.2399  2.0930  5.4292
   95SAPS  H18Z 9475   0.886   6.361   8.694 -0.9193 -1.1848  2.5774
   96SAPS     N 9476   3.076   1.295   6.389 -0.6101  0.2099 -0.0607
   96SAPS   HN1 9477   3.162   1.352   6.375 -1.0424  1.4789  2.1865
   96SAPS   HN2 9478   3.061   1.299   6.491 -1.1984  0.0187 -0.1376
   96SAPS   HN3 9479   3.096   1.193   6.380  2.1632  0.4151  2.7424
   96SAPS   C12 9480   2.959   1.337   6.308 -0.4381 -0.7731 -1.2683
   96SAPS  H12A 9481   2.951   1.444   6.323  0.5459 -1.4333  4.7729
   96SAPS   C13 9482   2.984   1.333   6.158  1.1623 -0.0951 -0.4714
   96SAPS  O13A 9483   3.085   1.281   6.118 -0.1027 -0.3948  0.4342
   96SAPS  O13B 9484   2.897   1.371   6.077 -0.0938  0.2174  0.4431
   96SAPS   C11 9485   2.835   1.246   6.344  0.2316 -1.0377 -0.0594
   96SAPS  H11A 9486   2.750   1.294   6.292 -1.5746 -1.3426  2.5105
   96SAPS  H11B 9487   2.806   1.257   6.450  0.5349 -3.2909  0.3017
   96SAPS     P 9488   2.737   1.010   6.326  0.2024 -0.0753  0.4080
   96SAPS   O13 9489   2.643   1.028   6.211 -0.0098  0.1586 -0.1957
   96SAPS   O14 9490   2.795   0.875   6.333 -0.6057  0.2289 -0.1363
   96SAPS   O12 9491   2.863   1.107   6.304  0.6276 -0.4490  0.1063
   96SAPS   O11 9492   2.676   1.050   6.461  0.5934  0.2418 -0.2986
   96SAPS    C1 9493   2.751   1.030   6.580 -0.3979  1.2198 -0.6136
   96SAPS    HA 9494   2.861   1.041   6.569 -0.2514 -1.8719 -3.0675
   96SAPS    HB 9495   2.709   1.113   6.640 -0.5168  1.9330 -1.6644
   96SAPS    C2 9496   2.699   0.899   6.653  0.1514 -0.4988 -0.1953
   96SAPS    HS 9497   2.738   0.815   6.591  1.1317 -0.6041  0.5526
   96SAPS   O21 9498   2.560   0.915   6.678  0.0142  0.5376 -0.1151
   96SAPS   C21 9499   2.482   0.806   6.683 -0.7952 -0.3219 -0.0404
   96SAPS   O22 9500   2.514   0.697   6.639  0.3468  0.0677  0.1949
   96SAPS   C22 9501   2.352   0.834   6.749  0.0197 -0.6012  1.2697
   96SAPS   H2R 9502   2.356   0.933   6.800  0.3089 -0.3331  0.7235
   96SAPS   H2S 9503   2.270   0.825   6.675  0.0894 -1.6153  1.3068
   96SAPS    C3 9504   2.775   0.880   6.786  0.6714  0.3042 -0.2008
   96SAPS    HX 9505   2.776   0.968   6.854  0.3169  0.9000 -0.9605
   96SAPS    HY 9506   2.882   0.867   6.759  1.4883 -0.3230  3.0886
   96SAPS   O31 9507   2.715   0.759   6.849  0.4531 -0.4543  0.2121
   96SAPS   C31 9508   2.782   0.649   6.851  0.1132 -0.5620 -0.3522
   96SAPS   O32 9509   2.889   0.625   6.796  0.8165 -0.2266  0.4377
   96SAPS   C32 9510   2.715   0.547   6.948 -0.3776  0.4964 -0.4550
   96SAPS   H2X 9511   2.734   0.445   6.908 -0.5660 -0.7931  2.6363
   96SAPS   H2Y 9512   2.605   0.565   6.953 -0.2574  1.4523 -1.1817
   96SAPS   C23 9513   2.323   0.725   6.859 -0.4277  0.4058 -0.1828
   96SAPS   H3R 9514   2.358   0.628   6.819 -1.2844 -0.4322  1.0770
   96SAPS   H3S 9515   2.212   0.719   6.866 -0.2951 -2.0984  0.1971
   96SAPS   C24 9516   2.402   0.754   6.989 -0.0613 -0.0915  0.1321
   96SAPS   H4R 9517   2.394   0.860   7.022  0.4683 -0.6650  2.1778
   96SAPS   H4S 9518   2.510   0.738   6.969 -0.2214  2.1090 -2.8783
   96SAPS   C25 9519   2.345   0.672   7.103  0.3559 -0.1925  0.8944
   96SAPS   H5R 9520   2.371   0.566   7.088 -2.0517 -0.5412 -1.1068
   96SAPS   C26 9521   2.280   0.731   7.206  0.3542 -0.3687 -0.0185
   96SAPS   H6R 9522   2.257   0.671   7.296  2.2596 -1.8425 -0.4621
   96SAPS   C27 9523   2.254   0.881   7.230  0.0316 -0.3346 -0.2077
   96SAPS   H7R 9524   2.244   0.931   7.131  0.2357  0.2627  0.0697
   96SAPS   H7S 9525   2.343   0.929   7.276 -1.1364  0.1922  1.5809
   96SAPS   C28 9526   2.131   0.926   7.317  0.0507  0.2740  0.1919
   96SAPS   H8R 9527   2.044   0.959   7.259  1.9112  3.4728 -0.9306
   96SAPS   C29 9528   2.126   0.924   7.450  0.2655 -0.3923  0.3679
   96SAPS   H9R 9529   2.028   0.952   7.492  0.1960  0.4171 -0.3311
   96SAPS  C210 9530   2.225   0.875   7.554  0.0156 -0.3758  0.0845
   96SAPS  H10R 9531   2.303   0.812   7.506 -0.6670 -1.4555  0.3719
   96SAPS  H10S 9532   2.168   0.812   7.625  1.8269 -1.0234  1.0044
   96SAPS  C211 9533   2.293   0.996   7.621 -0.5493  0.3154 -0.5043
   96SAPS  H11R 9534   2.352   1.056   7.550  0.5325 -0.9266 -0.6799
   96SAPS  C212 9535   2.276   1.034   7.748 -0.9544  0.0340  0.1333
   96SAPS  H12R 9536   2.347   1.114   7.773  0.0647 -1.1045  0.9182
   96SAPS  C213 9537   2.198   0.974   7.862  0.3258 -0.1370 -0.1216
   96SAPS  H13R 9538   2.260   0.902   7.921 -1.1476 -0.6924  0.7912
   96SAPS  H13S 9539   2.111   0.916   7.824 -1.4764  1.1635  1.8703
   96SAPS  C214 9540   2.150   1.088   7.951  0.5466  0.3839  0.4695
   96SAPS  H14R 9541   2.088   1.161   7.898 -1.9603 -1.2035  1.1540
   96SAPS  C215 9542   2.174   1.106   8.078  0.2426  0.5239 -0.6054
   96SAPS  H15R 9543   2.132   1.197   8.122 -0.4358  0.2275 -0.6398
   96SAPS  C216 9544   2.242   1.017   8.178  0.1679 -0.2051 -0.5248
   96SAPS  H16R 9545   2.326   1.073   8.225 -1.7258  0.1809  2.5588
   96SAPS  H16S 9546   2.292   0.926   8.138  0.4944  0.7461 -2.3447
   96SAPS  C217 9547   2.146   0.985   8.289  0.1016  0.1686 -0.7168
   96SAPS  H17R 9548   2.065   0.924   8.244  0.2185 -0.6129  0.1063
   96SAPS  H17S 9549   2.098   1.082   8.315 -0.1694  0.3233 -1.8063
   96SAPS  C218 9550   2.204   0.915   8.417 -0.0256 -0.2624 -0.2427
   96SAPS  H18R 9551   2.286   0.974   8.464 -1.0547  1.3710 -0.4339
   96SAPS  H18S 9552   2.242   0.814   8.390 -0.8291 -0.7125  0.2933
   96SAPS  C219 9553   2.085   0.883   8.518 -0.3490  0.2070 -0.1460
   96SAPS  H19R 9554   2.041   0.788   8.483 -1.9966  1.4753 -1.6092
   96SAPS  H19S 9555   2.014   0.966   8.495 -0.5093 -0.3424 -1.6325
   96SAPS  C220 9556   2.133   0.900   8.660  0.3107 -0.1308  0.7449
   96SAPS  H20R 9557   2.167   1.005   8.678 -1.2581  0.5238 -0.0178
   96SAPS  H20S 9558   2.214   0.827   8.683 -0.5819 -1.0920  0.8635
   96SAPS  H20T 9559   2.051   0.900   8.735 -0.1143 -1.9027  0.2943
   96SAPS   C33 9560   2.775   0.565   7.086 -0.8381 -0.3623 -0.2211
   96SAPS   H3X 9561   2.885   0.569   7.079 -0.9848 -0.4855 -3.1464
   96SAPS   H3Y 9562   2.765   0.466   7.137  0.0918 -0.9435 -1.1529
   96SAPS   C34 9563   2.723   0.686   7.164 -0.3980  0.2066 -0.0267
   96SAPS   H4X 9564   2.613   0.684   7.174 -0.3541  0.0695  0.4369
   96SAPS   H4Y 9565   2.770   0.779   7.125  0.8342 -0.6731 -0.7146
   96SAPS   C35 9566   2.744   0.657   7.319 -0.3957 -0.2158 -0.1683
   96SAPS   H5X 9567   2.852   0.653   7.346 -0.7834  2.2817  2.0163
   96SAPS   H5Y 9568   2.712   0.553   7.337  0.3443 -0.5476 -0.7226
   96SAPS   C36 9569   2.679   0.761   7.402 -0.3672 -0.9269 -1.6099
   96SAPS   H6X 9570   2.570   0.747   7.387 -0.0493 -3.7275 -1.5892
   96SAPS   H6Y 9571   2.726   0.857   7.371  0.0228 -1.0408 -1.3738
   96SAPS   C37 9572   2.719   0.738   7.549  0.2449  0.7865 -0.1944
   96SAPS   H7X 9573   2.830   0.749   7.555  0.2819 -0.8205  2.7954
   96SAPS   H7Y 9574   2.694   0.632   7.570 -0.3799  0.9297 -0.2122
   96SAPS   C38 9575   2.661   0.827   7.659 -0.1293  0.6217  0.0194
   96SAPS   H8X 9576   2.550   0.829   7.659 -0.1580 -0.1241 -2.0967
   96SAPS   H8Y 9577   2.695   0.929   7.631 -0.0725  0.7778  0.6515
   96SAPS   C39 9578   2.718   0.803   7.798  0.6608  0.0474  0.0034
   96SAPS   H9X 9579   2.828   0.799   7.787  0.5170  0.3983 -1.7500
   96SAPS   H9Y 9580   2.692   0.700   7.832 -0.5596 -0.0318 -1.1389
   96SAPS  C310 9581   2.671   0.908   7.892 -0.0314 -0.9025  0.0887
   96SAPS  H10X 9582   2.563   0.931   7.876  0.0224 -0.4720  0.3479
   96SAPS  H10Y 9583   2.727   1.000   7.864  0.4090 -0.8493  1.1036
   96SAPS  C311 9584   2.687   0.876   8.038  0.3124 -0.3640  0.7979
   96SAPS  H11X 9585   2.789   0.840   8.062  0.8270 -0.8049 -1.9007
   96SAPS  H11Y 9586   2.618   0.790   8.051 -0.3097  0.3837  2.6406
   96SAPS  C312 9587   2.645   0.992   8.124 -0.1453  0.2673 -0.1622
   96SAPS  H12X 9588   2.546   1.030   8.092  0.6000  0.1885 -2.6975
   96SAPS  H12Y 9589   2.722   1.070   8.111 -0.2700  0.1292 -1.8870
   96SAPS  C313 9590   2.636   0.962   8.275 -0.3810 -0.5558 -0.1184
   96SAPS  H13X 9591   2.733   0.923   8.314  0.2596 -1.1141 -2.2293
   96SAPS  H13Y 9592   2.563   0.880   8.293 -0.1524 -0.3818  1.6897
   96SAPS  C314 9593   2.610   1.087   8.373  1.4194  0.5478  0.6597
   96SAPS  H14X 9594   2.500   1.094   8.387  1.3068  1.4433 -0.5889
   96SAPS  H14Y 9595   2.643   1.183   8.329 -0.3668 -0.2021 -2.4910
   96SAPS  C315 9596   2.686   1.075   8.504  0.0185 -0.0292  0.3817
   96SAPS  H15X 9597   2.784   1.036   8.469 -1.0992 -2.0929 -0.5670
   96SAPS  H15Y 9598   2.642   0.998   8.571  0.3410 -2.1575 -1.7996
   96SAPS  C316 9599   2.687   1.207   8.588  0.5424  0.1271  0.1770
   96SAPS  H16X 9600   2.590   1.218   8.641  0.4670  2.5219 -0.3710
   96SAPS  H16Y 9601   2.690   1.292   8.516 -0.7887 -1.3977 -1.7295
   96SAPS  C317 9602   2.804   1.235   8.690  0.1913 -0.3700  0.4128
   96SAPS  H17X 9603   2.907   1.236   8.649  0.5068  0.7983  1.1966
   96SAPS  H17Y 9604   2.801   1.155   8.767 -1.7266  0.4991  1.2800
   96SAPS  C318 9605   2.774   1.370   8.769 -0.8715 -0.0349 -0.0450
   96SAPS  H18X 9606   2.680   1.360   8.826  0.2163  0.2159  1.8547
   96SAPS  H18Y 9607   2.779   1.464   8.710 -0.9886  0.8055  1.2640
   96SAPS  H18Z 9608   2.853   1.387   8.846  0.4160  3.3168 -1.9541
   97SAPS     N 9609   4.798   5.962   6.068  0.2585 -0.1148  0.1882
   97SAPS   HN1 9610   4.786   5.867   6.028  0.1835  0.3909 -1.0173
   97SAPS   HN2 9611   4.837   6.030   5.999  0.9240  1.7704  2.3433
   97SAPS   HN3 9612   4.877   5.948   6.135  0.6518  0.1016 -0.2288
   97SAPS   C12 9613   4.670   6.001   6.134 -0.4031 -0.5696 -0.3971
   97SAPS  H12A 9614   4.678   6.005   6.241  2.5665  0.5890 -0.6193
   97SAPS   C13 9615   4.621   6.141   6.110  0.1627 -1.1924 -0.1871
   97SAPS  O13A 9616   4.695   6.221   6.051 -0.4580  0.6744  0.7427
   97SAPS  O13B 9617   4.496   6.171   6.121 -0.3618  0.5080  0.6358
   97SAPS   C11 9618   4.567   5.891   6.101 -0.0395 -0.5461 -0.1866
   97SAPS  H11A 9619   4.557   5.881   5.991  0.6785  0.2984 -0.3373
   97SAPS  H11B 9620   4.465   5.916   6.137  0.6669  0.9708  0.8248
   97SAPS     P 9621   4.516   5.657   6.213 -0.0035  0.1318  0.4407
   97SAPS   O13 9622   4.395   5.646   6.138  0.2012 -0.1674 -0.1912
   97SAPS   O14 9623   4.601   5.541   6.224 -0.1672  0.1563 -0.5314
   97SAPS   O12 9624   4.610   5.769   6.154 -0.0482  0.6737 -0.1423
   97SAPS   O11 9625   4.488   5.708   6.357  0.5509 -0.1049 -0.1655
   97SAPS    C1 9626   4.491   5.629   6.478  0.4526  0.6520 -0.1479
   97SAPS    HA 9627   4.469   5.520   6.470  0.2134  0.6849  0.0871
   97SAPS    HB 9628   4.597   5.636   6.510  0.4574  1.9731 -0.4504
   97SAPS    C2 9629   4.392   5.688   6.583  0.9627  0.4837  0.3093
   97SAPS    HS 9630   4.426   5.791   6.604 -4.6907  2.6957 -0.5181
   97SAPS   O21 9631   4.372   5.599   6.697 -0.1410  0.0060 -0.6772
   97SAPS   C21 9632   4.457   5.606   6.801 -0.1855 -0.1127 -0.9538
   97SAPS   O22 9633   4.549   5.682   6.816  0.3012  0.2766  0.4381
   97SAPS   C22 9634   4.422   5.501   6.908  0.3480 -0.2326 -0.1880
   97SAPS   H2R 9635   4.402   5.556   7.003  0.8500  0.5672 -0.5368
   97SAPS   H2S 9636   4.335   5.438   6.880 -0.0202  0.2236 -0.0715
   97SAPS    C3 9637   4.255   5.711   6.512 -0.1758 -0.6256  0.7808
   97SAPS    HX 9638   4.234   5.607   6.481 -0.1324 -1.1803  2.5829
   97SAPS    HY 9639   4.266   5.784   6.429 -1.2286  1.5123  2.4740
   97SAPS   O31 9640   4.159   5.740   6.620 -0.2908 -0.2328  0.0109
   97SAPS   C31 9641   4.107   5.856   6.619  0.1583 -0.3788 -0.4755
   97SAPS   O32 9642   4.130   5.949   6.540 -0.1089 -0.3608 -0.1232
   97SAPS   C32 9643   3.993   5.857   6.728 -0.5748  0.3875 -0.4357
   97SAPS   H2X 9644   3.910   5.788   6.702  0.0100 -0.5814  0.2182
   97SAPS   H2Y 9645   3.960   5.962   6.715  0.9651  1.2975  2.6721
   97SAPS   C23 9646   4.541   5.413   6.948  0.0040 -0.2347 -0.5633
   97SAPS   H3R 9647   4.625   5.418   6.875  1.0296 -3.2531  0.3055
   97SAPS   H3S 9648   4.517   5.304   6.951  2.4700 -0.7746  2.0431
   97SAPS   C24 9649   4.595   5.439   7.095 -0.1374  0.4758  0.2867
   97SAPS   H4R 9650   4.671   5.359   7.111  2.4308  2.6291 -0.8050
   97SAPS   H4S 9651   4.509   5.431   7.165 -0.7393 -0.8541 -0.5901
   97SAPS   C25 9652   4.656   5.569   7.113 -0.4361  0.1228  0.3742
   97SAPS   H5R 9653   4.725   5.605   7.035 -1.5793 -0.8218 -1.1006
   97SAPS   C26 9654   4.640   5.647   7.219 -0.0333 -0.2455  0.3612
   97SAPS   H6R 9655   4.698   5.740   7.221  2.0621 -1.4821 -0.7715
   97SAPS   C27 9656   4.556   5.632   7.336 -0.1885  0.0712  0.0719
   97SAPS   H7R 9657   4.473   5.565   7.305 -0.0248  0.1398 -0.5165
   97SAPS   H7S 9658   4.501   5.727   7.348 -0.6764  0.0696 -1.9455
   97SAPS   C28 9659   4.621   5.577   7.458 -0.1211 -0.1606  0.5893
   97SAPS   H8R 9660   4.731   5.574   7.452 -0.0919  3.3655 -2.3726
   97SAPS   C29 9661   4.555   5.548   7.570 -0.9659 -0.0882 -0.1559
   97SAPS   H9R 9662   4.616   5.517   7.657  1.4876  1.5076 -1.2593
   97SAPS  C210 9663   4.407   5.568   7.598 -0.0474 -0.1249 -0.2596
   97SAPS  H10R 9664   4.381   5.489   7.672 -0.7330 -0.2738 -0.6553
   97SAPS  H10S 9665   4.349   5.543   7.507 -1.0859 -3.5280  1.2816
   97SAPS  C211 9666   4.369   5.703   7.647  0.8643 -0.0882 -0.4474
   97SAPS  H11R 9667   4.305   5.769   7.586 -0.4036  1.8101  2.8049
   97SAPS  C212 9668   4.406   5.757   7.766 -0.2129 -0.7767 -0.4089
   97SAPS  H12R 9669   4.376   5.858   7.797 -0.2814 -1.5150  2.0046
   97SAPS  C213 9670   4.480   5.695   7.876 -0.1038  0.5412  0.5725
   97SAPS  H13R 9671   4.571   5.756   7.899  0.2960 -0.4481  1.6861
   97SAPS  H13S 9672   4.511   5.591   7.851 -1.3142  0.1713  0.6097
   97SAPS  C214 9673   4.390   5.690   7.996  0.5402  0.6686 -0.5945
   97SAPS  H14R 9674   4.291   5.648   7.973  0.5516  0.4424 -0.2344
   97SAPS  C215 9675   4.407   5.727   8.124  0.8568  0.2445 -0.1850
   97SAPS  H15R 9676   4.327   5.720   8.199  0.7433 -2.0718 -0.4887
   97SAPS  C216 9677   4.547   5.777   8.171 -0.3363  0.3141 -0.0503
   97SAPS  H16R 9678   4.602   5.811   8.081  0.3741 -2.6702 -0.8070
   97SAPS  H16S 9679   4.612   5.696   8.209  0.7520  0.9934 -0.4579
   97SAPS  C217 9680   4.552   5.884   8.280  0.3825  0.0441 -0.3920
   97SAPS  H17R 9681   4.508   5.975   8.233 -1.5373  0.0802  1.4328
   97SAPS  H17S 9682   4.658   5.913   8.293  0.8274 -1.6260 -0.1962
   97SAPS  C218 9683   4.490   5.859   8.413  0.1556  0.3259  0.0923
   97SAPS  H18R 9684   4.520   5.754   8.434  2.5273  0.8920 -0.2288
   97SAPS  H18S 9685   4.380   5.867   8.410  0.1152 -0.7090 -2.3282
   97SAPS  C219 9686   4.546   5.951   8.516  0.2532 -0.7097 -0.8075
   97SAPS  H19R 9687   4.510   6.055   8.502  1.3475 -0.1327  0.6333
   97SAPS  H19S 9688   4.656   5.947   8.527 -0.0488 -2.5150  2.1612
   97SAPS  C220 9689   4.488   5.921   8.650  0.3734 -0.2820  0.3334
   97SAPS  H20R 9690   4.492   5.810   8.656  0.9363 -0.2208  1.2416
   97SAPS  H20S 9691   4.379   5.938   8.654  0.3139 -0.3526 -0.8584
   97SAPS  H20T 9692   4.528   5.969   8.742 -1.6048  2.2955 -0.0833
   97SAPS   C33 9693   4.043   5.850   6.874 -0.0916  0.2121  0.0171
   97SAPS   H3X 9694   3.963   5.892   6.938 -1.5893 -1.5345 -0.6747
   97SAPS   H3Y 9695   4.134   5.913   6.887 -0.0793 -0.2948  2.7209
   97SAPS   C34 9696   4.081   5.714   6.924  0.7139 -0.5389  0.1950
   97SAPS   H4X 9697   4.155   5.662   6.858  1.9759 -0.1588  1.2776
   97SAPS   H4Y 9698   3.989   5.656   6.904 -0.0346  0.2977  1.1981
   97SAPS   C35 9699   4.112   5.716   7.069 -0.3169  0.7563 -0.6043
   97SAPS   H5X 9700   4.030   5.771   7.119 -1.3290 -1.8004  0.6372
   97SAPS   H5Y 9701   4.211   5.760   7.095 -0.2530  0.6108 -0.5984
   97SAPS   C36 9702   4.106   5.580   7.142  0.6072  0.7145  0.3369
   97SAPS   H6X 9703   4.204   5.529   7.130  0.6559  0.8862  0.0017
   97SAPS   H6Y 9704   4.017   5.521   7.109 -0.0509  1.8417  0.0734
   97SAPS   C37 9705   4.086   5.585   7.297  0.0922  0.0907  0.1504
   97SAPS   H7X 9706   4.153   5.664   7.338 -0.3952  0.5590  0.0630
   97SAPS   H7Y 9707   4.110   5.489   7.346  2.1396  1.3782  1.7328
   97SAPS   C38 9708   3.939   5.606   7.341 -0.3442 -0.5695 -0.4033
   97SAPS   H8X 9709   3.866   5.544   7.285 -0.8549  1.2555 -1.7973
   97SAPS   H8Y 9710   3.902   5.710   7.325  1.7616  0.0548 -1.3442
   97SAPS   C39 9711   3.921   5.571   7.492 -0.4949  0.3032 -0.0140
   97SAPS   H9X 9712   3.978   5.478   7.511 -1.7415 -0.2687  1.0235
   97SAPS   H9Y 9713   3.815   5.547   7.515 -0.1214  0.3512  1.8333
   97SAPS  C310 9714   3.974   5.678   7.600  0.4208 -0.1683 -0.1355
   97SAPS  H10X 9715   3.908   5.767   7.597  0.1315 -0.3670  0.3035
   97SAPS  H10Y 9716   4.066   5.718   7.551  1.5465  1.4818  3.0830
   97SAPS  C311 9717   4.018   5.645   7.744  0.0697  0.6099 -0.4039
   97SAPS  H11X 9718   4.044   5.743   7.789  0.3442 -0.4323  1.7712
   97SAPS  H11Y 9719   4.116   5.596   7.727 -0.2103  0.2216 -0.9035
   97SAPS  C312 9720   3.925   5.559   7.828  0.2545 -0.0467  0.6587
   97SAPS  H12X 9721   3.906   5.469   7.765  0.1371  1.1704 -1.0720
   97SAPS  H12Y 9722   3.833   5.620   7.838 -1.0272 -1.9070  0.5992
   97SAPS  C313 9723   3.976   5.518   7.971 -0.2480 -0.1945  0.3832
   97SAPS  H13X 9724   4.069   5.459   7.958  0.3996  0.6782  1.0169
   97SAPS  H13Y 9725   3.894   5.452   8.006 -0.3768 -0.5959 -0.6488
   97SAPS  C314 9726   3.986   5.643   8.056  1.4476  0.0899  0.7529
   97SAPS  H14X 9727   3.907   5.718   8.039  1.4897 -0.1613 -0.5618
   97SAPS  H14Y 9728   4.082   5.696   8.038  0.2252  1.9586 -0.3054
   97SAPS  C315 9729   3.988   5.624   8.209 -0.1378 -0.2067 -0.0604
   97SAPS  H15X 9730   4.064   5.543   8.219 -0.4421 -0.5879 -0.8016
   97SAPS  H15Y 9731   3.886   5.589   8.237  0.0624 -0.3140  0.5484
   97SAPS  C316 9732   4.037   5.757   8.279 -0.1217 -0.1500  0.2273
   97SAPS  H16X 9733   3.949   5.820   8.253 -0.4482 -1.0882 -0.9982
   97SAPS  H16Y 9734   4.128   5.805   8.236 -1.4455  0.9065 -1.4500
   97SAPS  C317 9735   4.044   5.738   8.430 -0.1854 -0.3285  0.3783
   97SAPS  H17X 9736   4.131   5.670   8.434 -0.1840 -0.3219  0.4379
   97SAPS  H17Y 9737   3.956   5.682   8.468 -0.5733 -0.9131 -1.3020
   97SAPS  C318 9738   4.076   5.876   8.498  0.4774  0.2359  0.2264
   97SAPS  H18X 9739   4.149   5.930   8.433  3.2847 -0.6291  2.5401
   97SAPS  H18Y 9740   4.128   5.881   8.596  2.3125  1.7745 -0.7909
   97SAPS  H18Z 9741   3.991   5.946   8.505 -1.0855 -1.4606 -1.3453
   98SAPS     N 9742   1.400   6.256   5.856  0.2796 -0.1993  0.1625
   98SAPS   HN1 9743   1.366   6.354   5.866 -0.2616 -0.4599  0.9044
   98SAPS   HN2 9744   1.452   6.238   5.768 -0.7247 -2.2767 -0.0397
   98SAPS   HN3 9745   1.321   6.188   5.864  1.0097 -1.2139 -1.0291
   98SAPS   C12 9746   1.507   6.221   5.955  0.3182  0.0540  0.7463
   98SAPS  H12A 9747   1.542   6.121   5.933  0.5632  0.3605 -0.2477
   98SAPS   C13 9748   1.624   6.325   5.945 -0.1847  0.4083  0.1883
   98SAPS  O13A 9749   1.618   6.434   5.892  0.3896  0.0905  0.0395
   98SAPS  O13B 9750   1.718   6.311   6.025  0.4674 -0.3615  0.6661
   98SAPS   C11 9751   1.442   6.212   6.096 -0.3134  0.4947  1.0273
   98SAPS  H11A 9752   1.415   6.313   6.135 -0.7419  0.9051 -0.3054
   98SAPS  H11B 9753   1.519   6.168   6.163  1.8093  1.0241 -1.0196
   98SAPS     P 9754   1.299   5.989   6.169 -0.4920 -0.3566  0.7047
   98SAPS   O13 9755   1.189   5.913   6.106  0.1356  0.0374 -0.2490
   98SAPS   O14 9756   1.425   5.919   6.203 -0.6023 -0.1123  0.1761
   98SAPS   O12 9757   1.329   6.123   6.088 -0.5520  0.1804 -0.0222
   98SAPS   O11 9758   1.237   6.049   6.301  0.1959 -1.0595 -0.1659
   98SAPS    C1 9759   1.298   6.122   6.403 -0.0773 -0.1728 -0.3134
   98SAPS    HA 9760   1.403   6.153   6.383  0.3513 -0.4845  1.3484
   98SAPS    HB 9761   1.246   6.219   6.416 -0.1553  0.1057 -2.4884
   98SAPS    C2 9762   1.322   6.052   6.538 -0.1186 -0.4126 -0.5730
   98SAPS    HS 9763   1.368   5.956   6.508 -0.6414 -0.7046 -0.4542
   98SAPS   O21 9764   1.193   6.033   6.609 -0.7620  0.1321 -0.2870
   98SAPS   C21 9765   1.182   5.914   6.675 -1.0831  0.5185  0.1180
   98SAPS   O22 9766   1.254   5.818   6.661  0.2770  0.3340  0.0458
   98SAPS   C22 9767   1.062   5.918   6.771  0.5958 -0.3380 -0.0577
   98SAPS   H2R 9768   1.070   6.011   6.831  1.2217  0.3949 -1.2505
   98SAPS   H2S 9769   0.971   5.906   6.707  1.3662  2.3574 -1.7120
   98SAPS    C3 9770   1.429   6.130   6.622 -0.1386  0.9424 -0.6873
   98SAPS    HX 9771   1.374   6.222   6.653 -1.2662  0.7191 -1.9891
   98SAPS    HY 9772   1.512   6.166   6.557  1.5632  1.6542  1.8228
   98SAPS   O31 9773   1.476   6.050   6.739  0.1058 -0.0128  0.3484
   98SAPS   C31 9774   1.551   5.946   6.709  0.6569  0.3236 -0.1793
   98SAPS   O32 9775   1.601   5.925   6.602 -0.3514  0.4288  0.0950
   98SAPS   C32 9776   1.579   5.853   6.826  0.8203 -0.1267  0.4215
   98SAPS   H2X 9777   1.489   5.788   6.831  0.9162 -0.2321  0.8237
   98SAPS   H2Y 9778   1.576   5.911   6.921  0.3258 -0.2003  0.4531
   98SAPS   C23 9779   1.064   5.802   6.871  0.0563  0.0304 -0.2141
   98SAPS   H3R 9780   1.035   5.708   6.819 -1.3324  0.7856 -0.8306
   98SAPS   H3S 9781   0.983   5.828   6.943  0.9456  2.7492 -0.1320
   98SAPS   C24 9782   1.200   5.786   6.957  0.4872 -0.3119  0.2557
   98SAPS   H4R 9783   1.284   5.754   6.891  0.7386 -1.1225  0.9644
   98SAPS   H4S 9784   1.184   5.703   7.030 -0.7738  0.7270  1.1781
   98SAPS   C25 9785   1.244   5.911   7.021 -1.0679 -0.0657 -0.6119
   98SAPS   H5R 9786   1.197   6.006   6.991 -0.6192  0.2055 -0.4697
   98SAPS   C26 9787   1.337   5.912   7.118  0.4204 -0.0006 -0.4907
   98SAPS   H6R 9788   1.371   6.005   7.164 -0.8093  0.7585 -1.0954
   98SAPS   C27 9789   1.414   5.791   7.167  0.2664 -0.3375 -0.2485
   98SAPS   H7R 9790   1.447   5.737   7.076 -1.8478  1.5265 -2.1805
   98SAPS   H7S 9791   1.341   5.728   7.223  0.1687  1.1288  1.3241
   98SAPS   C28 9792   1.528   5.815   7.259 -0.5740 -0.4790  0.3340
   98SAPS   H8R 9793   1.626   5.816   7.210 -0.8940 -2.3612 -0.3741
   98SAPS   C29 9794   1.531   5.802   7.391  0.2583  0.1516 -0.5641
   98SAPS   H9R 9795   1.626   5.809   7.446 -0.0631  0.3893 -0.0353
   98SAPS  C210 9796   1.402   5.781   7.469 -0.1187  0.5856  0.8980
   98SAPS  H10R 9797   1.401   5.675   7.502 -2.0731  0.0398 -0.8391
   98SAPS  H10S 9798   1.307   5.796   7.414  0.1930 -0.1157  0.1558
   98SAPS  C211 9799   1.395   5.877   7.585  0.4531 -0.3074 -0.0480
   98SAPS  H11R 9800   1.448   5.974   7.585  1.3006 -0.7702 -0.7020
   98SAPS  C212 9801   1.341   5.861   7.709  0.5753 -0.0487 -0.3788
   98SAPS  H12R 9802   1.346   5.944   7.781 -1.8956 -0.9894  0.9667
   98SAPS  C213 9803   1.281   5.735   7.766 -0.3583  0.3806  0.3938
   98SAPS  H13R 9804   1.253   5.750   7.872 -0.1908 -1.8283  0.7817
   98SAPS  H13S 9805   1.360   5.657   7.765 -1.5216 -0.9118  3.2312
   98SAPS  C214 9806   1.163   5.665   7.696  1.2448 -0.3712  0.0386
   98SAPS  H14R 9807   1.178   5.639   7.590  1.3510  1.2363 -0.3408
   98SAPS  C215 9808   1.032   5.666   7.746 -0.5683  0.6534 -0.6012
   98SAPS  H15R 9809   0.963   5.603   7.688 -0.6480  0.4470 -0.2810
   98SAPS  C216 9810   0.995   5.719   7.885  0.8274 -0.4205  0.2337
   98SAPS  H16R 9811   0.885   5.734   7.878  0.9730  0.7119  0.3942
   98SAPS  H16S 9812   1.038   5.818   7.907  0.0521  0.7374 -3.1158
   98SAPS  C217 9813   1.015   5.619   8.006  0.3064 -0.0121  0.3616
   98SAPS  H17R 9814   1.115   5.571   8.003 -0.6280 -2.0298  0.3961
   98SAPS  H17S 9815   0.939   5.542   7.981 -0.4064  0.4269  1.1538
   98SAPS  C218 9816   0.983   5.680   8.139  0.7004  0.0604  0.0627
   98SAPS  H18R 9817   0.902   5.755   8.132  0.2448 -0.5053 -0.7773
   98SAPS  H18S 9818   1.071   5.741   8.167  0.0453  0.3552  1.5023
   98SAPS  C219 9819   0.966   5.588   8.266 -0.4970 -0.6706  0.4636
   98SAPS  H19R 9820   1.062   5.534   8.279 -0.6605 -1.0191  0.2492
   98SAPS  H19S 9821   0.897   5.504   8.241  0.3560 -0.7035 -1.9292
   98SAPS  C220 9822   0.923   5.656   8.392 -0.4468  0.0371 -0.5112
   98SAPS  H20R 9823   1.010   5.724   8.409  0.9274 -2.1077  1.2269
   98SAPS  H20S 9824   0.915   5.587   8.478  2.3805 -0.0032 -0.2386
   98SAPS  H20T 9825   0.831   5.717   8.381 -0.7097 -0.3703 -0.5728
   98SAPS   C33 9826   1.693   5.750   6.807 -0.1745 -0.7067 -0.4494
   98SAPS   H3X 9827   1.666   5.688   6.719 -1.6781 -0.4593 -0.1920
   98SAPS   H3Y 9828   1.704   5.685   6.896  0.0453 -2.3069 -1.6254
   98SAPS   C34 9829   1.835   5.811   6.796 -0.2087  0.4079 -0.2512
   98SAPS   H4X 9830   1.850   5.870   6.704 -1.2590  0.8977 -0.1121
   98SAPS   H4Y 9831   1.915   5.734   6.790  0.3027  0.9447 -0.3349
   98SAPS   C35 9832   1.868   5.914   6.906 -0.3721 -0.0706 -0.4685
   98SAPS   H5X 9833   1.800   6.001   6.914 -1.6416 -1.1064  0.2153
   98SAPS   H5Y 9834   1.965   5.959   6.877  0.6584 -1.0030  1.3870
   98SAPS   C36 9835   1.892   5.852   7.044  0.6728  0.4501 -0.5676
   98SAPS   H6X 9836   1.983   5.788   7.052  0.1102 -0.3078 -0.2287
   98SAPS   H6Y 9837   1.815   5.776   7.067  0.1149  0.4361 -2.4828
   98SAPS   C37 9838   1.883   5.966   7.149 -0.3071 -0.2707  0.0569
   98SAPS   H7X 9839   1.776   5.996   7.157 -0.5878 -0.9718 -1.0562
   98SAPS   H7Y 9840   1.943   6.052   7.114  1.2398 -1.2734  0.2289
   98SAPS   C38 9841   1.931   5.916   7.287 -0.2548 -0.2794 -0.0586
   98SAPS   H8X 9842   2.041   5.907   7.285 -0.2245  0.2912 -1.6293
   98SAPS   H8Y 9843   1.894   5.814   7.313  0.8953 -0.4681  0.8744
   98SAPS   C39 9844   1.917   6.006   7.412 -0.2017 -0.9003  0.3853
   98SAPS   H9X 9845   1.811   6.041   7.420 -0.2554 -1.0679  0.4060
   98SAPS   H9Y 9846   1.988   6.091   7.405  0.3523 -1.3832  0.0652
   98SAPS  C310 9847   1.959   5.927   7.537 -0.3275  0.0936  0.0316
   98SAPS  H10X 9848   2.067   5.910   7.520 -0.4755 -0.2033 -0.6161
   98SAPS  H10Y 9849   1.902   5.832   7.549  1.3923 -0.8460  0.8844
   98SAPS  C311 9850   1.947   6.009   7.664  0.3799  0.3189  0.4181
   98SAPS  H11X 9851   1.959   6.117   7.642 -1.8719  0.3123 -1.0433
   98SAPS  H11Y 9852   2.033   5.984   7.730 -0.4876  4.2668  3.2582
   98SAPS  C312 9853   1.817   5.980   7.741  0.5518  0.0345 -0.2501
   98SAPS  H12X 9854   1.803   5.872   7.762 -1.9746  0.8641  2.6882
   98SAPS  H12Y 9855   1.732   6.005   7.674 -1.5751 -1.0395  1.9780
   98SAPS  C313 9856   1.798   6.061   7.867  0.4177  0.3887  0.2134
   98SAPS  H13X 9857   1.760   6.162   7.839  0.5424 -0.1515 -1.9317
   98SAPS  H13Y 9858   1.896   6.078   7.916  1.3675 -2.4997 -0.6421
   98SAPS  C314 9859   1.714   5.989   7.966  0.9230  0.4412 -0.8073
   98SAPS  H14X 9860   1.757   5.891   7.995 -0.5956  0.3973  1.4028
   98SAPS  H14Y 9861   1.618   5.961   7.917  0.2483  0.6268  0.3912
   98SAPS  C315 9862   1.675   6.066   8.090 -0.1932  0.1292  0.1651
   98SAPS  H15X 9863   1.634   6.165   8.061  2.5267  1.3566  0.4355
   98SAPS  H15Y 9864   1.770   6.081   8.145  2.4714 -2.4591 -3.4414
   98SAPS  C316 9865   1.568   5.995   8.182  0.3844  0.1142  0.1076
   98SAPS  H16X 9866   1.529   6.078   8.246 -0.1583 -0.7064  0.8600
   98SAPS  H16Y 9867   1.619   5.916   8.241  1.5411  0.1002 -0.8879
   98SAPS  C317 9868   1.447   5.928   8.106 -0.3174  0.5174 -0.1010
   98SAPS  H17X 9869   1.476   5.857   8.026  0.3552  1.6170 -0.8501
   98SAPS  H17Y 9870   1.394   6.009   8.051 -1.4526  0.0357  0.2853
   98SAPS  C318 9871   1.355   5.851   8.208 -0.5994  0.1446 -0.2706
   98SAPS  H18X 9872   1.331   5.913   8.297  0.4812 -1.3173  1.0627
   98SAPS  H18Y 9873   1.418   5.770   8.251 -0.7949  0.7770  1.2626
   98SAPS  H18Z 9874   1.269   5.804   8.154 -1.6392 -0.9385  2.2262
   99SAPS     N 9875   1.552   3.670   6.111 -0.3678  0.5482  0.2091
   99SAPS   HN1 9876   1.524   3.666   6.011  2.4378 -2.6298 -0.5446
   99SAPS   HN2 9877   1.655   3.684   6.114 -0.3144  0.3345 -0.5040
   99SAPS   HN3 9878   1.527   3.579   6.156  1.6652 -0.1524 -0.0341
   99SAPS   C12 9879   1.485   3.786   6.179  0.0591 -0.9209  0.4460
   99SAPS  H12A 9880   1.485   3.773   6.286 -0.4552  0.2282  0.5894
   99SAPS   C13 9881   1.550   3.926   6.154  0.1076 -0.7026 -0.3088
   99SAPS  O13A 9882   1.638   3.939   6.064 -0.6296  0.1773  0.1598
   99SAPS  O13B 9883   1.489   4.026   6.197 -0.0672 -0.1600  0.0136
   99SAPS   C11 9884   1.335   3.787   6.138  0.1131  0.1340 -0.4440
   99SAPS  H11A 9885   1.307   3.807   6.033  0.2289 -2.9449 -1.0961
   99SAPS  H11B 9886   1.291   3.869   6.199 -0.4253  0.1907 -0.9071
   99SAPS     P 9887   1.113   3.642   6.149 -0.3573 -0.3232 -0.4330
   99SAPS   O13 9888   1.060   3.768   6.090  0.1847  0.3386 -0.0078
   99SAPS   O14 9889   1.087   3.509   6.091  0.2783 -0.0638 -0.2158
   99SAPS   O12 9890   1.272   3.668   6.175  0.4108  0.0473 -0.5355
   99SAPS   O11 9891   1.057   3.634   6.300 -0.1509  0.1866  0.2930
   99SAPS    C1 9892   1.119   3.554   6.402  0.9540 -0.2367  0.7842
   99SAPS    HA 9893   1.056   3.466   6.427 -1.4502  1.3896  0.6506
   99SAPS    HB 9894   1.216   3.511   6.370 -0.2768 -0.7149 -2.4880
   99SAPS    C2 9895   1.149   3.630   6.532 -0.0356 -0.2144 -0.9769
   99SAPS    HS 9896   1.212   3.574   6.605 -5.2505 -2.7431  1.8483
   99SAPS   O21 9897   1.024   3.666   6.602 -0.4997 -0.6002 -0.3966
   99SAPS   C21 9898   0.969   3.563   6.672 -0.4291 -0.1771  0.0285
   99SAPS   O22 9899   1.019   3.452   6.680  0.8072  0.3208 -0.6677
   99SAPS   C22 9900   0.847   3.620   6.747 -0.1505  0.6825 -0.0652
   99SAPS   H2R 9901   0.878   3.669   6.841 -0.1801  1.7252 -0.5910
   99SAPS   H2S 9902   0.795   3.698   6.687  0.6327 -0.3866 -2.2101
   99SAPS    C3 9903   1.235   3.767   6.515 -0.1000 -0.5549  0.1004
   99SAPS    HX 9904   1.159   3.843   6.486  0.6475  0.5871  1.0912
   99SAPS    HY 9905   1.298   3.772   6.424  0.4063 -0.1038  0.4683
   99SAPS   O31 9906   1.303   3.813   6.629  0.0464  0.0148 -0.1544
   99SAPS   C31 9907   1.422   3.766   6.654  0.8400  0.6775  0.0643
   99SAPS   O32 9908   1.477   3.674   6.599  0.1017  0.1731  0.3616
   99SAPS   C32 9909   1.485   3.847   6.768  0.4376 -0.5002 -0.6270
   99SAPS   H2X 9910   1.420   3.928   6.808  2.0652  0.2118  0.6395
   99SAPS   H2Y 9911   1.574   3.903   6.732  1.2208 -0.5745  1.1482
   99SAPS   C23 9912   0.735   3.514   6.763  0.1025  0.4344 -0.1401
   99SAPS   H3R 9913   0.727   3.452   6.671 -2.4276  0.3141  0.1299
   99SAPS   H3S 9914   0.644   3.573   6.788 -2.3583 -2.4830 -1.8008
   99SAPS   C24 9915   0.763   3.418   6.878 -0.3766 -0.5309  0.6626
   99SAPS   H4R 9916   0.794   3.479   6.966 -1.4537 -0.4988  1.0259
   99SAPS   H4S 9917   0.850   3.359   6.843  0.5103  0.9851  0.2981
   99SAPS   C25 9918   0.646   3.324   6.907 -0.5283 -0.5020  0.1895
   99SAPS   H5R 9919   0.625   3.262   6.819  2.9506 -1.8353  0.2222
   99SAPS   C26 9920   0.574   3.318   7.017 -0.2134  0.0400  0.0310
   99SAPS   H6R 9921   0.496   3.240   7.023  1.1390 -1.2068  2.1638
   99SAPS   C27 9922   0.593   3.405   7.141 -0.3695  0.6263 -0.7165
   99SAPS   H7R 9923   0.601   3.511   7.108  1.8874  0.1272 -1.8458
   99SAPS   H7S 9924   0.682   3.370   7.197  0.0063  0.6078 -1.3289
   99SAPS   C28 9925   0.461   3.407   7.220 -0.5664  0.2820  0.1688
   99SAPS   H8R 9926   0.375   3.405   7.151 -1.1181  0.3680  0.8441
   99SAPS   C29 9927   0.443   3.429   7.354 -0.2119  0.6019 -0.8905
   99SAPS   H9R 9928   0.342   3.421   7.394  0.3373  2.1347  0.8326
   99SAPS  C210 9929   0.559   3.443   7.453  0.2601  0.0298 -0.6666
   99SAPS  H10R 9930   0.660   3.449   7.407  0.6162  0.5806  0.1696
   99SAPS  H10S 9931   0.561   3.347   7.509 -3.3779  0.0266 -0.4231
   99SAPS  C211 9932   0.555   3.558   7.549 -0.2002 -0.3257  0.2198
   99SAPS  H11R 9933   0.613   3.647   7.518 -0.7825  0.0876  0.2993
   99SAPS  C212 9934   0.478   3.561   7.662 -0.3687  0.1724 -0.7041
   99SAPS  H12R 9935   0.466   3.660   7.710 -0.6725 -0.9149  1.5364
   99SAPS  C213 9936   0.377   3.453   7.698  0.5121  0.4360 -0.6254
   99SAPS  H13R 9937   0.415   3.355   7.663 -0.0982  0.0419 -0.1735
   99SAPS  H13S 9938   0.292   3.468   7.627  0.5160 -0.2724 -0.7776
   99SAPS  C214 9939   0.333   3.457   7.838  0.4516  0.3868  0.2142
   99SAPS  H14R 9940   0.238   3.511   7.853  0.2937  0.0637  0.3858
   99SAPS  C215 9941   0.393   3.409   7.948 -0.0674  0.1530  0.0353
   99SAPS  H15R 9942   0.340   3.416   8.044 -2.9531 -0.3380 -1.4592
   99SAPS  C216 9943   0.521   3.334   7.958  0.6373 -0.0338  0.3919
   99SAPS  H16R 9944   0.598   3.383   8.022  1.8550 -1.7654  0.2720
   99SAPS  H16S 9945   0.561   3.331   7.854 -1.9826 -2.4197 -0.6087
   99SAPS  C217 9946   0.524   3.195   8.013  0.5389 -0.4414 -0.2245
   99SAPS  H17R 9947   0.467   3.137   7.937 -1.9511  1.5456  0.0780
   99SAPS  H17S 9948   0.466   3.185   8.108  1.1922  2.4044  0.5213
   99SAPS  C218 9949   0.668   3.135   8.024 -0.0596  0.2032  0.6130
   99SAPS  H18R 9950   0.740   3.198   8.081  2.0442 -1.1290 -0.5179
   99SAPS  H18S 9951   0.696   3.130   7.917 -0.8231 -0.1777  0.4251
   99SAPS  C219 9952   0.672   2.988   8.070  0.3087  0.0081  0.0153
   99SAPS  H19R 9953   0.774   2.943   8.062  0.6194  0.7446 -0.2584
   99SAPS  H19S 9954   0.599   2.922   8.018  1.7137  0.1238 -2.1852
   99SAPS  C220 9955   0.630   2.978   8.216  0.1168  0.5600  0.0323
   99SAPS  H20R 9956   0.681   3.058   8.274  0.1921 -0.3847  1.2685
   99SAPS  H20S 9957   0.658   2.876   8.250 -1.4078 -0.1909 -0.9141
   99SAPS  H20T 9958   0.522   2.999   8.230 -0.2727 -1.0815 -0.3866
   99SAPS   C33 9959   1.529   3.756   6.891 -0.2621  0.2139  0.7525
   99SAPS   H3X 9960   1.601   3.678   6.859 -2.1446 -0.4978 -1.8309
   99SAPS   H3Y 9961   1.441   3.700   6.928 -1.4741  2.1094  0.8299
   99SAPS   C34 9962   1.594   3.830   6.999  0.4188 -0.4525 -0.0788
   99SAPS   H4X 9963   1.522   3.912   7.017 -1.4414 -2.4021  1.5334
   99SAPS   H4Y 9964   1.692   3.867   6.963 -0.4113 -0.0474 -2.0283
   99SAPS   C35 9965   1.617   3.740   7.128  0.2767  0.0508 -0.7376
   99SAPS   H5X 9966   1.533   3.675   7.163  0.1661  0.6752  0.1910
   99SAPS   H5Y 9967   1.628   3.814   7.210 -1.2228  0.1023 -0.5600
   99SAPS   C36 9968   1.738   3.649   7.093 -0.3991  0.6499 -0.1256
   99SAPS   H6X 9969   1.823   3.704   7.047 -0.2542 -1.2442 -2.2128
   99SAPS   H6Y 9970   1.709   3.565   7.025  1.7397 -1.4516  1.4668
   99SAPS   C37 9971   1.785   3.581   7.222  0.5294  0.1588 -0.5720
   99SAPS   H7X 9972   1.796   3.649   7.309 -1.1618 -2.2349  1.5733
   99SAPS   H7Y 9973   1.887   3.538   7.208  1.2893  2.1026 -1.1387
   99SAPS   C38 9974   1.695   3.463   7.271 -0.3983 -0.4027  0.1408
   99SAPS   H8X 9975   1.707   3.372   7.209 -0.2540 -0.6580  0.5430
   99SAPS   H8Y 9976   1.587   3.490   7.276 -0.8188 -1.3849 -2.7432
   99SAPS   C39 9977   1.749   3.411   7.408  0.6153  0.4845 -0.3915
   99SAPS   H9X 9978   1.840   3.469   7.435  1.1092 -1.4053  2.3255
   99SAPS   H9Y 9979   1.781   3.305   7.402  0.5128  0.4492 -0.3105
   99SAPS  C310 9980   1.649   3.433   7.525  0.3273  0.8778  0.0521
   99SAPS  H10X 9981   1.556   3.374   7.511 -0.1116  1.5369  0.1615
   99SAPS  H10Y 9982   1.626   3.542   7.529  0.1985  0.8056  1.2654
   99SAPS  C311 9983   1.700   3.362   7.658 -0.1216  0.6687 -0.0244
   99SAPS  H11X 9984   1.796   3.406   7.691 -0.9924  1.1031  1.9916
   99SAPS  H11Y 9985   1.713   3.253   7.637 -2.2123  0.2364  0.7578
   99SAPS  C312 9986   1.606   3.370   7.781 -0.6778  0.1507 -0.5278
   99SAPS  H12X 9987   1.507   3.334   7.744 -2.5393 -0.7474  4.8593
   99SAPS  H12Y 9988   1.610   3.480   7.800 -0.6515  0.0165  0.2452
   99SAPS  C313 9989   1.652   3.291   7.905  0.4212  0.4383  1.1815
   99SAPS  H13X 9990   1.750   3.335   7.933  0.3073 -0.1937  2.5765
   99SAPS  H13Y 9991   1.671   3.185   7.878 -0.1166  0.7689 -0.5887
   99SAPS  C314 9992   1.554   3.297   8.027 -0.5069 -0.2056  0.0667
   99SAPS  H14X 9993   1.458   3.259   7.985 -0.3326  0.4451 -0.9261
   99SAPS  H14Y 9994   1.534   3.403   8.051  0.9085  0.5027 -1.8383
   99SAPS  C315 9995   1.605   3.229   8.152 -0.1902 -1.2709 -0.8988
   99SAPS  H15X 9996   1.616   3.120   8.131 -0.8243 -1.8617  1.6165
   99SAPS  H15Y 9997   1.526   3.229   8.230 -1.2334 -0.1343 -1.9473
   99SAPS  C316 9998   1.739   3.287   8.214  0.7085  0.5561 -0.7438
   99SAPS  H16X 9999   1.717   3.393   8.241 -0.5402  0.0767  0.1627
   99SAPS  H16Y10000   1.816   3.291   8.134  0.7427 -0.6627 -0.7668
   99SAPS  C31710001   1.798   3.197   8.323  0.1658  0.0348  0.6761
   99SAPS  H17X10002   1.814   3.094   8.283 -2.6735 -0.4209  0.5889
   99SAPS  H17Y10003   1.720   3.183   8.401  0.7307 -0.8027  1.0980
   99SAPS  C31810004   1.920   3.250   8.390 -0.7144 -0.2210  0.3036
   99SAPS  H18X10005   1.935   3.193   8.485  2.3544 -3.2441 -1.8753
   99SAPS  H18Y10006   1.904   3.356   8.418 -1.0887  0.3926 -2.1667
   99SAPS  H18Z10007   2.014   3.242   8.331 -0.8386  0.5703 -0.0116
  100SAPS     N10008   4.631   5.310   6.117  0.3856  0.2355 -0.5199
  100SAPS   HN110009   4.729   5.314   6.085  0.7979 -0.1841  0.6915
  100SAPS   HN210010   4.613   5.399   6.168  2.7849 -0.2986  1.2770
  100SAPS   HN310011   4.631   5.225   6.177  1.6853  1.2169  0.8987
  100SAPS   C1210012   4.551   5.296   5.994  0.1629  0.0646  0.1058
  100SAPS  H12A10013   4.561   5.378   5.924 -2.4386  0.8480  0.6225
  100SAPS   C1310014   4.589   5.169   5.916 -0.4661 -0.0014 -0.0968
  100SAPS  O13A10015   4.683   5.097   5.956 -0.4696  0.2003 -0.0770
  100SAPS  O13B10016   4.524   5.133   5.812 -0.1113  0.0242 -0.7659
  100SAPS   C1110017   4.398   5.304   6.035 -0.3147 -0.0266  0.3251
  100SAPS  H11A10018   4.343   5.305   5.939 -1.9514 -0.7820  1.2342
  100SAPS  H11B10019   4.395   5.403   6.085 -0.3915  1.7526 -3.0433
  100SAPS     P10020   4.268   5.205   6.233 -0.3356  0.2328 -0.1446
  100SAPS   O1310021   4.157   5.295   6.194  0.7565 -0.3794 -0.0301
  100SAPS   O1410022   4.235   5.072   6.280 -0.1437  0.0104  0.1776
  100SAPS   O1210023   4.356   5.186   6.106  0.2238 -0.2974  0.2072
  100SAPS   O1110024   4.366   5.291   6.322  0.0796  0.2070  0.1683
  100SAPS    C110025   4.456   5.239   6.416 -0.3291 -0.4910  0.5498
  100SAPS    HA10026   4.503   5.147   6.375 -1.2537 -0.9916  0.6051
  100SAPS    HB10027   4.539   5.309   6.439 -1.2141  0.2378  1.5511
  100SAPS    C210028   4.385   5.193   6.550  0.2255  0.2338  0.0977
  100SAPS    HS10029   4.327   5.104   6.516 -2.1323  2.5456 -2.1092
  100SAPS   O2110030   4.295   5.290   6.605 -0.0651 -0.8743  0.7007
  100SAPS   C2110031   4.171   5.247   6.634 -0.3274 -0.2206  0.2389
  100SAPS   O2210032   4.134   5.130   6.629  0.5228 -1.0793  0.5074
  100SAPS   C2210033   4.094   5.363   6.703  0.3722 -1.0673 -0.0477
  100SAPS   H2R10034   4.169   5.399   6.777  1.2134 -1.7435 -0.5617
  100SAPS   H2S10035   4.091   5.431   6.615 -2.2651 -0.1900  0.6825
  100SAPS    C310036   4.486   5.144   6.660  0.4081  0.3029  0.1996
  100SAPS    HX10037   4.555   5.230   6.678 -0.6053  1.1726  0.0087
  100SAPS    HY10038   4.545   5.055   6.630 -0.0113  0.1950 -0.3210
  100SAPS   O3110039   4.413   5.114   6.778  0.6204  0.7795  0.0284
  100SAPS   C3110040   4.361   4.993   6.793 -0.6659 -1.0153 -0.7387
  100SAPS   O3210041   4.375   4.902   6.716 -0.0603 -0.2438 -0.4776
  100SAPS   C3210042   4.284   4.982   6.926 -0.2352 -0.3184 -0.0390
  100SAPS   H2X10043   4.238   5.077   6.960 -0.5904 -0.8896  1.1067
  100SAPS   H2Y10044   4.363   4.979   7.003  0.4799  1.6957 -0.6729
  100SAPS   C2310045   3.964   5.320   6.750  0.4475  0.2881  0.2854
  100SAPS   H3R10046   3.908   5.264   6.673  1.6150  1.0886 -1.1901
  100SAPS   H3S10047   3.913   5.415   6.779 -0.0081 -0.2183  1.1546
  100SAPS   C2410048   3.970   5.231   6.879 -1.3497 -0.4091 -0.2446
  100SAPS   H4R10049   4.045   5.277   6.948 -1.0501  2.5956 -2.4868
  100SAPS   H4S10050   3.993   5.129   6.841  0.8001 -0.4523  1.0726
  100SAPS   C2510051   3.843   5.207   6.950 -0.5892 -0.1680  0.6746
  100SAPS   H5R10052   3.749   5.202   6.893 -1.6462 -0.7780  2.4233
  100SAPS   C2610053   3.835   5.196   7.078  0.0300  0.1983  0.1740
  100SAPS   H6R10054   3.737   5.169   7.120  0.0849 -1.9996 -1.0488
  100SAPS   C2710055   3.941   5.204   7.189  0.1858 -0.1392  0.1493
  100SAPS   H7R10056   3.970   5.310   7.202  2.8193 -0.8481  0.5227
  100SAPS   H7S10057   4.035   5.162   7.147  0.9809  1.2190  0.5572
  100SAPS   C2810058   3.901   5.135   7.315  0.0477 -0.6144 -0.9812
  100SAPS   H8R10059   3.809   5.075   7.324  0.7598 -1.7061 -0.9752
  100SAPS   C2910060   3.974   5.148   7.428  0.5203 -0.0452 -0.0156
  100SAPS   H9R10061   3.933   5.100   7.518 -1.3034  0.8358 -0.3636
  100SAPS  C21010062   4.106   5.218   7.434 -0.8453 -0.1511  0.0501
  100SAPS  H10R10063   4.093   5.309   7.497 -2.4532  2.0455 -3.3257
  100SAPS  H10S10064   4.147   5.241   7.334 -0.7572  0.3772  0.2062
  100SAPS  C21110065   4.208   5.136   7.508 -1.2543 -0.0893  0.5839
  100SAPS  H11R10066   4.266   5.069   7.442  3.0642  0.9563  3.1217
  100SAPS  C21210067   4.246   5.134   7.631 -0.3546  0.0260 -0.2960
  100SAPS  H12R10068   4.335   5.082   7.668 -1.1130 -0.5753  0.7122
  100SAPS  C21310069   4.183   5.204   7.751 -0.7682 -0.1131  0.9444
  100SAPS  H13R10070   4.112   5.283   7.721  1.1219  0.9524 -0.8053
  100SAPS  H13S10071   4.270   5.250   7.803  1.7630 -4.9828  1.2976
  100SAPS  C21410072   4.119   5.105   7.847 -0.1400 -0.3526 -0.5585
  100SAPS  H14R10073   4.061   5.030   7.790 -1.8740  0.2095  0.4485
  100SAPS  C21510074   4.146   5.082   7.980 -0.0509 -0.3682 -0.4425
  100SAPS  H15R10075   4.096   4.994   8.023  0.2539 -1.4361 -2.1974
  100SAPS  C21610076   4.245   5.169   8.051  0.5781  0.4649  0.0791
  100SAPS  H16R10077   4.270   5.261   7.994 -1.6942  0.8796 -0.2651
  100SAPS  H16S10078   4.336   5.113   8.082  0.5880  0.3278 -0.1963
  100SAPS  C21710079   4.186   5.216   8.186 -0.7739  0.1564 -0.9870
  100SAPS  H17R10080   4.161   5.129   8.251  2.9052  1.7173  2.7634
  100SAPS  H17S10081   4.093   5.267   8.154 -2.0780 -0.5909  1.5232
  100SAPS  C21810082   4.280   5.308   8.270 -0.6046  0.3833 -0.0061
  100SAPS  H18R10083   4.301   5.404   8.218  0.4003  0.9129  1.3415
  100SAPS  H18S10084   4.374   5.251   8.282 -0.8231  0.1776  0.7760
  100SAPS  C21910085   4.220   5.345   8.403  0.1973  0.0093 -0.7015
  100SAPS  H19R10086   4.221   5.248   8.458  3.0046  0.0471 -0.6492
  100SAPS  H19S10087   4.116   5.384   8.402  0.8143  1.6835 -0.1719
  100SAPS  C22010088   4.307   5.434   8.496  0.1538  0.0811 -0.1053
  100SAPS  H20R10089   4.343   5.522   8.438  1.6075 -0.2249  0.3188
  100SAPS  H20S10090   4.405   5.385   8.515  1.0207  0.7416 -2.5654
  100SAPS  H20T10091   4.249   5.473   8.582  0.8425  1.5853 -0.3022
  100SAPS   C3310092   4.188   4.861   6.934 -0.3978  0.1645 -0.0142
  100SAPS   H3X10093   4.252   4.775   6.960 -1.3621 -0.7547 -0.6166
  100SAPS   H3Y10094   4.142   4.839   6.835 -3.2689  0.5122  1.1934
  100SAPS   C3410095   4.066   4.879   7.022  0.4193  0.2302 -0.2868
  100SAPS   H4X10096   4.006   4.786   7.011  0.6965 -0.0761  0.7776
  100SAPS   H4Y10097   4.002   4.961   6.983  0.6087  1.3623  1.7328
  100SAPS   C3510098   4.105   4.889   7.169 -0.2115  0.3833 -0.3971
  100SAPS   H5X10099   4.017   4.904   7.234 -1.5216 -0.4990 -1.9539
  100SAPS   H5Y10100   4.169   4.979   7.187  0.6163 -0.2244 -0.2744
  100SAPS   C3610101   4.177   4.767   7.229  0.2038 -0.6086 -0.4566
  100SAPS   H6X10102   4.267   4.752   7.167  0.0430  0.7504 -1.0397
  100SAPS   H6Y10103   4.100   4.689   7.213 -0.8799  0.7863 -2.2178
  100SAPS   C3710104   4.214   4.791   7.371 -0.6625  0.5466 -0.1978
  100SAPS   H7X10105   4.125   4.822   7.430 -0.4283  2.3314 -0.7724
  100SAPS   H7Y10106   4.288   4.873   7.378  0.5741 -0.5781  0.2127
  100SAPS   C3810107   4.278   4.662   7.434 -0.4019 -0.4051  0.7108
  100SAPS   H8X10108   4.351   4.624   7.359 -2.8621 -1.0541 -1.4422
  100SAPS   H8Y10109   4.197   4.587   7.449 -1.5217  0.6136 -0.1309
  100SAPS   C3910110   4.339   4.691   7.576 -0.4165  0.9565  0.2140
  100SAPS   H9X10111   4.427   4.758   7.566 -1.7130  2.4150 -1.8439
  100SAPS   H9Y10112   4.369   4.590   7.611 -1.3289  1.0644  1.3590
  100SAPS  C31010113   4.240   4.753   7.670 -0.7083  0.3533  0.0119
  100SAPS  H10X10114   4.140   4.711   7.645 -0.7046 -0.4970  1.3608
  100SAPS  H10Y10115   4.233   4.862   7.649 -3.9063  0.3210  0.5627
  100SAPS  C31110116   4.257   4.725   7.823 -0.3762  0.1678  0.7868
  100SAPS  H11X10117   4.227   4.621   7.849 -0.3401  0.2340  1.1019
  100SAPS  H11Y10118   4.183   4.787   7.880  0.4666  2.5150 -0.6012
  100SAPS  C31210119   4.400   4.769   7.866 -1.0740 -0.0849 -0.5544
  100SAPS  H12X10120   4.411   4.879   7.855  0.2708 -0.2023 -0.4978
  100SAPS  H12Y10121   4.478   4.726   7.800 -0.8037 -1.3381  0.5521
  100SAPS  C31310122   4.442   4.737   8.013 -0.0520 -0.3804  0.5286
  100SAPS  H13X10123   4.530   4.802   8.033  0.0288 -0.0598 -0.8063
  100SAPS  H13Y10124   4.479   4.632   8.011  0.8242 -0.0725 -0.8468
  100SAPS  C31410125   4.338   4.756   8.114  0.3898 -0.0425 -0.2019
  100SAPS  H14X10126   4.251   4.689   8.097  0.7490 -0.6790  0.4739
  100SAPS  H14Y10127   4.296   4.858   8.105  0.4632  0.1203  1.2462
  100SAPS  C31510128   4.381   4.716   8.251 -0.0347  0.2627  0.0165
  100SAPS  H15X10129   4.460   4.783   8.291 -1.2818  0.3950  2.3784
  100SAPS  H15Y10130   4.416   4.610   8.252  0.2012  0.3404  0.0158
  100SAPS  C31610131   4.268   4.745   8.345  0.7213  0.3693  0.1978
  100SAPS  H16X10132   4.186   4.671   8.330  1.9968 -1.1302  0.4826
  100SAPS  H16Y10133   4.209   4.837   8.325  0.8469  0.3420 -0.3145
  100SAPS  C31710134   4.305   4.735   8.493  0.2050  0.3219 -0.3160
  100SAPS  H17X10135   4.397   4.790   8.522  1.1533 -0.7832 -1.1606
  100SAPS  H17Y10136   4.338   4.632   8.519 -0.7113 -0.0968 -0.8000
  100SAPS  C31810137   4.183   4.775   8.582 -0.2046  0.0103 -0.2560
  100SAPS  H18X10138   4.135   4.870   8.547 -1.0028  0.4158  1.8717
  100SAPS  H18Y10139   4.201   4.787   8.691  0.3884  0.3384 -0.3887
  100SAPS  H18Z10140   4.105   4.699   8.563 -1.6819  1.6278 -0.8146
  101OSM      N10141   2.604   5.224  11.196 -0.1155  0.1186 -0.6880
  101OSM    C1510142   2.659   5.179  11.322  0.0456  0.0903 -0.5208
  101OSM   H15A10143   2.612   5.089  11.359 -3.2329  0.5196 -3.4504
  101OSM   H15B10144   2.661   5.247  11.406  1.5807  0.6574 -0.9899
  101OSM   H15C10145   2.765   5.163  11.308  0.1717  1.4601 -1.2085
  101OSM    C1410146   2.450   5.234  11.208  0.4730  0.2061  0.1814
  101OSM   H14A10147   2.418   5.138  11.245  0.8423  0.6320  1.6231
  101OSM   H14B10148   2.411   5.261  11.111  1.6432 -0.2154 -0.4118
  101OSM   H14C10149   2.427   5.315  11.275  0.4064 -1.7612  2.5976
  101OSM    C1310150   2.659   5.366  11.180 -0.8593  0.1316 -1.0141
  101OSM   H13A10151   2.767   5.358  11.173 -0.9007 -2.3738  0.6930
  101OSM   H13B10152   2.631   5.427  11.265  2.5780 -0.8717  0.9606
  101OSM   H13C10153   2.617   5.415  11.094  0.0098 -0.7150 -1.9377
  101OSM    C1210154   2.646   5.140  11.078  0.2490  0.2606 -0.4959
  101OSM   H12A10155   2.590   5.048  11.085 -1.8545  1.5434  0.2317
  101OSM   H12B10156   2.748   5.105  11.078 -0.2396 -1.2748 -2.3323
  101OSM    C1110157   2.623   5.200  10.938 -0.6622  0.2640 -0.2706
  101OSM   H11A10158   2.651   5.125  10.860 -0.4808  0.5935 -0.5289
  101OSM   H11B10159   2.696   5.283  10.927 -1.2290  0.6973 -0.7746
  101OSM      P10160   2.451   5.374  10.841  0.0297  0.0378 -0.1112
  101OSM    O1310161   2.307   5.376  10.824 -0.0083 -0.4842 -0.2850
  101OSM    O1410162   2.512   5.489  10.915  0.0816 -0.1370 -0.1455
  101OSM    O1110163   2.532   5.340  10.704 -0.7498  0.0080 -0.1709
  101OSM    O1210164   2.486   5.240  10.915  0.1880  0.3561 -0.0777
  101OSM    C1S10165   2.475   5.388  10.584  0.4848 -0.3210  0.1045
  101OSM    H1S10166   2.465   5.499  10.580  1.0173 -0.2351  1.0718
  101OSM    H1T10167   2.370   5.350  10.578  1.2537 -2.4580 -0.3196
  101OSM     NF10168   2.468   5.346  10.343 -0.1273  0.1870 -0.1711
  101OSM    HNF10169   2.428   5.258  10.318  0.0245 -0.4212  1.6452
  101OSM    C2S10170   2.546   5.337  10.463  0.1764  1.4863 -0.3792
  101OSM    H2S10171   2.639   5.393  10.437  0.6874  2.4537  3.2402
  101OSM    C3S10172   2.602   5.190  10.485  0.2214  0.4331  0.3139
  101OSM    H3S10173   2.511   5.127  10.496  1.0585 -0.9844 -0.7007
  101OSM     O310174   2.672   5.160  10.606 -0.5744 -0.0096 -0.6209
  101OSM    HO310175   2.651   5.238  10.659 -3.0076 -0.1743 -1.2992
  101OSM    C4S10176   2.684   5.144  10.365 -0.4479  0.4260  0.5142
  101OSM    H4S10177   2.634   5.075  10.295 -2.0119  2.9425 -0.9586
  101OSM    C5S10178   2.808   5.166  10.341  0.2320 -0.0464  0.9700
  101OSM    H5S10179   2.862   5.230  10.412 -0.5670  1.9033 -0.1099
  101OSM    C6S10180   2.889   5.115  10.224  0.0609 -0.4178  0.9170
  101OSM    H6S10181   2.838   5.036  10.165 -1.5956  0.7848  0.7168
  101OSM    H6T10182   2.988   5.070  10.248  0.4656 -0.5970 -0.9508
  101OSM    C7S10183   2.930   5.236  10.134  0.1451 -0.2134  0.0897
  101OSM    H7S10184   2.986   5.195  10.047 -0.4830 -1.4115  0.2463
  101OSM    H7T10185   3.003   5.293  10.196  0.3482 -0.4793  0.0947
  101OSM    C8S10186   2.818   5.319  10.081  0.1610  0.3614 -0.7823
  101OSM    H8S10187   2.755   5.367  10.158  0.0392  0.1237 -0.7345
  101OSM    H8T10188   2.746   5.254  10.028 -0.1277  0.7164 -0.8243
  101OSM    C9S10189   2.859   5.422   9.972 -0.2321  0.6924  0.6441
  101OSM    H9S10190   2.920   5.498  10.026 -2.0218  2.8640 -0.3152
  101OSM    H9T10191   2.760   5.461   9.939 -0.4555  0.2097  0.7420
  101OSM   C10S10192   2.930   5.365   9.852  0.0108  0.4224 -0.3205
  101OSM   H10S10193   2.889   5.265   9.828 -1.3441  0.6071  1.1053
  101OSM   H10T10194   3.036   5.352   9.882 -0.7809 -0.5652  2.2047
  101OSM   C11S10195   2.915   5.459   9.737  0.7194  0.6901  0.1936
  101OSM   H11S10196   2.984   5.543   9.758  2.8230 -0.5553 -1.5552
  101OSM   H11T10197   2.807   5.486   9.733  0.3482 -0.5330  1.5824
  101OSM   C12S10198   2.939   5.392   9.606  0.5071 -0.7201 -0.1644
  101OSM   H12S10199   2.867   5.308   9.594  0.4260 -0.4214 -1.9852
  101OSM   H12T10200   3.046   5.361   9.613  0.6056 -0.0116  1.7000
  101OSM   C13S10201   2.928   5.484   9.483  0.0469  0.2560 -0.3113
  101OSM   H13S10202   2.979   5.581   9.497 -1.3523  0.9304  0.1864
  101OSM   H13T10203   2.822   5.517   9.473 -0.8532 -1.5959  2.3407
  101OSM   C14S10204   2.988   5.411   9.357 -0.2285 -0.7173  0.1702
  101OSM   H14S10205   2.952   5.305   9.355  2.6100 -1.7158  0.0770
  101OSM   H14T10206   3.097   5.403   9.374  0.0057  0.4632 -0.7649
  101OSM   C15S10207   2.964   5.486   9.226  0.5316 -0.1204  0.3946
  101OSM   H15S10208   3.020   5.440   9.142  1.9030  0.4719  0.9628
  101OSM   H15T10209   2.991   5.592   9.244  1.0356 -0.4717  1.8115
  101OSM   C16S10210   2.810   5.466   9.196 -0.4517  0.4241  0.0095
  101OSM   H16S10211   2.748   5.534   9.259 -0.4001  0.6545 -0.1864
  101OSM   H16T10212   2.788   5.361   9.224  0.4675  0.7998  2.2394
  101OSM   C17S10213   2.776   5.486   9.048 -0.8729 -0.0591 -0.4308
  101OSM   H17S10214   2.828   5.407   8.990  0.7294  1.7292 -1.5035
  101OSM   H17T10215   2.801   5.587   9.008  1.0239 -0.4831 -0.3618
  101OSM   C18S10216   2.626   5.460   9.015  0.2949  0.2588 -0.1572
  101OSM   H18S10217   2.621   5.349   9.010  1.0043  0.3050 -2.0834
  101OSM   H18T10218   2.606   5.508   8.917  1.8063  1.6991  0.2200
  101OSM   H18U10219   2.558   5.494   9.096  0.8494 -2.0980  1.3428
  101OSM    C1F10220   2.421   5.465  10.296 -0.1451  0.0864  0.1880
  101OSM     OF10221   2.451   5.573  10.352  0.3849 -0.8849  0.7917
  101OSM    C2F10222   2.325   5.455  10.181 -0.0088 -0.3111  0.1373
  101OSM    H2F10223   2.231   5.403  10.209 -0.7441 -0.4387 -2.4446
  101OSM    H2G10224   2.370   5.386  10.106 -1.7893 -3.0426  1.5207
  101OSM    C3F10225   2.284   5.589  10.129  0.1284 -0.1745  0.1425
  101OSM    H3F10226   2.370   5.657  10.107  0.8338 -1.4385 -1.1699
  101OSM    H3G10227   2.221   5.629  10.210 -1.4831 -0.4679 -0.9519
  101OSM    C4F10228   2.194   5.585   9.994 -0.9276  0.6480  0.3637
  101OSM    H4F10229   2.134   5.679   9.997  0.7629  1.8082 -1.1283
  101OSM    H4G10230   2.126   5.498   9.982 -0.5637  0.4043  0.0608
  101OSM    C5F10231   2.291   5.584   9.879 -0.2950  0.2171 -0.1221
  101OSM    H5F10232   2.369   5.506   9.886 -0.0111  0.3996 -1.0606
  101OSM    H5G10233   2.333   5.686   9.861 -0.9111  0.3286 -0.9966
  101OSM    C6F10234   2.215   5.533   9.753 -0.2975  0.1709  0.2060
  101OSM    H6F10235   2.134   5.607   9.740 -0.1021 -0.0356 -2.4515
  101OSM    H6G10236   2.169   5.436   9.785  0.3984 -0.4666 -0.7090
  101OSM    C7F10237   2.304   5.511   9.631 -0.5593  0.4940  0.6877
  101OSM    H7F10238   2.290   5.402   9.617 -3.3733  1.1470 -1.9765
  101OSM    H7G10239   2.412   5.519   9.655 -0.1841 -1.0713 -0.3610
  101OSM    C8F10240   2.252   5.596   9.505  0.4010 -0.4818  0.1266
  101OSM    H8F10241   2.325   5.577   9.424  2.6315  2.6666  1.3209
  101OSM    H8G10242   2.281   5.703   9.513 -0.5613 -0.1939 -0.1865
  101OSM    C9F10243   2.111   5.580   9.468  0.1317 -0.4503 -0.7181
  101OSM    H9F10244   2.035   5.619   9.537  0.5205 -0.6850 -0.1613
  101OSM   C10F10245   2.067   5.528   9.350  0.2534  0.5604  0.1898
  101OSM   H10F10246   1.959   5.519   9.331 -0.0284  2.5935  0.7100
  101OSM   C11F10247   2.160   5.487   9.239 -0.0657 -0.7215 -0.3817
  101OSM   H11F10248   2.120   5.406   9.174  0.1999 -1.2884  0.1593
  101OSM   H11G10249   2.258   5.448   9.275 -0.6172  0.5282  2.5675
  101OSM   C12F10250   2.217   5.597   9.149 -0.2244  0.8557 -0.6935
  101OSM   H12F10251   2.288   5.559   9.072  1.6707  1.1577  0.8680
  101OSM   H12G10252   2.289   5.658   9.208  2.3606 -0.6777 -2.1688
  101OSM   C13F10253   2.123   5.701   9.078  0.1607  0.2285  0.5990
  101OSM   H13F10254   2.045   5.728   9.152 -0.6637  0.3067 -0.2882
  101OSM   H13G10255   2.071   5.659   8.989  0.6315 -1.4568  1.0916
  101OSM   C14F10256   2.198   5.828   9.043 -0.0511 -0.7080  0.1815
  101OSM   H14F10257   2.234   5.812   8.939 -0.4959 -0.5562  0.0021
  101OSM   H14G10258   2.278   5.845   9.118  0.8288 -2.7035 -0.2735
  101OSM   C15F10259   2.099   5.945   9.027  0.2208 -0.0656 -1.2610
  101OSM   H15F10260   2.089   5.990   9.128 -3.2881  0.5703 -1.8314
  101OSM   H15G10261   2.005   5.894   8.995 -1.1412  1.7847 -0.3037
  101OSM   C16F10262   2.149   6.039   8.913  0.4783 -0.2693 -0.2240
  101OSM   H16F10263   2.171   5.982   8.820 -0.1905 -0.1923 -0.4298
  101OSM   H16G10264   2.251   6.062   8.951  0.8961  0.3541 -1.6917
  101OSM   C17F10265   2.066   6.168   8.897  0.3668  0.2086  0.2557
  101OSM   H17F10266   2.105   6.238   8.820 -0.0365 -0.5948 -0.6792
  101OSM   H17G10267   2.070   6.217   8.997  1.7990  0.8930 -0.1228
  101OSM   C18F10268   1.918   6.139   8.870 -0.6172 -0.0355 -0.0771
  101OSM   H18F10269   1.911   6.121   8.760  0.7534 -1.5576  0.0593
  101OSM   H18G10270   1.852   6.225   8.891 -0.3122  0.0541  0.5213
  101OSM   H18H10271   1.893   6.040   8.914  0.7575 -1.1905 -1.8264
  102OSM      N10272   2.165   5.039  10.802  0.2618 -0.7850  0.1370
  102OSM    C1510273   2.081   5.105  10.909  0.4612 -0.1299  0.2260
  102OSM   H15A10274   2.077   5.047  10.999  0.4473 -1.2525 -0.4859
  102OSM   H15B10275   1.977   5.108  10.883  0.7793 -0.4960 -1.1321
  102OSM   H15C10276   2.109   5.207  10.930 -0.7010  0.1966  0.2189
  102OSM    C1410277   2.096   4.913  10.758  0.3345  0.6283  0.4223
  102OSM   H14A10278   2.142   4.874  10.668 -3.1046  2.2527 -2.1804
  102OSM   H14B10279   1.992   4.926  10.730  0.3330  0.2086  0.2291
  102OSM   H14C10280   2.094   4.839  10.836  1.9774 -0.6223 -0.6897
  102OSM    C1310281   2.169   5.129  10.683 -0.4345 -0.5770  0.0501
  102OSM   H13A10282   2.092   5.204  10.672 -1.0039 -0.7235  2.8061
  102OSM   H13B10283   2.169   5.076  10.588  1.3851 -1.4773  0.5310
  102OSM   H13C10284   2.258   5.188  10.697 -1.2676  0.7956 -0.2868
  102OSM    C1210285   2.306   5.016  10.853  0.6285 -0.3750 -0.4234
  102OSM   H12A10286   2.301   4.961  10.946  2.9219  1.1024  0.6152
  102OSM   H12B10287   2.355   5.108  10.881  0.3902 -0.1094 -0.8840
  102OSM    C1110288   2.411   4.940  10.762 -0.1354  0.0025  0.2723
  102OSM   H11A10289   2.507   4.931  10.816 -0.3324 -0.2594  0.5751
  102OSM   H11B10290   2.435   5.005  10.675 -1.9004 -0.8455 -0.8771
  102OSM      P10291   2.424   4.669  10.750  0.0292  0.2042  0.0999
  102OSM    O1310292   2.552   4.650  10.676  0.1892  0.1146  0.2690
  102OSM    O1410293   2.428   4.658  10.898  0.1503 -0.0352 -0.7680
  102OSM    O1110294   2.324   4.556  10.692 -0.4002 -0.4957  0.5996
  102OSM    O1210295   2.366   4.811  10.724 -0.0513  0.5747  0.1910
  102OSM    C1S10296   2.215   4.603  10.603  0.1763  0.5574  0.6822
  102OSM    H1S10297   2.176   4.701  10.637 -0.1265  0.1966  1.3712
  102OSM    H1T10298   2.138   4.523  10.612 -0.5222  1.1801  0.2515
  102OSM     NF10299   2.138   4.672  10.393  0.2471 -0.2710  0.3547
  102OSM    HNF10300   2.069   4.604  10.370 -0.9934  1.0878 -0.0498
  102OSM    C2S10301   2.248   4.606  10.453 -0.4346  0.2063 -0.8399
  102OSM    H2S10302   2.337   4.672  10.446  0.7252 -0.9387  2.3634
  102OSM    C3S10303   2.276   4.475  10.391  0.5398 -0.1334  0.0126
  102OSM    H3S10304   2.186   4.413  10.413  0.7669  0.5582  3.1445
  102OSM     O310305   2.383   4.395  10.447 -0.2832  0.7031  0.4190
  102OSM    HO310306   2.408   4.439  10.528  0.4922 -1.8032  1.6049
  102OSM    C4S10307   2.288   4.494  10.233  0.4925 -0.1745  0.2315
  102OSM    H4S10308   2.202   4.455  10.176 -0.2418 -1.4569  2.1897
  102OSM    C5S10309   2.400   4.514  10.165 -0.0272  0.0931 -0.3298
  102OSM    H5S10310   2.494   4.520  10.222 -0.8259 -0.3045  1.0500
  102OSM    C6S10311   2.412   4.515  10.010 -0.0209  0.2137  0.0825
  102OSM    H6S10312   2.467   4.421   9.990  0.7046  0.0361  2.7051
  102OSM    H6T10313   2.483   4.592   9.973  0.2496  0.0424  0.2410
  102OSM    C7S10314   2.278   4.528   9.929  0.6996  0.8675 -0.6510
  102OSM    H7S10315   2.236   4.629   9.946  2.8057  1.3163  2.3408
  102OSM    H7T10316   2.205   4.452   9.964  1.2216  0.3030 -0.7898
  102OSM    C8S10317   2.285   4.521   9.777  0.2613  0.1384  0.4795
  102OSM    H8S10318   2.290   4.411   9.763 -1.3203  0.1563 -0.3886
  102OSM    H8T10319   2.379   4.569   9.742 -0.1750  1.0294  0.5161
  102OSM    C9S10320   2.166   4.586   9.703  0.0717 -0.3889  0.3235
  102OSM    H9S10321   2.174   4.695   9.719 -1.5829 -0.3092  0.6972
  102OSM    H9T10322   2.074   4.549   9.753  0.4156 -2.4637 -0.5298
  102OSM   C10S10323   2.175   4.545   9.559 -0.0278 -0.0399 -0.0420
  102OSM   H10S10324   2.154   4.437   9.543 -0.4729  0.1504 -0.7717
  102OSM   H10T10325   2.276   4.572   9.521  1.1845 -3.6724  0.3756
  102OSM   C11S10326   2.070   4.608   9.467 -0.4591 -0.0979 -0.8447
  102OSM   H11S10327   2.097   4.563   9.369  1.7957 -2.0777  0.6191
  102OSM   H11T10328   2.082   4.717   9.450  0.8529 -0.5569 -3.0122
  102OSM   C12S10329   1.923   4.579   9.508  0.6949 -0.0890  0.3704
  102OSM   H12S10330   1.920   4.637   9.602  0.7732  0.9248 -0.2421
  102OSM   H12T10331   1.900   4.471   9.520 -0.0645 -0.1329 -1.3343
  102OSM   C13S10332   1.811   4.634   9.410 -0.6645 -0.5091  0.1105
  102OSM   H13S10333   1.793   4.560   9.329  2.6902  2.4734 -3.5884
  102OSM   H13T10334   1.860   4.729   9.380 -1.7046  1.1005  3.3830
  102OSM   C14S10335   1.674   4.666   9.462  0.4288  0.1714  0.4971
  102OSM   H14S10336   1.673   4.763   9.515 -1.8511 -0.4638  1.6841
  102OSM   H14T10337   1.636   4.584   9.528 -1.2110  1.9844  1.8637
  102OSM   C15S10338   1.578   4.697   9.349  0.4769 -1.6886  0.6336
  102OSM   H15S10339   1.553   4.600   9.302 -3.3617 -0.1832 -0.6467
  102OSM   H15T10340   1.626   4.765   9.276 -0.7022 -1.4120  0.0926
  102OSM   C16S10341   1.437   4.751   9.391  0.3649  0.3055 -0.3173
  102OSM   H16S10342   1.465   4.844   9.444 -2.0527  0.6557  0.4273
  102OSM   H16T10343   1.382   4.690   9.467  2.7140 -0.6370  0.6769
  102OSM   C17S10344   1.351   4.787   9.275 -0.2486  0.2887  0.3476
  102OSM   H17S10345   1.390   4.870   9.212  2.3686 -0.4110  0.9917
  102OSM   H17T10346   1.254   4.810   9.325 -0.9919 -1.6910 -0.1094
  102OSM   C18S10347   1.322   4.666   9.190 -0.9519 -0.5418 -0.2270
  102OSM   H18S10348   1.404   4.649   9.117  1.3446  1.3542  1.8007
  102OSM   H18T10349   1.222   4.673   9.142 -0.3757 -0.9169 -1.4934
  102OSM   H18U10350   1.313   4.577   9.257 -2.9707 -2.5093 -3.0160
  102OSM    C1F10351   2.115   4.805  10.406  0.3947 -0.0680  0.1304
  102OSM     OF10352   2.198   4.891  10.433  0.0127  0.0666  0.0687
  102OSM    C2F10353   1.968   4.836  10.399 -0.0722  0.5282  0.2100
  102OSM    H2F10354   1.942   4.872  10.501 -1.3747 -0.1964  0.1376
  102OSM    H2G10355   1.912   4.742  10.381 -0.7111  1.1392 -1.0294
  102OSM    C3F10356   1.936   4.953  10.296 -0.0584  0.4964 -0.9565
  102OSM    H3F10357   1.974   4.931  10.194  0.7961 -0.3229 -0.4754
  102OSM    H3G10358   1.996   5.038  10.338  1.7780 -1.2750  0.1139
  102OSM    C4F10359   1.786   5.016  10.306 -0.5213 -0.2510  0.0324
  102OSM    H4F10360   1.769   5.018  10.416  0.1370  0.1520  0.1256
  102OSM    H4G10361   1.703   4.953  10.268 -0.1617 -1.7585  1.6539
  102OSM    C5F10362   1.791   5.159  10.253  0.6044 -0.4434 -0.3116
  102OSM    H5F10363   1.864   5.214  10.316  0.7575 -1.7142  0.6588
  102OSM    H5G10364   1.692   5.204  10.272  1.4047  1.6702 -1.0650
  102OSM    C6F10365   1.834   5.184  10.106 -0.2584 -0.1874  0.5504
  102OSM    H6F10366   1.764   5.124  10.045 -1.2238  1.7846 -0.3282
  102OSM    H6G10367   1.942   5.159  10.101 -0.5232 -1.5473  1.3931
  102OSM    C7F10368   1.823   5.331  10.061 -1.0137  0.1518 -1.0982
  102OSM    H7F10369   1.900   5.396  10.108  1.4233 -2.7894 -0.9009
  102OSM    H7G10370   1.729   5.367  10.109  0.2145  0.2825  1.2981
  102OSM    C8F10371   1.813   5.354   9.908  0.5663  0.4682 -0.8629
  102OSM    H8F10372   1.726   5.292   9.878  0.8769 -0.8939  0.9698
  102OSM    H8G10373   1.896   5.305   9.853  0.7446 -0.9676  0.6450
  102OSM    C9F10374   1.794   5.498   9.875  0.0597  0.2296 -0.0376
  102OSM    H9F10375   1.885   5.556   9.896  0.2327  0.4163 -1.2927
  102OSM   C10F10376   1.684   5.563   9.839  0.3942 -1.0360  1.0440
  102OSM   H10F10377   1.694   5.672   9.834 -0.6561 -0.9192  1.2365
  102OSM   C11F10378   1.548   5.500   9.809 -0.1259  0.3430 -0.5748
  102OSM   H11F10379   1.465   5.547   9.866  0.1324 -0.5696  0.5717
  102OSM   H11G10380   1.553   5.390   9.821  2.3653  0.4256 -0.5653
  102OSM   C12F10381   1.503   5.533   9.662 -0.3618  0.0810  0.0487
  102OSM   H12F10382   1.539   5.633   9.630 -1.4114  0.0599 -1.2545
  102OSM   H12G10383   1.393   5.528   9.654 -0.3629  1.0509 -0.6603
  102OSM   C13F10384   1.553   5.425   9.563 -0.8626  0.5234  0.0702
  102OSM   H13F10385   1.497   5.332   9.587 -0.9609  0.2629 -1.1377
  102OSM   H13G10386   1.662   5.408   9.575 -0.7977  0.6077 -0.3992
  102OSM   C14F10387   1.529   5.459   9.417 -0.5610 -0.2025  0.4054
  102OSM   H14F10388   1.556   5.566   9.406 -0.4132 -0.4358 -1.5778
  102OSM   H14G10389   1.421   5.451   9.394 -0.0044 -0.0565 -2.4088
  102OSM   C15F10390   1.614   5.383   9.321 -0.5299  0.0648  0.0974
  102OSM   H15F10391   1.603   5.274   9.339 -1.1127  0.7675  4.7039
  102OSM   H15G10392   1.722   5.401   9.340  0.2742 -2.4334 -1.8139
  102OSM   C16F10393   1.589   5.417   9.171  0.0459 -0.2059  1.0162
  102OSM   H16F10394   1.586   5.526   9.147 -0.6599 -0.5479 -0.4627
  102OSM   H16G10395   1.486   5.389   9.144  0.3969 -0.0092 -0.5498
  102OSM   C17F10396   1.694   5.358   9.087 -0.6539 -0.0780  0.0026
  102OSM   H17F10397   1.718   5.251   9.105  1.0447  0.3243  0.2201
  102OSM   H17G10398   1.791   5.406   9.114 -0.3102 -0.1422 -1.0966
  102OSM   C18F10399   1.665   5.364   8.940  0.0955  0.2698 -0.0941
  102OSM   H18F10400   1.751   5.335   8.876 -1.2683 -2.0368 -0.9434
  102OSM   H18G10401   1.637   5.461   8.895 -0.8824 -0.7827 -1.8132
  102OSM   H18H10402   1.584   5.290   8.923 -0.1085  0.6379 -0.7187
  103OSM      N10403   3.696   1.671  11.228  0.3292 -0.7865  0.7792
  103OSM    C1510404   3.730   1.710  11.370  0.4223 -0.1973  1.0161
  103OSM   H15A10405   3.642   1.716  11.432  0.3596  2.3859  0.7339
  103OSM   H15B10406   3.768   1.811  11.365 -0.5682  0.0952 -1.0148
  103OSM   H15C10407   3.806   1.651  11.420  0.4597 -1.4560 -0.4618
  103OSM    C1410408   3.598   1.771  11.182 -0.1335  0.6293  0.4170
  103OSM   H14A10409   3.500   1.745  11.221 -0.2139 -0.7309 -0.6358
  103OSM   H14B10410   3.584   1.751  11.076  0.4536 -1.4207  0.7118
  103OSM   H14C10411   3.624   1.873  11.205 -0.5868  0.8017  0.1890
  103OSM    C1310412   3.814   1.666  11.144  0.3818  0.5050  0.3271
  103OSM   H13A10413   3.787   1.616  11.052 -0.0697 -2.5218  2.0322
  103OSM   H13B10414   3.886   1.595  11.180 -0.5163 -1.2254 -1.1628
  103OSM   H13C10415   3.870   1.756  11.123  0.0564  0.6522  0.0812
  103OSM    C1210416   3.624   1.531  11.221  0.2099  0.2088  0.2739
  103OSM   H12A10417   3.532   1.528  11.278  1.4200  0.7961  2.3095
  103OSM   H12B10418   3.692   1.459  11.263  1.5410  1.6674  0.6649
  103OSM    C1110419   3.594   1.471  11.078 -0.4448 -0.2106  0.4293
  103OSM   H11A10420   3.535   1.549  11.027  0.4041 -0.0876 -0.3725
  103OSM   H11B10421   3.537   1.376  11.078 -1.1106  0.1839  0.7429
  103OSM      P10422   3.786   1.310  11.007 -0.7331 -0.1992 -0.1568
  103OSM    O1310423   3.936   1.335  11.006 -0.2646 -0.0219  0.0360
  103OSM    O1410424   3.723   1.228  11.115 -0.2276  0.0127 -0.1198
  103OSM    O1110425   3.744   1.227  10.881  0.2389  0.7192 -0.4395
  103OSM    O1210426   3.715   1.447  11.000  0.7066 -0.1206 -0.0600
  103OSM    C1S10427   3.615   1.215  10.823 -0.7197 -0.0254 -0.7829
  103OSM    H1S10428   3.556   1.309  10.821 -0.8313 -0.0410  0.8975
  103OSM    H1T10429   3.551   1.137  10.870  0.3521 -1.4092 -1.5677
  103OSM     NF10430   3.500   1.223  10.594 -0.1699 -0.0582  0.2521
  103OSM    HNF10431   3.440   1.148  10.568 -0.2078  0.6999 -1.8829
  103OSM    C2S10432   3.619   1.184  10.667  0.6942 -0.0937  0.2052
  103OSM    H2S10433   3.697   1.255  10.632 -1.3238  2.5176  0.9040
  103OSM    C3S10434   3.664   1.038  10.659 -0.0896 -0.7055  0.1453
  103OSM    H3S10435   3.581   0.976  10.701 -0.1521  0.0317  1.1319
  103OSM     O310436   3.779   1.008  10.737  0.3176 -0.1117 -0.3080
  103OSM    HO310437   3.769   1.080  10.799 -0.5607  0.8351 -1.5345
  103OSM    C4S10438   3.690   0.996  10.518 -0.5066 -0.4169 -0.7268
  103OSM    H4S10439   3.629   0.908  10.495 -1.8763  0.1287  0.6955
  103OSM    C5S10440   3.794   1.030  10.441 -0.1804  0.3498 -0.3511
  103OSM    H5S10441   3.874   1.094  10.481  0.2274  1.3070 -2.6159
  103OSM    C6S10442   3.826   0.967  10.311 -0.3104  0.6461  0.5629
  103OSM    H6S10443   3.870   1.038  10.238 -2.0988 -2.4190 -3.7122
  103OSM    H6T10444   3.754   0.903  10.256  0.7533 -0.6013  0.5787
  103OSM    C7S10445   3.936   0.859  10.329  0.1956  0.0057  0.7815
  103OSM    H7S10446   3.922   0.799  10.421  0.4167 -1.0639  0.1365
  103OSM    H7T10447   4.030   0.917  10.342  1.4065 -1.4936 -0.9224
  103OSM    C8S10448   3.977   0.775  10.208  0.0875 -0.6199 -0.3704
  103OSM    H8S10449   3.921   0.680  10.193 -2.0116  0.3788  0.9090
  103OSM    H8T10450   4.079   0.744  10.241  1.1077  1.3880 -1.4704
  103OSM    C9S10451   3.992   0.864  10.083 -0.1010 -0.7120 -0.1178
  103OSM    H9S10452   4.047   0.955  10.114 -1.6006  0.7446 -1.5703
  103OSM    H9T10453   3.891   0.888  10.043  0.2381 -0.6624 -0.9581
  103OSM   C10S10454   4.080   0.797   9.975 -0.4455  0.2709 -0.0299
  103OSM   H10S10455   4.036   0.697   9.955 -1.2689  0.9693 -1.8901
  103OSM   H10T10456   4.180   0.783  10.020 -0.6109  1.5420  0.7541
  103OSM   C11S10457   4.111   0.887   9.853 -0.6514 -0.8395  0.1612
  103OSM   H11S10458   4.211   0.858   9.814 -0.5550 -1.9426  1.2265
  103OSM   H11T10459   4.122   0.993   9.883  0.8175 -1.1976  0.8971
  103OSM   C12S10460   4.003   0.866   9.751 -0.4494  0.3495  0.7200
  103OSM   H12S10461   3.911   0.910   9.793 -1.2148  1.1727 -1.7231
  103OSM   H12T10462   3.985   0.757   9.734  2.0944  0.0943 -0.7107
  103OSM   C13S10463   4.057   0.922   9.615 -0.0117 -0.3505  0.0512
  103OSM   H13S10464   4.147   0.862   9.588 -1.3048 -1.1543 -2.6332
  103OSM   H13T10465   4.081   1.027   9.641  1.2523 -0.4627 -0.6618
  103OSM   C14S10466   3.955   0.907   9.504 -0.6248  0.2089  0.4925
  103OSM   H14S10467   3.866   0.972   9.518 -0.9506  0.2710 -1.7577
  103OSM   H14T10468   3.919   0.803   9.522  1.5125 -0.0976  3.3976
  103OSM   C15S10469   4.015   0.941   9.365 -0.4490  0.4819  0.2198
  103OSM   H15S10470   4.081   0.853   9.347 -0.1462  0.3095  2.1272
  103OSM   H15T10471   4.087   1.025   9.370 -1.3136  1.1610  1.3296
  103OSM   C16S10472   3.922   0.957   9.240 -0.4241 -0.7030 -0.5815
  103OSM   H16S10473   3.895   0.857   9.201 -0.1399 -0.9672 -0.1109
  103OSM   H16T10474   3.983   1.016   9.168 -0.1719 -0.2705 -0.0163
  103OSM   C17S10475   3.791   1.035   9.252  0.1403 -0.7038 -0.1180
  103OSM   H17S10476   3.818   1.140   9.278  0.8361 -0.5658 -1.3516
  103OSM   H17T10477   3.738   0.990   9.339 -2.7066  0.3077 -1.2465
  103OSM   C18S10478   3.701   1.016   9.129  0.1014  0.0870 -0.4505
  103OSM   H18S10479   3.652   0.918   9.146 -4.0601  2.0865 -0.0723
  103OSM   H18T10480   3.737   1.033   9.025 -4.6183 -0.9128 -2.4105
  103OSM   H18U10481   3.619   1.088   9.149 -0.2817 -0.2977 -0.6215
  103OSM    C1F10482   3.458   1.349  10.572 -0.1942 -0.1757 -0.2886
  103OSM     OF10483   3.522   1.442  10.620  0.1651  0.4589  0.0952
  103OSM    C2F10484   3.344   1.372  10.477  0.4004  0.1082  1.0656
  103OSM    H2F10485   3.270   1.438  10.528 -1.4073 -1.3521  0.3899
  103OSM    H2G10486   3.291   1.275  10.467  1.8342 -0.6388  0.6786
  103OSM    C3F10487   3.395   1.422  10.334  0.4344  0.3692  0.3403
  103OSM    H3F10488   3.430   1.527  10.346  3.3130 -0.4783 -0.3322
  103OSM    H3G10489   3.300   1.426  10.275  0.5336 -0.3762  0.1258
  103OSM    C4F10490   3.485   1.333  10.253 -0.1002  0.1542  0.3193
  103OSM    H4F10491   3.430   1.241  10.223  1.3157 -0.6361  0.1356
  103OSM    H4G10492   3.576   1.298  10.306  0.2367  0.0875 -0.3048
  103OSM    C5F10493   3.527   1.406  10.120  0.8356 -0.1014  0.4461
  103OSM    H5F10494   3.594   1.336  10.066 -1.0572 -1.6636  0.0653
  103OSM    H5G10495   3.584   1.496  10.150  0.6065 -0.4958  2.0878
  103OSM    C6F10496   3.416   1.441  10.025  0.1153 -0.3166 -0.7406
  103OSM    H6F10497   3.465   1.461   9.927 -2.5591 -0.2199 -2.1032
  103OSM    H6G10498   3.355   1.527  10.060  2.1854  0.7278  0.4042
  103OSM    C7F10499   3.318   1.325   9.995  0.3682  0.1954  0.0493
  103OSM    H7F10500   3.245   1.327  10.078 -0.5559 -0.5893 -0.7325
  103OSM    H7G10501   3.366   1.226  10.010 -2.2986 -0.9523  1.4500
  103OSM    C8F10502   3.244   1.332   9.856  0.0048 -0.2959  0.4737
  103OSM    H8F10503   3.175   1.245   9.845  1.6596 -1.5963  0.1124
  103OSM    H8G10504   3.327   1.325   9.783 -1.6378  2.6982 -1.7608
  103OSM    C9F10505   3.150   1.457   9.839 -0.8951  0.2793  0.2152
  103OSM    H9F10506   3.078   1.466   9.921 -0.1821  1.1548  0.7515
  103OSM   C10F10507   3.149   1.535   9.734  0.7910  0.5596 -0.2788
  103OSM   H10F10508   3.076   1.617   9.746 -0.0488 -0.2709  0.2884
  103OSM   C11F10509   3.238   1.537   9.610  0.2759 -0.8879 -0.0281
  103OSM   H11F10510   3.339   1.502   9.642  0.2570 -0.6692  0.2794
  103OSM   H11G10511   3.253   1.641   9.574 -0.7399 -0.9240 -0.5593
  103OSM   C12F10512   3.182   1.436   9.511  0.5263  1.3536  0.1082
  103OSM   H12F10513   3.084   1.475   9.474 -0.9418 -3.7537 -1.9017
  103OSM   H12G10514   3.159   1.337   9.555  0.4386  1.3547  0.0668
  103OSM   C13F10515   3.280   1.417   9.398 -1.1011 -0.5320 -0.8886
  103OSM   H13F10516   3.353   1.500   9.387 -1.5379 -0.0393 -0.1364
  103OSM   H13G10517   3.352   1.338   9.427 -1.5826 -0.3759  0.7878
  103OSM   C14F10518   3.192   1.393   9.275  0.1315 -0.1323 -0.1736
  103OSM   H14F10519   3.105   1.459   9.258  0.6839  0.5079 -0.5333
  103OSM   H14G10520   3.142   1.298   9.303 -0.9335  1.0039  1.8879
  103OSM   C15F10521   3.281   1.393   9.150  0.0765 -0.1990  0.0373
  103OSM   H15F10522   3.370   1.330   9.169 -1.0552 -1.7013  0.4687
  103OSM   H15G10523   3.315   1.497   9.130 -2.7702  0.8822  0.5501
  103OSM   C16F10524   3.190   1.349   9.032  0.3282 -0.1482 -0.6694
  103OSM   H16F10525   3.122   1.436   9.015  0.5939  0.6628  2.1996
  103OSM   H16G10526   3.129   1.264   9.069 -0.3997  1.3405  1.6604
  103OSM   C17F10527   3.258   1.331   8.902 -0.6131 -0.0737 -0.0730
  103OSM   H17F10528   3.172   1.311   8.834 -1.7030 -1.5443  1.6907
  103OSM   H17G10529   3.324   1.242   8.909  2.0475  1.7162 -1.5812
  103OSM   C18F10530   3.329   1.454   8.854 -0.3656  0.1117  0.5450
  103OSM   H18F10531   3.436   1.422   8.851 -0.1725  0.8333 -0.4583
  103OSM   H18G10532   3.320   1.547   8.913 -2.3120 -1.2968  2.5639
  103OSM   H18H10533   3.303   1.471   8.748 -0.4181  2.1977  0.8709
  104OSM      N10534   0.977   6.717  10.942 -0.1427  0.3258  0.0605
  104OSM    C1510535   0.925   6.803  11.057 -0.0506  0.5737  0.1895
  104OSM   H15A10536   0.995   6.885  11.058  1.0918 -0.4065  1.3306
  104OSM   H15B10537   0.951   6.740  11.140 -0.6160 -0.4246 -0.3833
  104OSM   H15C10538   0.819   6.824  11.063  0.1250  1.1113  1.4538
  104OSM    C1410539   1.122   6.685  10.943  0.0585 -0.2371 -0.1530
  104OSM   H14A10540   1.162   6.675  11.043 -0.4742 -0.1670  0.0663
  104OSM   H14B10541   1.168   6.756  10.877  0.4609 -1.0885 -0.8075
  104OSM   H14C10542   1.139   6.590  10.894 -2.7779 -1.0722  0.3514
  104OSM    C1310543   0.905   6.580  10.946 -0.0571 -0.7502 -0.1857
  104OSM   H13A10544   0.924   6.534  11.042 -2.9593 -0.3356  0.6218
  104OSM   H13B10545   0.940   6.507  10.875  1.0263  1.2075 -1.6955
  104OSM   H13C10546   0.798   6.593  10.939 -0.2603 -1.8011  0.8459
  104OSM    C1210547   0.940   6.790  10.811  0.5220  0.1607  0.3775
  104OSM   H12A10548   0.833   6.792  10.820  0.5662 -1.0595  1.4427
  104OSM   H12B10549   0.958   6.736  10.719 -1.3004  1.3595 -0.6981
  104OSM    C1110550   1.011   6.928  10.778  0.2948  0.5972  0.2316
  104OSM   H11A10551   0.972   7.002  10.851  0.9848  0.6546  0.5381
  104OSM   H11B10552   0.965   6.954  10.680  0.5813 -2.1256 -0.6726
  104OSM      P10553   1.211   6.874  10.630  0.5712 -0.2418 -0.1120
  104OSM    O1310554   1.356   6.905  10.626 -0.4553  0.1253 -0.7364
  104OSM    O1410555   1.164   6.735  10.599  0.2605  0.9602 -0.4373
  104OSM    O1110556   1.127   6.971  10.530 -1.0774 -0.4644  0.3352
  104OSM    O1210557   1.153   6.918  10.773 -0.3020 -0.8465  0.2383
  104OSM    C1S10558   1.162   7.107  10.513 -0.4768 -0.6518  0.2207
  104OSM    H1S10559   1.271   7.126  10.526 -0.3067 -1.8244  0.5650
  104OSM    H1T10560   1.114   7.161  10.597 -1.1281 -0.8407 -0.0270
  104OSM     NF10561   1.158   7.294  10.356 -0.5792  0.8607 -0.5119
  104OSM    HNF10562   1.093   7.370  10.359  0.0844  1.4242 -0.2058
  104OSM    C2S10563   1.113   7.153  10.380  0.3333  0.4933 -0.3484
  104OSM    H2S10564   1.151   7.080  10.306  0.8255 -1.6739  1.9493
  104OSM    C3S10565   0.958   7.139  10.369  0.0434  0.2611 -0.3601
  104OSM    H3S10566   0.911   7.216  10.434 -0.4713  1.1950 -1.8054
  104OSM     O310567   0.895   7.018  10.416  0.5592  0.3022  0.1419
  104OSM    HO310568   0.964   6.984  10.473  0.0421  0.4810  0.8884
  104OSM    C4S10569   0.914   7.170  10.221 -0.4037 -0.2105 -0.1533
  104OSM    H4S10570   0.856   7.262  10.206 -1.9448 -1.0990  0.2157
  104OSM    C5S10571   0.948   7.095  10.115 -0.7259  1.0178  0.5373
  104OSM    H5S10572   1.003   7.002  10.136 -3.1851 -0.5626  0.2400
  104OSM    C6S10573   0.915   7.120   9.971  0.1680 -0.0441  0.3212
  104OSM    H6S10574   0.835   7.196   9.963  0.0454 -0.3631 -1.8151
  104OSM    H6T10575   0.881   7.029   9.917  3.0534 -1.6783  1.1407
  104OSM    C7S10576   1.036   7.175   9.893  0.3361 -0.1278 -0.4683
  104OSM    H7S10577   1.104   7.088   9.884 -0.0196 -0.4022 -0.5510
  104OSM    H7T10578   1.082   7.264   9.940  0.8477 -0.3940 -0.4708
  104OSM    C8S10579   0.996   7.220   9.749 -0.6957  0.1093  0.4310
  104OSM    H8S10580   1.087   7.275   9.716  1.3014 -1.7927  2.6182
  104OSM    H8T10581   0.916   7.298   9.744  0.0319  0.6856 -2.6688
  104OSM    C9S10582   0.947   7.111   9.651  0.0529 -0.5334  0.5850
  104OSM    H9S10583   0.845   7.074   9.676 -0.5132  0.5394 -0.0897
  104OSM    H9T10584   1.008   7.018   9.648 -1.9909 -1.9261  0.5743
  104OSM   C10S10585   0.944   7.168   9.510  0.0799 -0.2106  0.0472
  104OSM   H10S10586   1.047   7.200   9.483 -0.6743  0.7963 -1.7075
  104OSM   H10T10587   0.895   7.267   9.495  0.7286  0.0552 -0.3232
  104OSM   C11S10588   0.902   7.069   9.409  0.7893  0.1964 -0.3233
  104OSM   H11S10589   0.792   7.054   9.419  0.6116  0.9342 -1.0703
  104OSM   H11T10590   0.958   6.978   9.438  1.1263  0.3763 -0.4035
  104OSM   C12S10591   0.928   7.116   9.261  0.2639  0.2144 -0.0448
  104OSM   H12S10592   1.034   7.146   9.249  0.5621  0.2264  2.3655
  104OSM   H12T10593   0.872   7.211   9.246  1.3635  0.6083 -1.7960
  104OSM   C13S10594   0.893   7.023   9.156 -0.4972 -0.1804  0.1510
  104OSM   H13S10595   0.814   6.952   9.190 -0.9587 -0.2713 -1.0725
  104OSM   H13T10596   0.985   6.971   9.122  0.1468 -0.1087  1.7547
  104OSM   C14S10597   0.830   7.091   9.035 -0.1055  0.4009  0.0213
  104OSM   H14S10598   0.904   7.169   9.006  1.2027 -1.2368 -1.1533
  104OSM   H14T10599   0.739   7.147   9.063  0.8259  3.3124 -2.4289
  104OSM   C15S10600   0.822   6.989   8.917  0.2700 -0.5338 -0.4246
  104OSM   H15S10601   0.744   6.913   8.942  2.4596 -2.3992  0.9541
  104OSM   H15T10602   0.917   6.931   8.921  0.2436 -0.4959  1.0352
  104OSM   C16S10603   0.800   7.055   8.774 -0.8051 -1.3287 -0.0759
  104OSM   H16S10604   0.884   7.112   8.729 -1.1716 -1.5881 -1.0974
  104OSM   H16T10605   0.720   7.132   8.776 -0.7476 -1.2932  1.0909
  104OSM   C17S10606   0.767   6.954   8.660 -0.9694 -0.3111  0.6249
  104OSM   H17S10607   0.662   6.923   8.683 -1.4666  0.0079 -1.1992
  104OSM   H17T10608   0.839   6.870   8.656  0.9734  1.3992 -1.0562
  104OSM   C18S10609   0.765   7.011   8.512 -1.2471 -0.4585  0.3521
  104OSM   H18S10610   0.713   6.927   8.460 -0.1697 -1.7777  1.3730
  104OSM   H18T10611   0.865   7.022   8.466 -1.2031  0.5292  0.6639
  104OSM   H18U10612   0.704   7.104   8.508  1.3309  1.2925  0.5018
  104OSM    C1F10613   1.287   7.322  10.327 -0.1605  0.2413  0.1801
  104OSM     OF10614   1.382   7.242  10.326 -0.1506 -0.0541  0.1627
  104OSM    C2F10615   1.309   7.471  10.297 -0.1163  0.6153 -0.0740
  104OSM    H2F10616   1.404   7.494  10.351 -1.4318  0.0522  2.5663
  104OSM    H2G10617   1.229   7.525  10.352 -0.7085 -1.9655  1.6673
  104OSM    C3F10618   1.322   7.499  10.143  0.1911  0.5863  0.8145
  104OSM    H3F10619   1.399   7.432  10.099 -0.2193 -0.1777  1.2306
  104OSM    H3G10620   1.370   7.599  10.143 -0.7307  1.0382 -0.5499
  104OSM    C4F10621   1.190   7.486  10.065 -0.7580  0.6867 -0.5753
  104OSM    H4F10622   1.117   7.557  10.110 -0.8380  2.2299 -3.0011
  104OSM    H4G10623   1.167   7.377  10.070 -1.5551  0.8780 -0.0555
  104OSM    C5F10624   1.212   7.518   9.919 -0.0716  1.1284 -0.0956
  104OSM    H5F10625   1.255   7.620   9.913  2.3520  0.0829 -0.9692
  104OSM    H5G10626   1.114   7.515   9.866 -0.8325  1.0106  1.2912
  104OSM    C6F10627   1.308   7.422   9.843 -0.4296 -0.4821 -0.5099
  104OSM    H6F10628   1.268   7.319   9.856  0.2829 -0.4889  1.8689
  104OSM    H6G10629   1.405   7.433   9.897 -0.2121  3.2997 -1.5351
  104OSM    C7F10630   1.317   7.437   9.687 -0.0878  0.1262  1.7291
  104OSM    H7F10631   1.240   7.372   9.640  0.1349  0.2036  1.2502
  104OSM    H7G10632   1.417   7.404   9.652 -0.8530  0.1147 -0.5481
  104OSM    C8F10633   1.305   7.582   9.630  0.5191  0.4378  0.4301
  104OSM    H8F10634   1.339   7.597   9.526 -0.2859 -1.3435 -0.1211
  104OSM    H8G10635   1.375   7.648   9.686  3.2550 -1.6847 -0.3848
  104OSM    C9F10636   1.166   7.642   9.632  0.0749 -0.6366 -0.0952
  104OSM    H9F10637   1.143   7.708   9.718 -0.1314 -1.6527  0.6333
  104OSM   C10F10638   1.073   7.617   9.539 -1.1159 -0.9646  0.3764
  104OSM   H10F10639   0.974   7.660   9.557  0.1382  2.4221 -0.4516
  104OSM   C11F10640   1.077   7.522   9.419  0.0702  0.7827  0.7915
  104OSM   H11F10641   0.975   7.479   9.411 -0.1573  1.6266 -1.2100
  104OSM   H11G10642   1.142   7.434   9.434 -3.8117 -2.4184 -0.1907
  104OSM   C12F10643   1.118   7.597   9.289  0.4423  0.1255 -0.2672
  104OSM   H12F10644   1.229   7.594   9.296  0.4016  1.4251  1.2121
  104OSM   H12G10645   1.077   7.700   9.295 -0.9637 -0.3926 -0.7247
  104OSM   C13F10646   1.079   7.526   9.155 -0.1146  0.3442 -0.2928
  104OSM   H13F10647   0.972   7.542   9.132  0.1367  1.1840 -0.9049
  104OSM   H13G10648   1.099   7.417   9.161 -0.3165  0.2655 -0.9779
  104OSM   C14F10649   1.155   7.595   9.043  0.6415 -0.3949 -0.0373
  104OSM   H14F10650   1.263   7.587   9.067  0.6751 -0.3270 -0.1646
  104OSM   H14G10651   1.125   7.702   9.035 -2.3321 -1.1214  0.7236
  104OSM   C15F10652   1.132   7.532   8.904  0.2215 -0.4646 -0.1618
  104OSM   H15F10653   1.022   7.540   8.886  0.4299  0.8067 -0.8758
  104OSM   H15G10654   1.156   7.423   8.903 -0.3182 -0.5812 -0.6796
  104OSM   C16F10655   1.223   7.586   8.800 -0.1430  0.3873  0.0501
  104OSM   H16F10656   1.178   7.564   8.700  0.9318  0.0772 -0.3760
  104OSM   H16G10657   1.319   7.531   8.814 -0.2911 -0.1052 -0.8075
  104OSM   C17F10658   1.245   7.737   8.815  0.2439  0.5569 -0.3230
  104OSM   H17F10659   1.304   7.759   8.906 -1.0536  2.9474 -0.0182
  104OSM   H17G10660   1.145   7.782   8.832  1.0921  1.4724  2.4967
  104OSM   C18F10661   1.312   7.796   8.692 -0.1936  0.3724 -0.2201
  104OSM   H18F10662   1.358   7.893   8.722 -0.9478  0.9214 -0.8147
  104OSM   H18G10663   1.234   7.811   8.615 -1.2846 -0.5477  0.6987
  104OSM   H18H10664   1.389   7.727   8.650 -0.4180  0.6203 -1.0567
  105OSM      N10665   0.417   0.205  11.118  0.3275  0.3735 -0.2435
  105OSM    C1510666   0.438   0.094  11.210  0.5220  1.1510  0.2957
  105OSM   H15A10667   0.509   0.119  11.287  0.6483  0.5197  0.3891
  105OSM   H15B10668   0.469   0.004  11.158  0.9429  1.2719  0.3391
  105OSM   H15C10669   0.348   0.068  11.263 -0.0538 -0.1563 -1.2752
  105OSM    C1410670   0.302   0.175  11.027 -0.1833 -0.0016  0.4716
  105OSM   H14A10671   0.221   0.140  11.088  0.6190 -1.4191  0.7400
  105OSM   H14B10672   0.329   0.105  10.949  1.4259  0.5675  0.4870
  105OSM   H14C10673   0.276   0.263  10.971  1.7138 -0.2052 -0.7704
  105OSM    C1310674   0.381   0.333  11.186 -0.2167  0.3297 -0.1247
  105OSM   H13A10675   0.465   0.359  11.249 -0.5456 -3.9538  2.2819
  105OSM   H13B10676   0.298   0.308  11.251 -0.2687  1.3118  0.1959
  105OSM   H13C10677   0.360   0.411  11.116  0.6375  0.8447  0.1787
  105OSM    C1210678   0.542   0.233  11.031  0.1850  0.2576 -0.4792
  105OSM   H12A10679   0.625   0.245  11.098 -0.3553  0.8933  0.0875
  105OSM   H12B10680   0.533   0.329  10.983  1.5582  0.4570 -0.3416
  105OSM    C1110681   0.582   0.136  10.914  0.5048 -0.1076 -0.0161
  105OSM   H11A10682   0.679   0.177  10.878 -0.1062  1.1051 -0.3075
  105OSM   H11B10683   0.506   0.165  10.838 -0.2677 -0.3886  0.6449
  105OSM      P10684   0.501  -0.110  10.872 -0.1821 -0.2003 -0.0292
  105OSM    O1310685   0.559  -0.250  10.880  0.8717  0.4560  0.1164
  105OSM    O1410686   0.363  -0.079  10.909  0.3717 -0.2392 -0.1542
  105OSM    O1110687   0.499  -0.064  10.720  0.1200 -0.3023 -0.2993
  105OSM    O1210688   0.596  -0.007  10.934 -0.7548  0.1218  0.0643
  105OSM    C1S10689   0.617  -0.037  10.646 -0.0147  0.8088 -0.6159
  105OSM    H1S10690   0.680  -0.128  10.651 -4.0598 -2.1232 -0.4957
  105OSM    H1T10691   0.679   0.048  10.683 -0.9500  2.3063 -2.4170
  105OSM     NF10692   0.716  -0.006  10.427  0.4258 -0.0826  0.9634
  105OSM    HNF10693   0.763   0.081  10.428  0.8898 -0.2760 -2.1225
  105OSM    C2S10694   0.589  -0.002  10.500 -0.2336 -0.6328 -0.3007
  105OSM    H2S10695   0.524  -0.087  10.468 -2.6514  1.5144 -1.3126
  105OSM    C3S10696   0.513   0.136  10.490  0.5362 -0.5918 -0.1133
  105OSM    H3S10697   0.577   0.220  10.524 -0.2665 -0.6849  1.6422
  105OSM     O310698   0.396   0.131  10.567 -0.0845  0.0957 -0.1144
  105OSM    HO310699   0.413   0.057  10.625  1.8959  1.7196  1.4780
  105OSM    C4S10700   0.483   0.172  10.346  0.3912 -0.4874  0.1803
  105OSM    H4S10701   0.413   0.106  10.292  3.3578 -3.0802 -0.6587
  105OSM    C5S10702   0.519   0.289  10.293  0.3175 -0.0363  0.7918
  105OSM    H5S10703   0.551   0.369  10.361 -0.7651  1.2785 -0.2301
  105OSM    C6S10704   0.492   0.346  10.153 -0.0526  0.8911  0.4222
  105OSM    H6S10705   0.585   0.386  10.107  1.7725 -1.8222  1.6117
  105OSM    H6T10706   0.422   0.432  10.166  1.0100  2.3213 -2.8701
  105OSM    C7S10707   0.423   0.258  10.046  0.2370  0.1570 -0.3772
  105OSM    H7S10708   0.318   0.231  10.069  0.6846 -2.0842 -0.8481
  105OSM    H7T10709   0.469   0.158  10.036 -0.3434 -0.1625  0.1707
  105OSM    C8S10710   0.430   0.329   9.904 -0.8211  0.8332  0.8132
  105OSM    H8S10711   0.539   0.329   9.886 -1.0702 -1.9686 -0.9859
  105OSM    H8T10712   0.406   0.437   9.905  0.0042  1.0198  0.7586
  105OSM    C9S10713   0.361   0.251   9.792  0.3467 -0.5299  0.5717
  105OSM    H9S10714   0.250   0.261   9.797  0.3400 -0.5916  0.5453
  105OSM    H9T10715   0.382   0.143   9.803  2.1042 -0.0054  2.4793
  105OSM   C10S10716   0.413   0.303   9.657 -0.4571  0.3307 -0.2192
  105OSM   H10S10717   0.524   0.297   9.654 -0.5579 -1.4262 -0.9043
  105OSM   H10T10718   0.387   0.409   9.633 -2.3697  0.0590  0.6168
  105OSM   C11S10719   0.357   0.230   9.537 -0.1626  0.6524 -0.2643
  105OSM   H11S10720   0.247   0.216   9.545 -0.1505  0.1257 -0.9843
  105OSM   H11T10721   0.407   0.131   9.533 -1.5134 -0.0639  0.2723
  105OSM   C12S10722   0.397   0.291   9.408  0.1925 -0.8341 -0.1068
  105OSM   H12S10723   0.503   0.324   9.418 -0.1678  0.2117  0.3418
  105OSM   H12T10724   0.331   0.380   9.406 -0.6122 -1.4590 -2.8597
  105OSM   C13S10725   0.376   0.201   9.287 -0.0950 -0.4573  0.1653
  105OSM   H13S10726   0.272   0.166   9.275  0.9624 -3.9236  0.5505
  105OSM   H13T10727   0.439   0.110   9.301  0.2168 -0.5485 -1.6786
  105OSM   C14S10728   0.421   0.273   9.158 -0.0286  0.0690 -0.0679
  105OSM   H14S10729   0.532   0.274   9.162 -0.0560 -1.8883  3.0941
  105OSM   H14T10730   0.383   0.377   9.152  1.4341  0.8325  2.7864
  105OSM   C15S10731   0.374   0.199   9.029 -0.1574  0.1403 -0.6896
  105OSM   H15S10732   0.270   0.160   9.034  0.6889 -2.0527  0.4560
  105OSM   H15T10733   0.429   0.102   9.033 -0.4060 -0.0024 -0.7269
  105OSM   C16S10734   0.391   0.276   8.893  0.6387  0.5060 -0.0272
  105OSM   H16S10735   0.498   0.287   8.865  0.5777  4.6187  1.0194
  105OSM   H16T10736   0.347   0.378   8.900  1.7349  0.9364  0.6663
  105OSM   C17S10737   0.322   0.214   8.777  0.1054 -0.5608 -0.1937
  105OSM   H17S10738   0.220   0.184   8.808 -0.2429  1.3671  0.5830
  105OSM   H17T10739   0.390   0.128   8.757 -1.3719 -2.0943  1.2074
  105OSM   C18S10740   0.303   0.307   8.649  0.1276  0.4538 -0.4404
  105OSM   H18S10741   0.231   0.387   8.679  0.8805 -0.6187  4.6288
  105OSM   H18T10742   0.247   0.239   8.581  0.8929 -1.6000  0.9450
  105OSM   H18U10743   0.401   0.345   8.613  0.7271 -0.8350 -0.1915
  105OSM    C1F10744   0.788  -0.110  10.394  0.7317  0.8055 -0.3036
  105OSM     OF10745   0.739  -0.225  10.411  0.4328 -0.0395  0.3500
  105OSM    C2F10746   0.917  -0.088  10.330  0.2692 -0.2090 -0.0773
  105OSM    H2F10747   0.965  -0.188  10.328 -0.1105 -0.4502  2.0744
  105OSM    H2G10748   0.979  -0.022  10.394  1.6810 -2.4167  0.8604
  105OSM    C3F10749   0.903  -0.027  10.183  0.0645 -0.3633  0.0074
  105OSM    H3F10750   0.997   0.018  10.143 -1.0154  2.5483  0.6458
  105OSM    H3G10751   0.843   0.065  10.198 -0.3411 -0.5792 -0.2892
  105OSM    C4F10752   0.821  -0.102  10.082 -0.3677 -0.4184  0.6046
  105OSM    H4F10753   0.736  -0.155  10.130  1.3537 -3.1963  0.7380
  105OSM    H4G10754   0.888  -0.179  10.037 -0.3440  0.2233 -0.4545
  105OSM    C5F10755   0.781  -0.011   9.970 -0.3916  0.4236 -0.7456
  105OSM    H5F10756   0.877   0.031   9.934 -0.7406  1.0484 -0.9341
  105OSM    H5G10757   0.725   0.075  10.014 -0.1134 -0.4604  1.4302
  105OSM    C6F10758   0.713  -0.087   9.863 -0.4842  0.4626 -0.3027
  105OSM    H6F10759   0.616  -0.114   9.911  0.3665  0.3695  1.3955
  105OSM    H6G10760   0.759  -0.185   9.837  0.1543  0.9553 -1.0657
  105OSM    C7F10761   0.685   0.008   9.745  0.5399 -0.0104 -0.1701
  105OSM    H7F10762   0.787   0.036   9.711  0.9160 -2.1665 -0.8999
  105OSM    H7G10763   0.632   0.098   9.783 -0.7248 -1.8238  2.4735
  105OSM    C8F10764   0.603  -0.063   9.641  0.0473  0.4183 -0.6392
  105OSM    H8F10765   0.576   0.011   9.562 -0.8942  0.6886 -0.0738
  105OSM    H8G10766   0.505  -0.082   9.691 -0.3381  0.0218 -1.5344
  105OSM    C9F10767   0.659  -0.188   9.574  0.3182  0.0777  0.2553
  105OSM    H9F10768   0.718  -0.254   9.638 -0.4907 -0.2256  0.6995
  105OSM   C10F10769   0.645  -0.215   9.443  0.2402  0.5776 -1.2535
  105OSM   H10F10770   0.678  -0.313   9.406  2.2082  1.4915 -1.9906
  105OSM   C11F10771   0.570  -0.133   9.341 -0.8735  0.1360  0.3195
  105OSM   H11F10772   0.644  -0.058   9.306  1.8111 -3.2385 -1.6075
  105OSM   H11G10773   0.476  -0.088   9.379 -1.7121 -0.2460 -1.2445
  105OSM   C12F10774   0.508  -0.226   9.231 -0.3240 -0.3355  0.0104
  105OSM   H12F10775   0.457  -0.168   9.151 -1.3311  0.9578  1.5753
  105OSM   H12G10776   0.439  -0.294   9.286 -0.7703 -0.0825 -0.2310
  105OSM   C13F10777   0.617  -0.306   9.152  0.3196 -0.2233 -0.4957
  105OSM   H13F10778   0.561  -0.385   9.099  1.1899 -1.3454  0.2280
  105OSM   H13G10779   0.700  -0.342   9.216 -1.9995  1.6549  3.8095
  105OSM   C14F10780   0.691  -0.221   9.038 -0.0373 -0.9892 -0.0952
  105OSM   H14F10781   0.785  -0.272   9.010  0.2693 -0.5721  0.1790
  105OSM   H14G10782   0.723  -0.129   9.090 -3.4865 -1.0166  2.2283
  105OSM   C15F10783   0.598  -0.195   8.912 -0.5790  0.5070  0.1398
  105OSM   H15F10784   0.558  -0.091   8.916  0.7233  1.0870 -1.4428
  105OSM   H15G10785   0.508  -0.260   8.910 -0.2347 -0.0102  1.1739
  105OSM   C16F10786   0.669  -0.210   8.779 -0.7781  0.2684  0.7799
  105OSM   H16F10787   0.704  -0.315   8.766 -2.8103 -0.3132 -0.1425
  105OSM   H16G10788   0.752  -0.137   8.768 -1.4781  0.9206 -0.2923
  105OSM   C17F10789   0.574  -0.170   8.663 -0.3448  0.2672 -0.1153
  105OSM   H17F10790   0.522  -0.075   8.685 -1.3547 -0.2435 -0.2832
  105OSM   H17G10791   0.493  -0.246   8.663 -2.2449  2.2166  1.9958
  105OSM   C18F10792   0.637  -0.158   8.529  0.0503 -0.0861 -0.1663
  105OSM   H18F10793   0.681  -0.253   8.489  1.8355  1.0854 -1.0357
  105OSM   H18G10794   0.720  -0.085   8.532 -0.5112  0.5198  0.6849
  105OSM   H18H10795   0.565  -0.126   8.451  0.1130  0.1533 -0.1255
  106OSM      N10796   1.723   4.261  11.122  0.0229 -0.1568 -0.3393
  106OSM    C1510797   1.804   4.378  11.133  0.0327  0.3343 -0.6312
  106OSM   H15A10798   1.761   4.435  11.214 -0.6314 -0.4323 -0.4346
  106OSM   H15B10799   1.806   4.435  11.041  1.0866  0.0673 -0.7809
  106OSM   H15C10800   1.906   4.352  11.157 -0.8586 -0.9035  2.0831
  106OSM    C1410801   1.727   4.179  11.247  0.2045  0.4996  0.2991
  106OSM   H14A10802   1.674   4.086  11.237 -0.0288  0.4791  1.6306
  106OSM   H14B10803   1.674   4.230  11.327 -0.6097 -1.5333  1.0787
  106OSM   H14C10804   1.827   4.158  11.282 -0.1758 -2.2354 -0.1476
  106OSM    C1310805   1.581   4.302  11.100  0.0449 -0.5150  0.6574
  106OSM   H13A10806   1.570   4.401  11.143 -1.7883  0.2783 -1.5015
  106OSM   H13B10807   1.513   4.236  11.152  0.0049 -1.3571 -0.4526
  106OSM   H13C10808   1.545   4.308  10.998  0.0496 -1.9641  0.5687
  106OSM    C1210809   1.761   4.172  11.001  0.5139 -0.6995  0.6280
  106OSM   H12A10810   1.712   4.076  11.008 -1.9419  0.4402 -0.2480
  106OSM   H12B10811   1.869   4.162  11.001  0.5700 -0.1272  1.1672
  106OSM    C1110812   1.737   4.221  10.855 -0.1342 -0.5297 -0.4223
  106OSM   H11A10813   1.628   4.221  10.832  0.2273 -1.0847 -2.1842
  106OSM   H11B10814   1.785   4.149  10.786 -0.1259 -0.0458 -0.9216
  106OSM      P10815   1.950   4.359  10.804  0.2798 -0.1199  0.0140
  106OSM    O1310816   1.985   4.503  10.814  0.0872 -0.8362  0.0155
  106OSM    O1410817   2.040   4.268  10.877 -0.0842  0.2899  0.4426
  106OSM    O1110818   1.944   4.313  10.655 -0.5610 -0.3084 -0.6201
  106OSM    O1210819   1.796   4.350  10.841  0.2283 -0.0060  0.0541
  106OSM    C1S10820   1.883   4.393  10.551 -0.0730 -0.5185  1.5633
  106OSM    H1S10821   1.950   4.480  10.532 -2.2165  0.9845  0.7388
  106OSM    H1T10822   1.785   4.440  10.574  0.2448  1.7748 -1.5099
  106OSM     NF10823   1.776   4.395  10.330 -0.3557 -0.4768  0.4885
  106OSM    HNF10824   1.677   4.405  10.329 -0.4065 -0.9767  0.0913
  106OSM    C2S10825   1.843   4.312  10.426 -0.7380  0.0786 -0.1568
  106OSM    H2S10826   1.936   4.260  10.394  0.0617  0.8822  0.8298
  106OSM    C3S10827   1.751   4.194  10.467 -0.5309 -0.2875 -0.6955
  106OSM    H3S10828   1.670   4.247  10.522 -1.3173 -3.4700  1.3362
  106OSM     O310829   1.814   4.093  10.548 -0.3177 -0.1781 -0.0447
  106OSM    HO310830   1.867   4.142  10.611  0.5460  0.4401 -1.2277
  106OSM    C4S10831   1.694   4.127  10.340  0.2260 -0.3484 -0.6393
  106OSM    H4S10832   1.599   4.169  10.303  2.0980  1.9053 -3.1074
  106OSM    C5S10833   1.758   4.036  10.260  0.1083  0.4610  0.0095
  106OSM    H5S10834   1.858   4.010  10.297  0.7758  0.9072 -1.4615
  106OSM    C6S10835   1.690   3.980  10.132 -0.6246 -0.0490  0.6670
  106OSM    H6S10836   1.588   4.025  10.132 -0.7739 -0.3581 -1.2100
  106OSM    H6T10837   1.680   3.870  10.137 -0.7970  0.0117  1.9094
  106OSM    C7S10838   1.760   4.044  10.007  0.4430  0.7805  0.1191
  106OSM    H7S10839   1.724   3.986   9.919 -1.0497  0.4182  0.9390
  106OSM    H7T10840   1.869   4.022  10.010 -0.3810 -3.9321  0.0619
  106OSM    C8S10841   1.721   4.195   9.978  0.3940  0.0071 -0.4296
  106OSM    H8S10842   1.743   4.249  10.073 -0.9799  0.4937 -0.3760
  106OSM    H8T10843   1.614   4.178   9.954  0.9586  0.2354 -3.2486
  106OSM    C9S10844   1.790   4.274   9.866  0.0474  0.8364 -0.1013
  106OSM    H9S10845   1.898   4.246   9.865 -0.1406  0.1095 -0.8056
  106OSM    H9T10846   1.794   4.383   9.887 -0.9029  1.2670 -2.0371
  106OSM   C10S10847   1.724   4.243   9.733 -0.1517  0.2590 -0.1600
  106OSM   H10S10848   1.727   4.138   9.696 -1.4288 -0.0585  0.6083
  106OSM   H10T10849   1.785   4.305   9.663 -0.2187  2.2765  1.5134
  106OSM   C11S10850   1.572   4.285   9.716 -0.1636 -0.1201 -0.3124
  106OSM   H11S10851   1.515   4.212   9.778 -0.2797 -0.5210 -0.8945
  106OSM   H11T10852   1.537   4.267   9.612  0.3477  1.6421 -0.8037
  106OSM   C12S10853   1.544   4.426   9.767 -0.5493 -0.3911  0.0731
  106OSM   H12S10854   1.631   4.491   9.743 -0.5197 -0.6443 -0.5352
  106OSM   H12T10855   1.561   4.418   9.876 -1.5384 -0.5214  0.2188
  106OSM   C13S10856   1.405   4.484   9.737  0.3291 -0.5161 -0.5302
  106OSM   H13S10857   1.316   4.428   9.771  0.7889 -0.8006  0.2222
  106OSM   H13T10858   1.391   4.506   9.629 -1.7139 -0.0023 -0.1814
  106OSM   C14S10859   1.387   4.628   9.795  0.2778 -0.0859 -0.0852
  106OSM   H14S10860   1.475   4.690   9.767 -1.2305  2.3454  0.4811
  106OSM   H14T10861   1.387   4.617   9.906  0.1288  0.3633 -0.0408
  106OSM   C15S10862   1.262   4.705   9.751 -0.1277  0.4708 -0.4753
  106OSM   H15S10863   1.170   4.655   9.788 -0.4904  0.6732 -1.1001
  106OSM   H15T10864   1.258   4.715   9.640 -0.9026  1.8660 -0.3417
  106OSM   C16S10865   1.254   4.848   9.821  0.2136  0.5137 -0.0462
  106OSM   H16S10866   1.277   4.835   9.929 -1.8991  0.9274  0.4798
  106OSM   H16T10867   1.150   4.885   9.807 -0.9399 -2.7829 -0.6340
  106OSM   C17S10868   1.353   4.954   9.762 -0.0123  0.1960  0.3810
  106OSM   H17S10869   1.323   4.968   9.655 -0.6124 -1.5571  0.3041
  106OSM   H17T10870   1.452   4.903   9.756  0.3511  0.9356  0.0597
  106OSM   C18S10871   1.351   5.097   9.823 -0.0477 -0.7743 -0.3904
  106OSM   H18S10872   1.253   5.146   9.808  0.3585  0.0647 -0.3324
  106OSM   H18T10873   1.430   5.157   9.773  0.2604  0.2284  1.2769
  106OSM   H18U10874   1.373   5.089   9.931 -0.9266  0.4716 -0.1087
  106OSM    C1F10875   1.850   4.486  10.267  0.0908  0.4701  0.3022
  106OSM     OF10876   1.968   4.498  10.291 -0.2282 -0.1561 -0.4760
  106OSM    C2F10877   1.774   4.557  10.167  0.0243  0.4311  0.2897
  106OSM    H2F10878   1.695   4.617  10.218  0.2141  0.0354  1.0630
  106OSM    H2G10879   1.734   4.477  10.101  0.6836 -1.1720  1.7931
  106OSM    C3F10880   1.870   4.632  10.076  0.7393 -0.5261  0.2053
  106OSM    H3F10881   1.945   4.561  10.035  2.4053  1.4059 -0.1740
  106OSM    H3G10882   1.916   4.713  10.137  0.7505 -0.8050  0.5701
  106OSM    C4F10883   1.804   4.706   9.960  0.2113 -0.3328  0.5103
  106OSM    H4F10884   1.727   4.774  10.002  1.4437  0.8150  0.9667
  106OSM    H4G10885   1.754   4.634   9.892  2.2371  0.7799 -2.2782
  106OSM    C5F10886   1.906   4.793   9.876 -0.5608  0.3953  0.5590
  106OSM    H5F10887   1.967   4.727   9.810 -1.5587  0.5930 -0.5721
  106OSM    H5G10888   1.976   4.840   9.948 -0.3943  0.3220  0.4480
  106OSM    C6F10889   1.837   4.903   9.798  0.2086  0.0500 -0.5138
  106OSM    H6F10890   1.760   4.950   9.864  1.3422 -1.5909  2.0531
  106OSM    H6G10891   1.779   4.857   9.715 -1.6211  0.9326  0.2385
  106OSM    C7F10892   1.936   5.005   9.743 -0.2658  0.6403 -0.7420
  106OSM    H7F10893   2.004   4.948   9.677  1.0132  1.1056  0.1513
  106OSM    H7G10894   1.995   5.052   9.825 -1.0262 -1.1077  0.8679
  106OSM    C8F10895   1.874   5.107   9.647 -0.3502  0.0766  0.1312
  106OSM    H8F10896   1.794   5.162   9.701 -0.0033  2.2170 -1.5075
  106OSM    H8G10897   1.822   5.041   9.575 -0.3838 -1.9035  1.9033
  106OSM    C9F10898   1.967   5.194   9.567 -0.2741 -0.3573 -0.3726
  106OSM    H9F10899   1.999   5.283   9.624  0.9711  0.3972 -2.2156
  106OSM   C10F10900   1.993   5.181   9.433  0.0223  0.5262 -0.6948
  106OSM   H10F10901   2.061   5.254   9.386 -1.0469  1.2281 -1.1743
  106OSM   C11F10902   1.930   5.075   9.333 -1.6897 -0.0395  0.4843
  106OSM   H11F10903   1.825   5.109   9.329 -1.7024 -0.2457 -1.3981
  106OSM   H11G10904   1.940   4.977   9.384 -1.3049  0.4168  1.3012
  106OSM   C12F10905   1.988   5.084   9.193 -0.3056 -0.1580  0.6154
  106OSM   H12F10906   2.097   5.068   9.198 -0.0750  0.9961 -0.4279
  106OSM   H12G10907   1.983   5.190   9.160 -2.9617 -0.5740 -0.5102
  106OSM   C13F10908   1.916   4.991   9.091  0.0070 -0.3191  0.3633
  106OSM   H13F10909   1.929   5.024   8.986 -2.1289 -1.4421 -0.2828
  106OSM   H13G10910   1.808   4.995   9.117  0.3493  2.1890  1.5647
  106OSM   C14F10911   1.963   4.845   9.094  0.1861 -0.1531 -0.3183
  106OSM   H14F10912   1.944   4.814   9.199 -0.9105 -0.9855 -0.7633
  106OSM   H14G10913   2.071   4.828   9.073  0.7863  2.6542  0.2636
  106OSM   C15F10914   1.883   4.760   8.997  0.3094 -1.0530  0.3652
  106OSM   H15F10915   1.929   4.785   8.899 -1.9938  2.3767  0.0742
  106OSM   H15G10916   1.777   4.791   9.001  0.3483 -0.7863 -0.5855
  106OSM   C16F10917   1.904   4.609   9.025 -0.5054  0.0204  0.1376
  106OSM   H16F10918   1.877   4.595   9.132  2.5395  0.8756  1.0742
  106OSM   H16G10919   2.012   4.593   9.009 -0.3049  1.9583 -0.5751
  106OSM   C17F10920   1.826   4.520   8.927  0.0294  0.4544 -0.4759
  106OSM   H17F10921   1.860   4.415   8.941 -1.2289 -0.0462 -1.1171
  106OSM   H17G10922   1.844   4.550   8.822 -2.1126 -1.1317 -1.3264
  106OSM   C18F10923   1.672   4.525   8.940 -0.1949  0.0551 -0.4516
  106OSM   H18F10924   1.633   4.617   8.891 -2.6480 -0.8138 -0.1658
  106OSM   H18G10925   1.644   4.518   9.047  4.6091  0.9069  1.0119
  106OSM   H18H10926   1.627   4.438   8.888 -1.6424 -0.0481  0.9371
  107OSM      N10927   1.908   2.679  11.262 -0.4989 -0.5206 -0.2207
  107OSM    C1510928   1.941   2.550  11.327  0.5504 -0.5870 -0.0559
  107OSM   H15A10929   1.859   2.507  11.384  1.2356 -0.7524  0.8189
  107OSM   H15B10930   2.021   2.566  11.398  0.3938  0.5481 -0.1298
  107OSM   H15C10931   1.970   2.475  11.255  2.0135  0.2915 -0.4017
  107OSM    C1410932   1.842   2.766  11.366 -0.3065 -0.1909  0.2627
  107OSM   H14A10933   1.911   2.788  11.446  2.1672  0.4151 -1.9825
  107OSM   H14B10934   1.755   2.715  11.406 -0.4824 -0.4785 -0.4809
  107OSM   H14C10935   1.821   2.860  11.318  2.5514 -0.7758 -2.3664
  107OSM    C1310936   2.030   2.748  11.215 -0.7058 -0.2524  0.1661
  107OSM   H13A10937   2.108   2.744  11.289 -1.3226 -0.5405  0.8122
  107OSM   H13B10938   2.014   2.853  11.195 -0.3946 -0.5055 -1.4517
  107OSM   H13C10939   2.069   2.707  11.123  1.5708 -3.5664  2.5094
  107OSM    C1210940   1.811   2.668  11.142 -0.4604  0.3360 -0.2355
  107OSM   H12A10941   1.798   2.763  11.092 -0.0869 -0.4116 -1.8107
  107OSM   H12B10942   1.718   2.622  11.170 -0.0825 -1.1697 -1.3733
  107OSM    C1110943   1.863   2.577  11.033  0.1900  0.0115  1.2715
  107OSM   H11A10944   1.865   2.472  11.070 -1.2204 -0.2845  0.5357
  107OSM   H11B10945   1.968   2.597  11.001  0.2686 -1.1061  0.7932
  107OSM      P10946   1.753   2.702  10.829 -0.2611  0.8232 -0.1923
  107OSM    O1310947   1.625   2.689  10.761 -0.0283  0.0841  0.0726
  107OSM    O1410948   1.773   2.828  10.905 -0.0109  0.1353  0.3931
  107OSM    O1110949   1.872   2.690  10.716 -0.0234 -0.1921 -0.8336
  107OSM    O1210950   1.768   2.584  10.925  0.2336  0.4158  0.2397
  107OSM    C1S10951   1.945   2.564  10.711  0.1681  0.1395  0.3863
  107OSM    H1S10952   1.884   2.477  10.745  0.3162  0.3130  1.1046
  107OSM    H1T10953   2.043   2.573  10.763  1.1462  1.4338 -1.5879
  107OSM     NF10954   2.026   2.384  10.544 -0.1140  0.1877 -0.7784
  107OSM    HNF10955   2.119   2.348  10.535  0.0507  0.6727 -1.0271
  107OSM    C2S10956   1.986   2.525  10.560 -0.3439 -0.7012  0.8025
  107OSM    H2S10957   1.891   2.539  10.506  1.3203  0.0379 -2.0467
  107OSM    C3S10958   2.090   2.624  10.510  0.3062  0.1189 -0.2087
  107OSM    H3S10959   2.182   2.621  10.571  0.4057 -1.5672 -0.3959
  107OSM     O310960   2.054   2.762  10.528 -0.3583  0.1050  0.0713
  107OSM    HO310961   1.980   2.764  10.589  0.0981  0.8815  0.5985
  107OSM    C4S10962   2.115   2.592  10.370  0.4705  0.2305 -0.8787
  107OSM    H4S10963   2.028   2.579  10.304 -0.2936  0.7095  0.0319
  107OSM    C5S10964   2.237   2.571  10.309  0.1651  0.4906 -0.0671
  107OSM    H5S10965   2.327   2.569  10.372 -2.1544  1.1809  3.4567
  107OSM    C6S10966   2.252   2.524  10.170  0.3412  0.1193 -0.0695
  107OSM    H6S10967   2.161   2.505  10.109 -0.2615  0.8970  0.5731
  107OSM    H6T10968   2.319   2.437  10.154  0.1508  0.2532 -1.7251
  107OSM    C7S10969   2.315   2.636  10.087 -0.3987 -0.5423  0.1497
  107OSM    H7S10970   2.415   2.650  10.134 -0.1830 -2.4137  0.2851
  107OSM    H7T10971   2.273   2.738  10.099  2.9948  0.8097  1.2400
  107OSM    C8S10972   2.355   2.603   9.944  0.0403  0.2256 -0.3989
  107OSM    H8S10973   2.266   2.625   9.881  0.0360  2.4961  0.3532
  107OSM    H8T10974   2.391   2.498   9.936  1.6766  0.8685 -1.9935
  107OSM    C9S10975   2.480   2.683   9.895  0.4256  0.2937  0.7590
  107OSM    H9S10976   2.568   2.668   9.961 -0.4011  0.4075  1.8969
  107OSM    H9T10977   2.456   2.791   9.902  0.7455  0.4301 -0.2021
  107OSM   C10S10978   2.532   2.655   9.753 -0.1828  0.0928  0.5798
  107OSM   H10S10979   2.568   2.550   9.750  1.2208  0.5068  2.2041
  107OSM   H10T10980   2.617   2.724   9.737  0.9925 -1.9472 -2.3842
  107OSM   C11S10981   2.444   2.691   9.633 -0.0070 -0.2641 -0.2307
  107OSM   H11S10982   2.429   2.800   9.626  1.7535  0.1354  1.7223
  107OSM   H11T10983   2.343   2.648   9.649  0.2494 -0.5664  0.6122
  107OSM   C12S10984   2.496   2.638   9.492  0.2270  0.5631  0.0281
  107OSM   H12S10985   2.517   2.529   9.496 -1.2483  0.2950  1.6495
  107OSM   H12T10986   2.589   2.681   9.451  0.4088 -0.0456 -0.2045
  107OSM   C13S10987   2.382   2.652   9.386 -0.7296  0.5868 -0.3078
  107OSM   H13S10988   2.365   2.760   9.369 -0.7078  0.8543  1.3307
  107OSM   H13T10989   2.288   2.609   9.428 -0.8945  2.5935  1.4552
  107OSM   C14S10990   2.403   2.580   9.258 -0.6785  0.1657 -0.3264
  107OSM   H14S10991   2.404   2.471   9.279 -2.0566 -0.2361 -2.2270
  107OSM   H14T10992   2.497   2.601   9.202 -0.9793  0.6446 -0.6567
  107OSM   C15S10993   2.291   2.623   9.153 -0.5266  0.1595 -0.1790
  107OSM   H15S10994   2.298   2.734   9.147 -0.2436  0.0803 -1.6649
  107OSM   H15T10995   2.190   2.593   9.189 -1.4468  0.2606 -2.5575
  107OSM   C16S10996   2.322   2.561   9.014  0.6276 -0.6580  0.1915
  107OSM   H16S10997   2.315   2.450   9.022  1.6571 -0.6762  1.0464
  107OSM   H16T10998   2.423   2.585   8.974  1.2448 -2.2842  0.7233
  107OSM   C17S10999   2.224   2.607   8.909  0.1808 -0.5445 -0.1488
  107OSM   H17S11000   2.250   2.712   8.881  0.9560 -1.0545 -1.3625
  107OSM   H17T11001   2.124   2.621   8.956  0.4535 -2.7824  1.1227
  107OSM   C18S11002   2.219   2.518   8.786  0.0935  0.9596 -0.5679
  107OSM   H18S11003   2.324   2.496   8.757  0.4453  0.4146  1.1029
  107OSM   H18T11004   2.148   2.552   8.707 -0.0304  0.3470 -0.7169
  107OSM   H18U11005   2.178   2.424   8.827 -1.0362  1.4546 -0.5388
  107OSM    C1F11006   1.940   2.288  10.520  0.0804  0.2472 -1.1935
  107OSM     OF11007   1.820   2.314  10.507 -0.0831 -0.2981 -0.3362
  107OSM    C2F11008   1.995   2.147  10.511  0.4950  1.1655  0.7849
  107OSM    H2F11009   1.985   2.093  10.607 -3.0546 -2.4798 -1.5071
  107OSM    H2G11010   2.105   2.145  10.492  0.2099 -0.2051 -0.8370
  107OSM    C3F11011   1.935   2.059  10.393  0.3473 -0.5899  0.1359
  107OSM    H3F11012   1.836   2.029  10.433 -0.1672  0.4326 -0.3745
  107OSM    H3G11013   1.998   1.968  10.383  0.8374 -0.1661 -0.7150
  107OSM    C4F11014   1.931   2.135  10.260 -0.0012  0.7353  0.3508
  107OSM    H4F11015   1.898   2.241  10.264 -1.9684  0.3419 -2.9830
  107OSM    H4G11016   1.855   2.086  10.195  0.9449 -1.0729  0.5700
  107OSM    C5F11017   2.067   2.136  10.182 -0.0130 -0.4293  0.7249
  107OSM    H5F11018   2.093   2.031  10.155  1.5776  0.3755 -1.0104
  107OSM    H5G11019   2.150   2.176  10.244 -2.0647  1.8415  2.0571
  107OSM    C6F11020   2.065   2.202  10.046  0.0627 -0.6253  0.6225
  107OSM    H6F11021   2.030   2.308  10.051 -1.9918 -1.1940 -1.0543
  107OSM    H6G11022   1.992   2.144   9.987 -0.5513 -0.4530  1.2153
  107OSM    C7F11023   2.192   2.192   9.962  0.5327 -0.0239  0.0407
  107OSM    H7F11024   2.224   2.086   9.949 -0.3475 -0.2091 -0.6547
  107OSM    H7G11025   2.270   2.253  10.012 -1.3368  1.4566  1.2034
  107OSM    C8F11026   2.170   2.237   9.811  0.4685  0.2407 -0.1782
  107OSM    H8F11027   2.129   2.340   9.815  1.0099  0.4246  0.8610
  107OSM    H8G11028   2.098   2.169   9.760  1.2685 -0.7599  0.0051
  107OSM    C9F11029   2.286   2.245   9.720  0.3856  0.5071 -0.7840
  107OSM    H9F11030   2.376   2.212   9.774 -0.7418 -0.7274  0.3980
  107OSM   C10F11031   2.284   2.272   9.585 -0.7682 -0.0273  0.1094
  107OSM   H10F11032   2.384   2.263   9.539 -1.4289 -0.9388 -1.1932
  107OSM   C11F11033   2.163   2.300   9.492 -0.2092  0.2269 -0.1361
  107OSM   H11F11034   2.153   2.409   9.472 -0.2744  0.5182  1.3866
  107OSM   H11G11035   2.070   2.277   9.549 -1.1879  2.0873 -0.9235
  107OSM   C12F11036   2.156   2.236   9.351 -0.4954  0.8369  0.0600
  107OSM   H12F11037   2.150   2.125   9.358 -1.8950  1.0811  4.4022
  107OSM   H12G11038   2.247   2.255   9.291 -1.3811  1.3030 -1.1693
  107OSM   C13F11039   2.031   2.290   9.275  0.4807 -0.0815  0.3296
  107OSM   H13F11040   2.048   2.399   9.258  1.8843 -0.2700  0.4757
  107OSM   H13G11041   1.945   2.284   9.345 -0.7005  3.3167 -0.7074
  107OSM   C14F11042   2.007   2.207   9.146  0.0990  0.1866  0.2438
  107OSM   H14F11043   1.904   2.236   9.115 -0.5607  0.2265  2.3359
  107OSM   H14G11044   1.996   2.102   9.180 -1.8755  0.0975 -0.6232
  107OSM   C15F11045   2.101   2.239   9.031  0.5407  0.0895  0.5401
  107OSM   H15F11046   2.203   2.205   9.057  1.4241  1.5030 -1.0010
  107OSM   H15G11047   2.113   2.349   9.019 -1.8363  0.2156 -1.1813
  107OSM   C16F11048   2.050   2.186   8.895  0.5182 -0.0921  0.3090
  107OSM   H16F11049   2.116   2.220   8.812  1.0940 -0.4074  0.6272
  107OSM   H16G11050   1.947   2.221   8.872  0.8377  0.3369 -0.5092
  107OSM   C17F11051   2.045   2.035   8.904 -0.7386 -0.1337  0.1888
  107OSM   H17F11052   1.957   2.009   8.966 -1.3144 -0.8373 -0.8957
  107OSM   H17G11053   2.138   2.003   8.955  0.0608  0.2742 -1.0038
  107OSM   C18F11054   2.046   1.955   8.771  0.3540 -0.5076 -0.3822
  107OSM   H18F11055   2.030   1.847   8.794 -0.2826 -0.3680 -0.1508
  107OSM   H18G11056   2.151   1.949   8.735 -0.0415  0.2745 -1.6742
  107OSM   H18H11057   1.978   1.986   8.689  1.7903 -0.8233 -1.7106
  108OSM      N11058   5.877   6.584  11.317 -0.6380 -0.5644  0.4347
  108OSM    C1511059   5.960   6.467  11.282  0.2719  0.2209 -0.1043
  108OSM   H15A11060   6.043   6.493  11.219 -0.0718  0.9358 -0.2771
  108OSM   H15B11061   5.904   6.398  11.221 -0.8930  0.0039  1.1685
  108OSM   H15C11062   5.985   6.418  11.375 -2.0443  2.8709  2.0140
  108OSM    C1411063   5.763   6.538  11.405 -0.3131  0.0807 -0.0660
  108OSM   H14A11064   5.699   6.466  11.355 -1.0995 -0.1845  1.2725
  108OSM   H14B11065   5.695   6.620  11.423 -0.3072  0.1481 -0.3561
  108OSM   H14C11066   5.780   6.511  11.508 -1.5218  0.2695  0.1901
  108OSM    C1311067   5.965   6.677  11.392 -0.0005 -0.1071  0.5568
  108OSM   H13A11068   6.053   6.693  11.331  0.9937 -0.5403  1.8504
  108OSM   H13B11069   5.996   6.635  11.487 -2.2283  1.0594  1.8401
  108OSM   H13C11070   5.910   6.765  11.420  2.0479  2.0049 -1.8212
  108OSM    C1211071   5.819   6.645  11.194 -0.8422 -0.1141 -0.3821
  108OSM   H12A11072   5.778   6.742  11.216 -0.5416 -0.5678  2.3917
  108OSM   H12B11073   5.740   6.582  11.156 -1.6382  0.4653  0.3076
  108OSM    C1111074   5.919   6.660  11.082 -0.3977  0.5079  0.1129
  108OSM   H11A11075   6.010   6.715  11.116  0.2079 -1.4050  1.7243
  108OSM   H11B11076   5.868   6.732  11.015  0.1740  1.6944  0.9222
  108OSM      P11077   6.087   6.527  10.918  0.0788 -0.4083 -0.3239
  108OSM    O1311078   6.156   6.654  10.906 -0.5902 -0.7178  0.3559
  108OSM    O1411079   6.153   6.414  10.980 -0.4825 -0.4365  1.0626
  108OSM    O1111080   6.041   6.490  10.773 -0.2674 -0.3569  0.1287
  108OSM    O1211081   5.944   6.546  10.999 -1.1896  0.3627 -0.0758
  108OSM    C1S11082   5.982   6.576  10.680 -1.0049  0.9679 -0.0672
  108OSM    H1S11083   6.035   6.674  10.674  1.5771 -0.5112 -2.5509
  108OSM    H1T11084   5.875   6.595  10.706 -1.3212 -1.1267  0.2525
  108OSM     NF11085   5.926   6.610  10.442 -0.5528 -0.2966 -0.4002
  108OSM    HNF11086   5.828   6.604  10.427 -1.0667  0.6553  2.3646
  108OSM    C2S11087   5.987   6.514  10.529 -0.2761 -0.8710 -0.3491
  108OSM    H2S11088   6.095   6.510  10.506 -0.2788  2.7870 -1.4423
  108OSM    C3S11089   5.926   6.375  10.529 -0.3578  0.6741 -0.0976
  108OSM    H3S11090   5.821   6.380  10.567 -0.3907  2.2501 -0.3737
  108OSM     O311091   6.004   6.286  10.612  0.1552  0.6525  0.0485
  108OSM    HO311092   6.050   6.346  10.671  0.2463  0.8367 -0.2038
  108OSM    C4S11093   5.920   6.323  10.388 -0.3059 -0.5550 -0.3164
  108OSM    H4S11094   5.828   6.355  10.337 -0.9143 -0.8709  0.5673
  108OSM    C5S11095   6.011   6.248  10.314  0.3504  0.7301 -0.1691
  108OSM    H5S11096   6.107   6.219  10.358  1.6728  3.1210 -1.4226
  108OSM    C6S11097   5.988   6.211  10.170 -0.2232 -0.6400 -0.3471
  108OSM    H6S11098   5.937   6.113  10.155 -1.9176  0.2649 -0.6737
  108OSM    H6T11099   6.088   6.210  10.121  1.0713 -2.5106  2.2227
  108OSM    C7S11100   5.902   6.305  10.084  0.5074 -0.2222 -0.3648
  108OSM    H7S11101   5.955   6.403  10.085 -0.7931  0.4813  0.9531
  108OSM    H7T11102   5.804   6.323  10.134  1.1153 -0.6280  1.0074
  108OSM    C8S11103   5.875   6.265   9.943  0.0562 -0.1877 -0.6763
  108OSM    H8S11104   5.826   6.165   9.943  0.3425 -0.3395 -1.7864
  108OSM    H8T11105   5.970   6.252   9.886  0.4950 -0.6016  0.1481
  108OSM    C9S11106   5.792   6.368   9.866  0.4729  0.5074  1.1879
  108OSM    H9S11107   5.859   6.456   9.860 -0.2431  1.2334  3.3098
  108OSM    H9T11108   5.702   6.402   9.922 -0.9419 -1.0878 -0.0502
  108OSM   C10S11109   5.753   6.314   9.725 -0.0285  0.3172  0.1639
  108OSM   H10S11110   5.671   6.241   9.746 -0.8761  1.8766  2.4604
  108OSM   H10T11111   5.841   6.261   9.684 -1.0085  0.2479 -1.9317
  108OSM   C11S11112   5.703   6.424   9.637  0.5986 -0.3335 -0.2606
  108OSM   H11S11113   5.768   6.514   9.629  0.2297 -0.1540 -1.3651
  108OSM   H11T11114   5.605   6.464   9.670  0.2375 -0.1223 -1.5759
  108OSM   C12S11115   5.677   6.382   9.486  0.8902  0.2488 -0.4414
  108OSM   H12S11116   5.602   6.299   9.485  0.3099  0.5910  3.8663
  108OSM   H12T11117   5.776   6.352   9.445  0.3538  0.6855 -2.0822
  108OSM   C13S11118   5.623   6.502   9.400  0.3617 -0.1491  1.1011
  108OSM   H13S11119   5.697   6.585   9.403  0.1967  0.0499 -0.2189
  108OSM   H13T11120   5.535   6.541   9.456  0.1401  2.3944 -0.9252
  108OSM   C14S11121   5.593   6.475   9.249  0.6430  0.0922 -0.4267
  108OSM   H14S11122   5.524   6.549   9.204 -1.0451 -0.8441  0.5900
  108OSM   H14T11123   5.543   6.376   9.245  1.9198 -0.5503 -0.6123
  108OSM   C15S11124   5.728   6.471   9.169  0.2476  0.3393  0.1262
  108OSM   H15S11125   5.769   6.369   9.180 -2.0861 -0.5567  1.0070
  108OSM   H15T11126   5.799   6.543   9.213  0.5837  0.0170  0.1117
  108OSM   C16S11127   5.709   6.495   9.021 -0.1331  0.1911 -0.1771
  108OSM   H16S11128   5.799   6.497   8.956 -0.4860  4.5400 -0.7204
  108OSM   H16T11129   5.667   6.596   9.002 -0.5485 -0.3663 -2.2452
  108OSM   C17S11130   5.619   6.380   8.962 -0.3522 -0.6885 -0.7641
  108OSM   H17S11131   5.517   6.397   9.003 -0.2628  2.1755 -1.5610
  108OSM   H17T11132   5.651   6.283   9.004 -0.2570  0.4857  1.9859
  108OSM   C18S11133   5.607   6.380   8.810 -0.4935  0.4879  0.3227
  108OSM   H18S11134   5.569   6.476   8.768 -0.2077  0.7481  0.6520
  108OSM   H18T11135   5.556   6.292   8.766 -0.5797  0.4654  0.4699
  108OSM   H18U11136   5.713   6.390   8.778 -0.1590  1.7783  1.7835
  108OSM    C1F11137   5.989   6.733  10.420  0.5899  0.0600 -0.9433
  108OSM     OF11138   6.104   6.749  10.450 -0.4602  0.7006 -0.5011
  108OSM    C2F11139   5.910   6.849  10.374 -0.4727 -0.1808 -0.6569
  108OSM    H2F11140   5.887   6.922  10.454 -0.5972  0.8733 -1.6396
  108OSM    H2G11141   5.813   6.825  10.326 -1.5463  2.7894 -0.0603
  108OSM    C3F11142   5.994   6.932  10.264 -0.0523 -0.0361 -0.3650
  108OSM    H3F11143   6.025   6.873  10.176  2.8776  0.0549  0.5542
  108OSM    H3G11144   6.084   6.975  10.312 -0.4894  0.4756  0.0032
  108OSM    C4F11145   5.905   7.035  10.203 -0.4852 -0.3807  0.2423
  108OSM    H4F11146   5.856   7.101  10.277 -1.6999 -2.0215  0.9281
  108OSM    H4G11147   5.822   6.987  10.146 -0.7339  0.7744 -0.3794
  108OSM    C5F11148   5.961   7.129  10.096 -0.1999 -0.0532 -0.2437
  108OSM    H5F11149   6.055   7.165  10.144  0.7018  1.4351 -3.0217
  108OSM    H5G11150   5.895   7.218  10.096  1.6976  1.3888  0.9040
  108OSM    C6F11151   5.978   7.057   9.958 -0.0402  0.0193 -0.2537
  108OSM    H6F11152   6.036   6.963   9.973 -0.7944 -0.1385  1.9083
  108OSM    H6G11153   6.044   7.118   9.893 -1.3710  0.0594 -1.6048
  108OSM    C7F11154   5.843   7.039   9.892 -0.3568  0.4827  0.1819
  108OSM    H7F11155   5.794   7.138   9.880  1.7728  1.9801  3.0899
  108OSM    H7G11156   5.773   6.989   9.963 -0.3727 -1.0726 -0.9076
  108OSM    C8F11157   5.845   6.961   9.761 -1.0038  0.2051  0.0275
  108OSM    H8F11158   5.902   6.868   9.779 -0.1753  0.8294  0.6529
  108OSM    H8G11159   5.914   7.009   9.688 -0.8766  0.7561  0.5071
  108OSM    C9F11160   5.713   6.919   9.709  0.0419  0.4399  0.4453
  108OSM    H9F11161   5.625   6.902   9.774 -0.5793 -0.2205 -0.5597
  108OSM   C10F11162   5.685   6.918   9.580  0.1101 -0.1107 -0.2500
  108OSM   H10F11163   5.586   6.881   9.550 -0.9369  1.7374  0.8382
  108OSM   C11F11164   5.784   6.945   9.468 -0.2869 -0.0124 -0.0919
  108OSM   H11F11165   5.822   6.841   9.458 -2.3621 -0.9705  1.4566
  108OSM   H11G11166   5.865   7.015   9.497  1.1405 -1.3708 -0.7128
  108OSM   C12F11167   5.711   6.990   9.341  0.2971  0.1343  0.4254
  108OSM   H12F11168   5.775   7.037   9.263  0.5642  0.1667  0.6641
  108OSM   H12G11169   5.631   7.062   9.369  2.2946  1.8065  1.9944
  108OSM   C13F11170   5.640   6.872   9.262  0.3107  0.5424  0.1455
  108OSM   H13F11171   5.559   6.837   9.329  2.1296  0.4624  2.3970
  108OSM   H13G11172   5.713   6.790   9.246 -1.2238 -0.2551 -3.1177
  108OSM   C14F11173   5.571   6.916   9.129  0.3889 -0.6447  0.3686
  108OSM   H14F11174   5.636   6.936   9.041 -2.3132  0.2418 -1.4656
  108OSM   H14G11175   5.513   7.010   9.142 -0.6150 -1.1660 -0.2708
  108OSM   C15F11176   5.472   6.808   9.086  0.2442 -0.0437 -0.2123
  108OSM   H15F11177   5.383   6.807   9.153  1.2860 -0.3893  1.1997
  108OSM   H15G11178   5.526   6.715   9.116 -1.4525 -0.7584  0.6920
  108OSM   C16F11179   5.421   6.829   8.942  0.3231 -0.4363 -0.1141
  108OSM   H16F11180   5.503   6.862   8.875  0.8907  1.0987  1.3068
  108OSM   H16G11181   5.344   6.909   8.941  0.5822 -0.1304  1.9788
  108OSM   C17F11182   5.338   6.712   8.877  0.2202 -0.6146  0.3230
  108OSM   H17F11183   5.255   6.675   8.941  0.0292 -1.9459 -0.6577
  108OSM   H17G11184   5.403   6.622   8.873  1.1810  0.0712  0.3089
  108OSM   C18F11185   5.285   6.758   8.735 -0.1563 -0.0703 -0.2527
  108OSM   H18F11186   5.367   6.798   8.672  0.1102 -0.8777 -0.4279
  108OSM   H18G11187   5.205   6.834   8.742 -1.7295 -1.7184  0.1590
  108OSM   H18H11188   5.242   6.674   8.676 -1.4606 -0.4734  1.1990
  109OSM      N11189   6.455   0.049  10.661  0.8162 -0.0019 -0.5722
  109OSM    C1511190   6.343  -0.045  10.636 -0.4003  0.0160  0.6050
  109OSM   H15A11191   6.373  -0.104  10.551 -0.5957  2.6475 -1.3649
  109OSM   H15B11192   6.251   0.011  10.630 -0.5024 -0.3247 -1.1789
  109OSM   H15C11193   6.328  -0.115  10.716  1.4467  0.6361  1.5150
  109OSM    C1411194   6.418   0.139  10.777 -0.5410  0.3206  0.1739
  109OSM   H14A11195   6.399   0.076  10.863 -0.1394 -2.4643 -1.7127
  109OSM   H14B11196   6.330   0.197  10.756  0.9680  2.2981 -0.9404
  109OSM   H14C11197   6.506   0.193  10.810  0.7765 -2.1780  0.8963
  109OSM    C1311198   6.566  -0.032  10.710 -0.1208  0.3037 -0.2832
  109OSM   H13A11199   6.652   0.030  10.732 -0.1199 -0.8229  3.2776
  109OSM   H13B11200   6.602  -0.108  10.644 -2.1084 -0.7007 -0.2440
  109OSM   H13C11201   6.537  -0.079  10.802  2.2459  0.8959  0.8171
  109OSM    C1211202   6.490   0.144  10.545  0.3447  0.0301 -0.4799
  109OSM   H12A11203   6.547   0.090  10.471 -0.2726 -0.3584 -0.6786
  109OSM   H12B11204   6.550   0.224  10.586  1.1863 -1.1479  0.6051
  109OSM    C1111205   6.383   0.218  10.469  0.2130  0.2791  0.3322
  109OSM   H11A11206   6.307   0.153  10.421 -0.5802  1.7545 -0.4656
  109OSM   H11B11207   6.430   0.260  10.378 -1.4160  0.8062 -0.2821
  109OSM      P11208   6.399   0.442  10.596  0.4569 -0.0662  0.0014
  109OSM    O1311209   6.328   0.507  10.705 -0.2436  0.2371  0.5684
  109OSM    O1411210   6.541   0.415  10.629  0.7954 -0.0347  0.4633
  109OSM    O1111211   6.386   0.536  10.469 -0.2635  0.0351  0.4462
  109OSM    O1211212   6.316   0.311  10.550 -0.7126  0.3623 -0.3965
  109OSM    C1S11213   6.513   0.583  10.411  0.7234  0.5092  0.5493
  109OSM    H1S11214   6.599   0.515  10.433  0.8503  0.7342  0.7501
  109OSM    H1T11215   6.530   0.684  10.453  0.8174  0.4119  0.7526
  109OSM     NF11216   6.622   0.622  10.185 -0.2373 -0.2611 -0.2586
  109OSM    HNF11217   6.642   0.717  10.163 -1.6732 -0.0125 -0.5690
  109OSM    C2S11218   6.496   0.602  10.256 -0.2459 -0.0983  0.2061
  109OSM    H2S11219   6.449   0.502  10.245  0.0679 -0.5715  2.8502
  109OSM    C3S11220   6.385   0.705  10.222 -0.0512 -0.3496  0.6810
  109OSM    H3S11221   6.407   0.805  10.266 -2.6593 -0.2166  1.7915
  109OSM     O311222   6.260   0.664  10.271 -0.3374 -0.2263  0.4585
  109OSM    HO311223   6.286   0.602  10.339 -0.0534  0.8915  1.3997
  109OSM    C4S11224   6.370   0.725  10.072 -0.3631 -0.1269  0.6462
  109OSM    H4S11225   6.356   0.633  10.012 -1.0705  0.9310 -0.8421
  109OSM    C5S11226   6.388   0.847  10.006  0.1780 -0.0245  0.1457
  109OSM    H5S11227   6.427   0.931  10.064 -1.8939  1.2444 -0.2439
  109OSM    C6S11228   6.384   0.875   9.860 -0.3239  0.0705  0.0797
  109OSM    H6S11229   6.462   0.953   9.845 -0.4428  0.5475  1.7693
  109OSM    H6T11230   6.295   0.937   9.837 -0.1816 -0.2181 -1.2602
  109OSM    C7S11231   6.389   0.766   9.755  0.6834 -0.0914 -0.2976
  109OSM    H7S11232   6.315   0.685   9.772  1.5051 -0.7711  0.1039
  109OSM    H7T11233   6.484   0.708   9.757  0.3358 -0.6004  2.1582
  109OSM    C8S11234   6.370   0.824   9.622 -0.0640 -0.2300  0.0888
  109OSM    H8S11235   6.440   0.909   9.611 -0.1900 -0.2997 -1.4447
  109OSM    H8T11236   6.265   0.856   9.603  0.7017  1.2033 -1.9874
  109OSM    C9S11237   6.398   0.712   9.509 -0.0527  0.0769 -0.6989
  109OSM    H9S11238   6.312   0.642   9.508 -0.3633  0.3683  2.1438
  109OSM    H9T11239   6.482   0.642   9.526  0.5260  0.6025 -1.3615
  109OSM   C10S11240   6.406   0.768   9.368 -0.1254  0.2206 -0.5040
  109OSM   H10S11241   6.500   0.825   9.355  0.8491 -1.4077 -0.8073
  109OSM   H10T11242   6.337   0.854   9.356 -0.4587 -0.3181 -2.5944
  109OSM   C11S11243   6.390   0.661   9.261  0.1055 -0.7040  0.2602
  109OSM   H11S11244   6.304   0.597   9.291  1.0816 -1.6233  1.1465
  109OSM   H11T11245   6.471   0.586   9.251 -2.1502 -3.3802  1.3106
  109OSM   C12S11246   6.361   0.723   9.126  0.0918 -0.0653  0.3151
  109OSM   H12S11247   6.455   0.774   9.096  0.1230 -1.3300 -1.8065
  109OSM   H12T11248   6.287   0.805   9.140 -1.3425 -1.5440  1.6732
  109OSM   C13S11249   6.304   0.625   9.026  0.1607  0.2956  0.0634
  109OSM   H13S11250   6.219   0.562   9.062  0.0389  0.1824 -0.4209
  109OSM   H13T11251   6.385   0.551   9.010  1.5464  1.1971  2.5197
  109OSM   C14S11252   6.267   0.691   8.893 -0.5561 -0.7119  0.3233
  109OSM   H14S11253   6.254   0.615   8.813  3.5570  0.1460 -1.2742
  109OSM   H14T11254   6.344   0.760   8.853  1.8015 -2.8876  0.9732
  109OSM   C15S11255   6.134   0.780   8.900 -0.3866  0.1536  0.2584
  109OSM   H15S11256   6.161   0.867   8.963  1.1335  2.0627 -2.9098
  109OSM   H15T11257   6.058   0.706   8.934 -0.6291  0.0061 -0.5930
  109OSM   C16S11258   6.102   0.815   8.754  0.4288 -0.2862  0.2019
  109OSM   H16S11259   6.003   0.864   8.749  0.3997 -0.2150  1.4976
  109OSM   H16T11260   6.092   0.726   8.687 -0.8544 -0.9274  1.2241
  109OSM   C17S11261   6.193   0.919   8.684  0.0609  0.1411  0.5124
  109OSM   H17S11262   6.160   0.951   8.583 -2.8667  0.8863  1.6446
  109OSM   H17T11263   6.291   0.873   8.659  0.3662  0.6310  0.8015
  109OSM   C18S11264   6.219   1.041   8.763  0.9205  0.0324 -0.1481
  109OSM   H18S11265   6.262   1.120   8.697 -0.8801  0.6644 -0.5778
  109OSM   H18T11266   6.291   1.009   8.841  1.2586  0.9368 -0.0861
  109OSM   H18U11267   6.120   1.069   8.805  0.7206 -2.6357  1.2255
  109OSM    C1F11268   6.721   0.535  10.189  0.4433  0.4673 -0.1387
  109OSM     OF11269   6.705   0.423  10.239  0.3307 -0.4131  0.2788
  109OSM    C2F11270   6.854   0.583  10.140 -0.2837  0.5742 -0.8987
  109OSM    H2F11271   6.932   0.564  10.216 -0.0339  0.7846 -1.1007
  109OSM    H2G11272   6.851   0.694  10.135  1.5661  0.6037 -1.7966
  109OSM    C3F11273   6.900   0.524   9.998  0.4399  0.1894  0.1469
  109OSM    H3F11274   6.895   0.413  10.002  1.1569  0.1042 -1.0087
  109OSM    H3G11275   7.006   0.554   9.983  0.3683 -0.2040 -1.1796
  109OSM    C4F11276   6.810   0.572   9.884  0.4142 -0.6736  0.0311
  109OSM    H4F11277   6.838   0.677   9.860  1.0056 -0.8085  0.1172
  109OSM    H4G11278   6.702   0.557   9.906  0.3041  1.5856  1.2703
  109OSM    C5F11279   6.833   0.475   9.768 -0.4078 -0.7801  0.3592
  109OSM    H5F11280   6.792   0.379   9.804  1.9714 -2.4394 -1.2392
  109OSM    H5G11281   6.938   0.462   9.734 -1.2414 -1.3290 -2.1260
  109OSM    C6F11282   6.777   0.534   9.639  0.2218 -0.2569  0.2674
  109OSM    H6F11283   6.823   0.632   9.615  1.7744 -0.9980  0.2117
  109OSM    H6G11284   6.671   0.567   9.645  0.7174  2.0434 -2.4662
  109OSM    C7F11285   6.791   0.443   9.519  0.5518 -0.7638 -0.4733
  109OSM    H7F11286   6.734   0.349   9.536  0.0732  0.0654  2.8403
  109OSM    H7G11287   6.900   0.424   9.509  1.1621  2.1406  0.2365
  109OSM    C8F11288   6.728   0.492   9.383  0.2423 -0.2652  0.5871
  109OSM    H8F11289   6.757   0.598   9.366 -1.5129 -0.3114 -3.3407
  109OSM    H8G11290   6.617   0.502   9.387  0.0733 -1.9638  0.2153
  109OSM    C9F11291   6.757   0.411   9.257 -0.0830  0.4168 -1.0135
  109OSM    H9F11292   6.703   0.317   9.239 -0.0301  0.6938 -2.7390
  109OSM   C10F11293   6.836   0.463   9.157 -0.1779  0.6371  0.2652
  109OSM   H10F11294   6.855   0.401   9.068 -0.8178 -1.1344  1.3427
  109OSM   C11F11295   6.913   0.592   9.146  0.3723  0.8887  0.1303
  109OSM   H11F11296   7.014   0.581   9.191  0.3378 -1.4399 -0.3404
  109OSM   H11G11297   6.859   0.675   9.197  0.1345 -0.2408  1.7500
  109OSM   C12F11298   6.924   0.623   8.996  0.9191  0.2323 -0.2297
  109OSM   H12F11299   6.819   0.647   8.968  0.7423 -0.6029 -0.2825
  109OSM   H12G11300   6.942   0.538   8.927  1.0858 -0.0972  0.2119
  109OSM   C13F11301   7.020   0.736   8.947  0.2769  0.3437 -1.2156
  109OSM   H13F11302   7.126   0.703   8.956 -0.0505 -0.5007 -0.3397
  109OSM   H13G11303   6.994   0.824   9.010 -1.1006 -1.9245  1.5352
  109OSM   C14F11304   6.991   0.785   8.805 -0.1279 -0.1271 -0.2573
  109OSM   H14F11305   7.038   0.883   8.781  1.9263 -1.6966 -2.9693
  109OSM   H14G11306   6.883   0.798   8.778 -0.1006 -2.6912 -1.8363
  109OSM   C15F11307   7.053   0.693   8.697  0.8804 -0.0393  0.1619
  109OSM   H15F11308   6.997   0.597   8.708 -0.0253  0.5160  0.4001
  109OSM   H15G11309   7.164   0.685   8.702  1.1732  2.0739 -1.8845
  109OSM   C16F11310   7.045   0.750   8.548 -0.2958  0.5275  0.4625
  109OSM   H16F11311   7.109   0.840   8.540 -1.6926  1.4060 -1.1148
  109OSM   H16G11312   6.940   0.786   8.537  0.6578  3.2091  0.0056
  109OSM   C17F11313   7.089   0.658   8.433  0.1811  0.1628  0.3628
  109OSM   H17F11314   7.077   0.716   8.338 -2.9257 -1.8386 -0.5424
  109OSM   H17G11315   7.018   0.572   8.431  0.2420  0.1262 -2.5766
  109OSM   C18F11316   7.235   0.618   8.431  0.6422 -0.2691 -0.5799
  109OSM   H18F11317   7.265   0.561   8.521 -0.2649 -0.4107 -0.3696
  109OSM   H18G11318   7.310   0.698   8.412 -0.3025  1.1132  1.3723
  109OSM   H18H11319   7.240   0.541   8.351 -0.9176 -2.4575  1.3580
  110OSM      N11320   1.325   6.269  10.624 -0.7852  0.2619 -0.1725
  110OSM    C1511321   1.287   6.278  10.482 -0.6947 -0.3861  0.4415
  110OSM   H15A11322   1.200   6.340  10.471  0.8540  1.7626  0.0829
  110OSM   H15B11323   1.273   6.190  10.421 -1.0207  0.0310 -0.0935
  110OSM   H15C11324   1.365   6.331  10.430 -1.3206  0.3450  0.2557
  110OSM    C1411325   1.203   6.229  10.710  0.2251  0.3317  0.4518
  110OSM   H14A11326   1.222   6.217  10.816 -1.1713  2.3482  0.9621
  110OSM   H14B11327   1.173   6.129  10.685 -1.1296  0.1572  2.6251
  110OSM   H14C11328   1.119   6.298  10.706  0.8825  1.0756 -1.1968
  110OSM    C1311329   1.440   6.177  10.653 -0.2077 -0.0272 -0.4312
  110OSM   H13A11330   1.514   6.181  10.574  1.6734 -2.2414  1.1738
  110OSM   H13B11331   1.401   6.077  10.653 -1.7277  0.5435 -1.5804
  110OSM   H13C11332   1.497   6.207  10.740  0.9477  0.1059 -1.2127
  110OSM    C1211333   1.360   6.411  10.657  0.5094  0.4031  0.1990
  110OSM   H12A11334   1.268   6.463  10.636  2.0497  1.7071 -3.7530
  110OSM   H12B11335   1.431   6.448  10.584  1.0753 -1.2212 -0.0864
  110OSM    C1111336   1.402   6.457  10.801 -0.1071 -0.1948 -0.3785
  110OSM   H11A11337   1.317   6.440  10.870 -0.0564 -0.9696 -0.4970
  110OSM   H11B11338   1.436   6.562  10.808 -0.8287  0.0715 -0.8725
  110OSM      P11339   1.669   6.429  10.836  0.3775 -0.0390 -0.2480
  110OSM    O1311340   1.710   6.521  10.940 -0.6014  0.4502 -0.1088
  110OSM    O1411341   1.746   6.299  10.829 -0.2483  0.0391  0.0202
  110OSM    O1111342   1.675   6.503  10.699  0.2324 -0.7220  0.4425
  110OSM    O1211343   1.516   6.389  10.855  0.5330  0.3099  0.4097
  110OSM    C1S11344   1.775   6.479  10.601  0.2427 -0.0419 -0.4592
  110OSM    H1S11345   1.758   6.372  10.573 -2.3095  0.2411 -0.1434
  110OSM    H1T11346   1.878   6.485  10.641 -0.0284 -1.1060  0.4322
  110OSM     NF11347   1.803   6.518  10.352 -0.1040  0.5625 -0.7856
  110OSM    HNF11348   1.875   6.574  10.313  0.1467 -0.3207 -1.6171
  110OSM    C2S11349   1.754   6.576  10.480  0.0645 -0.6976  0.6411
  110OSM    H2S11350   1.644   6.589  10.472  0.2144 -0.0593 -0.4445
  110OSM    C3S11351   1.806   6.719  10.507 -0.0608  0.7204  0.5979
  110OSM    H3S11352   1.915   6.702  10.511 -0.4249 -2.3478 -0.8829
  110OSM     O311353   1.754   6.773  10.622 -0.0721  0.1211 -0.0138
  110OSM    HO311354   1.683   6.716  10.654  1.2640 -0.3047  2.3611
  110OSM    C4S11355   1.765   6.812  10.393 -1.0149  0.5054  0.1209
  110OSM    H4S11356   1.659   6.833  10.377 -1.5468 -0.8266  1.7080
  110OSM    C5S11357   1.849   6.876  10.316 -0.0191  0.2696 -0.5224
  110OSM    H5S11358   1.958   6.868  10.332  0.1626  1.4582 -1.0797
  110OSM    C6S11359   1.809   6.977  10.209 -0.0300  0.0575 -0.1057
  110OSM    H6S11360   1.873   7.067  10.215 -0.3358  0.3487 -1.1427
  110OSM    H6T11361   1.705   7.014  10.217 -0.5887 -0.7394 -3.0502
  110OSM    C7S11362   1.822   6.900  10.076  0.3786  0.0749  0.0304
  110OSM    H7S11363   1.744   6.826  10.051 -0.8364  1.2075  0.3947
  110OSM    H7T11364   1.918   6.844  10.069  0.0104 -0.4494 -0.8835
  110OSM    C8S11365   1.841   6.999   9.956  0.6579 -0.2102 -1.1148
  110OSM    H8S11366   1.922   7.070   9.983  0.4337  0.5907 -2.5409
  110OSM    H8T11367   1.751   7.055   9.925  0.5218 -0.0190 -0.3772
  110OSM    C9S11368   1.891   6.933   9.836 -0.2635 -0.0283  0.1836
  110OSM    H9S11369   1.844   6.833   9.820 -0.3073  0.3890 -2.6462
  110OSM    H9T11370   1.993   6.891   9.851  0.4540  2.2426  1.7749
  110OSM   C10S11371   1.877   7.017   9.705 -0.4434  0.2604 -0.3075
  110OSM   H10S11372   1.936   7.109   9.727  0.0786 -0.4208  1.2699
  110OSM   H10T11373   1.768   7.034   9.700 -0.9603 -1.7937  2.5891
  110OSM   C11S11374   1.927   6.946   9.573  0.5690  0.0511 -0.7341
  110OSM   H11S11375   1.844   6.878   9.544  1.3901 -2.2700  2.0634
  110OSM   H11T11376   2.018   6.889   9.603  1.2550  1.1882 -0.6120
  110OSM   C12S11377   1.956   7.054   9.467  0.1462  0.3474  0.2134
  110OSM   H12S11378   2.051   7.103   9.496  2.0255 -0.9780 -3.3700
  110OSM   H12T11379   1.866   7.118   9.455 -0.7385 -1.2801 -2.2829
  110OSM   C13S11380   1.990   7.000   9.329  0.3634  0.5219 -0.7455
  110OSM   H13S11381   1.914   6.930   9.288 -0.4091  0.2828  1.0731
  110OSM   H13T11382   2.093   6.959   9.323  0.2845 -0.0296  1.4107
  110OSM   C14S11383   1.977   7.116   9.222 -0.8549 -0.8328 -0.5127
  110OSM   H14S11384   2.060   7.184   9.251 -0.4052 -0.6668 -2.1494
  110OSM   H14T11385   1.880   7.169   9.237  0.4522  1.4205  0.3735
  110OSM   C15S11386   1.993   7.074   9.079  0.0019  0.1428  0.1979
  110OSM   H15S11387   1.901   7.026   9.040 -0.1688  1.2141 -0.7261
  110OSM   H15T11388   2.079   7.006   9.062 -0.3641  0.5149 -3.6434
  110OSM   C16S11389   2.026   7.205   8.996 -0.5298  0.1249 -0.0005
  110OSM   H16S11390   2.125   7.243   9.026 -1.3798  0.5032  2.4048
  110OSM   H16T11391   1.946   7.277   9.022 -0.2578 -0.2691  1.9824
  110OSM   C17S11392   2.024   7.173   8.848  0.0767  0.2779  0.4029
  110OSM   H17S11393   2.075   7.076   8.832  0.1074  0.5677 -1.3662
  110OSM   H17T11394   2.083   7.254   8.799  1.3447  0.2529  1.8388
  110OSM   C18S11395   1.888   7.164   8.787  0.0469  0.4602 -0.1940
  110OSM   H18S11396   1.880   7.102   8.695  1.1205 -0.4013  0.2754
  110OSM   H18T11397   1.838   7.262   8.770  0.7431  0.6404 -1.2406
  110OSM   H18U11398   1.821   7.110   8.857  2.2237 -0.1360  1.5082
  110OSM    C1F11399   1.770   6.402  10.297  0.5964  0.7458 -0.1634
  110OSM     OF11400   1.690   6.331  10.350 -0.1267 -0.0677  0.3811
  110OSM    C2F11401   1.842   6.368  10.172  0.5169 -0.3236 -0.2324
  110OSM    H2F11402   1.950   6.349  10.190  0.9769  2.6229  0.3532
  110OSM    H2G11403   1.834   6.459  10.108  2.2026  1.3089  1.7626
  110OSM    C3F11404   1.786   6.244  10.100 -0.1663 -0.6925  0.3042
  110OSM    H3F11405   1.761   6.158  10.166 -1.4364  0.0948  0.8537
  110OSM    H3G11406   1.863   6.216  10.024 -1.7095 -2.8322 -0.5395
  110OSM    C4F11407   1.655   6.283  10.027 -0.1163  0.0849 -0.0183
  110OSM    H4F11408   1.667   6.384   9.982  1.0516 -0.6358 -1.3559
  110OSM    H4G11409   1.580   6.295  10.108 -0.2081 -1.4355  0.1335
  110OSM    C5F11410   1.617   6.166   9.942 -0.2672 -0.1284 -0.2588
  110OSM    H5F11411   1.611   6.084  10.016  0.8695  1.6629  1.8960
  110OSM    H5G11412   1.699   6.137   9.873 -0.2990 -0.7456 -0.0407
  110OSM    C6F11413   1.479   6.180   9.866 -0.6323 -0.1599  0.2301
  110OSM    H6F11414   1.402   6.204   9.943  0.1918 -1.7210  1.5660
  110OSM    H6G11415   1.456   6.088   9.807 -0.4588 -0.9266  1.3413
  110OSM    C7F11416   1.476   6.289   9.757  0.8409  1.0417 -0.2902
  110OSM    H7F11417   1.508   6.383   9.807  0.3567  2.6854 -2.9841
  110OSM    H7G11418   1.375   6.317   9.721  0.9707 -0.7001 -2.0710
  110OSM    C8F11419   1.565   6.252   9.642 -0.1185  0.2288 -0.3501
  110OSM    H8F11420   1.535   6.156   9.594  1.6238 -1.2324  1.3725
  110OSM    H8G11421   1.660   6.220   9.691 -2.8004 -1.6634  3.9228
  110OSM    C9F11422   1.593   6.361   9.540  0.6756 -0.1090  0.0402
  110OSM    H9F11423   1.644   6.444   9.592 -0.0614  1.0851 -1.0978
  110OSM   C10F11424   1.568   6.363   9.409  0.0390  0.1296 -0.0438
  110OSM   H10F11425   1.601   6.447   9.345  0.4660 -0.1881 -0.2507
  110OSM   C11F11426   1.492   6.257   9.329  0.5868  0.2114  0.2460
  110OSM   H11F11427   1.384   6.283   9.327  0.4522 -0.2786  1.1470
  110OSM   H11G11428   1.496   6.154   9.369 -2.2411  0.0618  0.1857
  110OSM   C12F11429   1.530   6.251   9.179  0.0792  0.6735 -0.4910
  110OSM   H12F11430   1.463   6.175   9.134  1.0344 -0.4768  0.0251
  110OSM   H12G11431   1.639   6.232   9.164  0.6737  3.0422  0.5488
  110OSM   C13F11432   1.485   6.376   9.105  0.1015 -0.1649  0.0263
  110OSM   H13F11433   1.517   6.470   9.155 -0.5111  0.3230 -0.4719
  110OSM   H13G11434   1.374   6.380   9.107  0.0306  0.2584 -2.4006
  110OSM   C14F11435   1.531   6.383   8.959  0.0888  0.3291  0.2596
  110OSM   H14F11436   1.605   6.301   8.953  0.5871  0.7202  0.9647
  110OSM   H14G11437   1.592   6.474   8.940 -0.4902  0.4497 -1.0937
  110OSM   C15F11438   1.415   6.361   8.862 -0.3796  0.0337 -0.0757
  110OSM   H15F11439   1.331   6.435   8.869 -2.6650 -2.2840 -1.8882
  110OSM   H15G11440   1.383   6.255   8.866 -1.0438  0.2081 -0.5442
  110OSM   C16F11441   1.476   6.370   8.721 -0.0732 -0.1584 -1.0816
  110OSM   H16F11442   1.540   6.280   8.710  0.5355  0.3839 -2.0385
  110OSM   H16G11443   1.535   6.463   8.708 -1.5298  1.2750  2.1414
  110OSM   C17F11444   1.370   6.377   8.606 -0.0199  0.8523  0.0402
  110OSM   H17F11445   1.274   6.413   8.649 -0.5382 -2.6829  1.9765
  110OSM   H17G11446   1.352   6.277   8.563  1.0366  1.4467 -1.8586
  110OSM   C18F11447   1.411   6.462   8.489 -0.3597 -0.0528 -0.4376
  110OSM   H18F11448   1.418   6.568   8.521 -2.3044 -0.1276  0.3254
  110OSM   H18G11449   1.330   6.451   8.414 -2.9214 -1.4475  2.4162
  110OSM   H18H11450   1.503   6.420   8.442 -0.0632 -1.0849  1.0380
  111OSM      N11451   2.222   3.594  11.211  0.3727 -0.0670  0.5113
  111OSM    C1511452   2.299   3.658  11.331  0.6978 -0.5351  0.0003
  111OSM   H15A11453   2.229   3.678  11.412 -1.7980 -1.1542 -1.9261
  111OSM   H15B11454   2.354   3.747  11.306 -1.9887  0.8099 -1.3929
  111OSM   H15C11455   2.370   3.596  11.383  0.3212 -0.7040  0.3231
  111OSM    C1411456   2.316   3.539  11.120  0.3235 -0.1726 -0.0284
  111OSM   H14A11457   2.365   3.624  11.074  1.3210  0.1673  1.6151
  111OSM   H14B11458   2.276   3.491  11.031 -1.6230 -1.0257  1.2750
  111OSM   H14C11459   2.380   3.461  11.158  0.9455 -0.6922 -2.0746
  111OSM    C1311460   2.145   3.474  11.258  0.9241  0.0833 -0.3613
  111OSM   H13A11461   2.047   3.492  11.302  1.7790 -1.2670  2.1638
  111OSM   H13B11462   2.210   3.426  11.328  0.6944  1.3819  0.7622
  111OSM   H13C11463   2.122   3.415  11.170  2.0156 -2.3148  0.9310
  111OSM    C1211464   2.138   3.699  11.136 -0.2495  0.7196 -0.2322
  111OSM   H12A11465   2.207   3.782  11.126  1.1382 -0.5948 -1.8209
  111OSM   H12B11466   2.053   3.731  11.195 -0.2118 -3.0008  1.9766
  111OSM    C1111467   2.085   3.663  10.994 -0.2912  0.1943  0.1653
  111OSM   H11A11468   2.013   3.739  10.957  0.2527  1.3000  1.3323
  111OSM   H11B11469   2.032   3.566  10.986  2.0244 -1.0183 -1.1961
  111OSM      P11470   2.277   3.772  10.851  0.4247 -0.0285  0.1268
  111OSM    O1311471   2.270   3.883  10.948  0.3244  0.3419  0.1788
  111OSM    O1411472   2.408   3.718  10.816 -0.4447  0.4251 -0.1039
  111OSM    O1111473   2.202   3.821  10.723 -0.2449 -0.4767  0.1577
  111OSM    O1211474   2.194   3.656  10.906  0.2420  0.1857  0.1243
  111OSM    C1S11475   2.152   3.731  10.622 -0.6845  0.3831  0.0935
  111OSM    H1S11476   2.070   3.668  10.661  0.1631 -1.0921 -0.4516
  111OSM    H1T11477   2.235   3.664  10.591 -0.0684  2.2231 -2.3695
  111OSM     NF11478   2.093   3.684  10.391 -0.3422 -0.6936 -0.6087
  111OSM    HNF11479   2.163   3.647  10.330 -1.3118 -0.4149 -1.9089
  111OSM    C2S11480   2.129   3.796  10.482  0.1711  0.1074  1.1883
  111OSM    H2S11481   2.040   3.859  10.503 -0.5858 -0.7731  0.6142
  111OSM    C3S11482   2.258   3.878  10.432  0.8340  0.3478 -0.2584
  111OSM    H3S11483   2.341   3.806  10.419  0.7674  0.1897  0.1670
  111OSM     O311484   2.311   3.970  10.522 -0.5929  0.2331 -0.8408
  111OSM    HO311485   2.272   3.962  10.609 -0.3988 -1.3198 -0.8780
  111OSM    C4S11486   2.225   3.947  10.301  0.4611  0.6338  0.1820
  111OSM    H4S11487   2.258   3.890  10.213 -2.2053  0.2847 -0.6408
  111OSM    C5S11488   2.168   4.069  10.284 -0.6403 -0.3879 -0.6583
  111OSM    H5S11489   2.152   4.137  10.369  1.5714  0.5307 -0.9409
  111OSM    C6S11490   2.148   4.148  10.151  0.2240  0.2002  0.0904
  111OSM    H6S11491   2.216   4.233  10.166 -0.4157  0.5399  1.0904
  111OSM    H6T11492   2.046   4.191  10.147  0.2400  0.1647 -0.8141
  111OSM    C7S11493   2.163   4.060  10.025  0.2333 -0.2018  0.1964
  111OSM    H7S11494   2.082   3.986  10.009 -0.2942  0.1404  1.2684
  111OSM    H7T11495   2.265   4.016  10.021 -1.0915 -3.2171 -2.1657
  111OSM    C8S11496   2.159   4.155   9.904 -0.2947 -0.8502  0.4296
  111OSM    H8S11497   2.263   4.192   9.894 -0.9376  0.6873 -0.6740
  111OSM    H8T11498   2.090   4.238   9.927  2.1489  1.5683 -0.6917
  111OSM    C9S11499   2.102   4.087   9.773 -1.1821  0.0943 -0.7089
  111OSM    H9S11500   2.004   4.045   9.802 -0.5471 -0.0738  1.2344
  111OSM    H9T11501   2.168   4.002   9.746 -1.4662 -0.6356  0.8553
  111OSM   C10S11502   2.093   4.179   9.649  0.2336 -0.3428 -0.0259
  111OSM   H10S11503   2.191   4.211   9.608  0.1258  0.7023  0.5247
  111OSM   H10T11504   2.036   4.269   9.680 -0.1399 -0.1153 -1.3595
  111OSM   C11S11505   2.020   4.108   9.544  0.6797 -0.5940  0.4639
  111OSM   H11S11506   1.919   4.076   9.577 -0.2975  0.4843 -1.4201
  111OSM   H11T11507   2.076   4.015   9.524  2.2045  0.7877 -1.8850
  111OSM   C12S11508   1.996   4.180   9.408  0.7390  0.5650 -0.2602
  111OSM   H12S11509   2.082   4.241   9.372  0.6110  0.9199  0.0307
  111OSM   H12T11510   1.917   4.256   9.430 -0.9217 -0.6748 -1.8183
  111OSM   C13S11511   1.955   4.078   9.298 -0.9781  0.2541  0.3047
  111OSM   H13S11512   1.854   4.041   9.325 -0.2003 -0.4432  2.3236
  111OSM   H13T11513   2.027   3.994   9.297 -1.2390  0.0247  0.9947
  111OSM   C14S11514   1.950   4.143   9.157 -0.6886  0.5494  0.7089
  111OSM   H14S11515   2.048   4.192   9.140  0.1248 -1.3347 -0.1978
  111OSM   H14T11516   1.876   4.225   9.153  0.9342  1.9984 -0.5351
  111OSM   C15S11517   1.917   4.037   9.048  0.1531  0.1701  0.3074
  111OSM   H15S11518   1.823   3.979   9.062  0.5163 -1.0800 -2.1858
  111OSM   H15T11519   2.002   3.968   9.059 -0.1558  0.1231  2.5105
  111OSM   C16S11520   1.910   4.105   8.907 -0.4366  0.8895 -0.2374
  111OSM   H16S11521   1.827   4.178   8.921 -0.5782  0.9128 -1.1881
  111OSM   H16T11522   1.890   4.027   8.831 -1.2469  0.3325  0.5363
  111OSM   C17S11523   2.038   4.177   8.864 -0.5472 -0.3268  0.3062
  111OSM   H17S11524   2.118   4.100   8.849 -0.0893  0.2146 -0.0720
  111OSM   H17T11525   2.066   4.238   8.952 -0.8296 -0.2793  0.3629
  111OSM   C18S11526   2.025   4.261   8.732 -0.8056 -0.5876  0.0912
  111OSM   H18S11527   1.985   4.191   8.656 -0.2853 -0.1099 -0.6321
  111OSM   H18T11528   2.121   4.309   8.700 -1.2513 -0.1182 -0.5618
  111OSM   H18U11529   1.948   4.340   8.733 -0.7453 -0.5284  0.1199
  111OSM    C1F11530   1.973   3.619  10.400 -0.1173  0.1659 -0.3914
  111OSM     OF11531   1.896   3.654  10.492  1.0981  0.0563 -0.0315
  111OSM    C2F11532   1.936   3.517  10.297  0.2598 -0.0881  0.6188
  111OSM    H2F11533   1.890   3.428  10.343  0.6871  0.0620  1.3405
  111OSM    H2G11534   2.024   3.481  10.239 -0.3032  2.4276 -1.9251
  111OSM    C3F11535   1.844   3.591  10.198 -0.8515 -0.9892  0.0983
  111OSM    H3F11536   1.900   3.668  10.141  1.2383 -0.7434  2.4003
  111OSM    H3G11537   1.764   3.647  10.250 -0.4985 -0.3753 -0.0085
  111OSM    C4F11538   1.784   3.493  10.091  0.2688  0.2778  0.2691
  111OSM    H4F11539   1.719   3.542  10.015  1.1205 -0.4493 -0.9459
  111OSM    H4G11540   1.733   3.409  10.142  0.5216 -0.0667 -0.0391
  111OSM    C5F11541   1.896   3.432  10.005  0.7689  0.9380 -0.5156
  111OSM    H5F11542   1.957   3.367  10.072  1.9317  1.9278 -0.6055
  111OSM    H5G11543   1.963   3.514   9.971 -0.3234  2.7711  1.6472
  111OSM    C6F11544   1.840   3.357   9.882 -0.1436  0.3114  0.5211
  111OSM    H6F11545   1.768   3.430   9.839  0.2076  0.2716 -0.1496
  111OSM    H6G11546   1.778   3.271   9.915 -1.3668  0.1091 -2.1299
  111OSM    C7F11547   1.959   3.325   9.790  0.3045 -0.2293 -0.2212
  111OSM    H7F11548   2.019   3.234   9.813  1.5771 -0.2396 -3.2975
  111OSM    H7G11549   2.033   3.407   9.798 -0.9609  1.0111 -0.9178
  111OSM    C8F11550   1.925   3.311   9.635 -0.8306  0.2825  0.3455
  111OSM    H8F11551   1.859   3.223   9.625 -1.0176  0.3168  1.2103
  111OSM    H8G11552   2.018   3.280   9.582 -0.4336 -1.7080  2.1634
  111OSM    C9F11553   1.875   3.449   9.589 -0.0112  0.4156 -0.2546
  111OSM    H9F11554   1.899   3.528   9.661 -1.4834  0.4101  0.2602
  111OSM   C10F11555   1.814   3.471   9.475  0.0263  0.3297 -0.0346
  111OSM   H10F11556   1.794   3.574   9.441  3.0499  0.3920 -1.7790
  111OSM   C11F11557   1.796   3.363   9.367 -0.4280 -0.6620 -0.7816
  111OSM   H11F11558   1.876   3.291   9.391  0.7182  0.5757 -0.8224
  111OSM   H11G11559   1.824   3.404   9.267 -1.0151  0.6656 -0.4217
  111OSM   C12F11560   1.665   3.284   9.362 -0.6046 -0.4792  0.0607
  111OSM   H12F11561   1.593   3.355   9.318  1.6077  2.3501  0.8474
  111OSM   H12G11562   1.614   3.269   9.460 -0.4071  0.3830  0.2973
  111OSM   C13F11563   1.673   3.156   9.272  0.3971  0.0448  0.2525
  111OSM   H13F11564   1.568   3.120   9.268 -0.3043  1.8989  1.0152
  111OSM   H13G11565   1.736   3.082   9.325 -1.1273  1.3859  4.1390
  111OSM   C14F11566   1.716   3.178   9.128  0.0392 -0.2749  0.3662
  111OSM   H14F11567   1.708   3.081   9.074 -1.1025  0.9892 -1.8043
  111OSM   H14G11568   1.824   3.202   9.141  0.1749  1.1073 -2.8738
  111OSM   C15F11569   1.633   3.282   9.052  0.4676 -0.3442 -0.0927
  111OSM   H15F11570   1.649   3.375   9.110  0.6977  0.1038 -0.8703
  111OSM   H15G11571   1.526   3.251   9.047 -0.3731  1.2949  5.0969
  111OSM   C16F11572   1.680   3.308   8.904  0.0909  0.5301 -0.6855
  111OSM   H16F11573   1.674   3.209   8.853  2.8026 -0.1771  0.2992
  111OSM   H16G11574   1.788   3.331   8.910  0.4968 -1.4379 -0.0575
  111OSM   C17F11575   1.602   3.411   8.822  0.2583  0.1312 -0.4919
  111OSM   H17F11576   1.566   3.491   8.891  0.5010  0.7352 -1.0578
  111OSM   H17G11577   1.508   3.371   8.780 -0.6629  3.0478 -1.3311
  111OSM   C18F11578   1.700   3.466   8.719 -0.5418 -0.2193 -0.0471
  111OSM   H18F11579   1.664   3.555   8.662  2.3368 -0.8293 -3.0342
  111OSM   H18G11580   1.735   3.391   8.645  0.3469 -0.4511  0.6085
  111OSM   H18H11581   1.795   3.501   8.766 -0.9002  1.0681 -0.2695
  112OSM      N11582   3.074   0.847  11.297  0.2566  0.6869  0.2247
  112OSM    C1511583   2.934   0.913  11.309  0.4077 -0.1466 -0.2754
  112OSM   H15A11584   2.871   0.882  11.228 -0.0709 -1.1370  0.4595
  112OSM   H15B11585   2.942   1.021  11.310 -0.5047 -0.0676 -1.0386
  112OSM   H15C11586   2.882   0.890  11.401  2.2916 -0.5841  0.7125
  112OSM    C1411587   3.150   0.884  11.418 -0.0628 -0.2237  0.8325
  112OSM   H14A11588   3.121   0.984  11.446 -0.2672 -0.2177  0.6008
  112OSM   H14B11589   3.257   0.891  11.401 -0.3212  4.3653  0.4598
  112OSM   H14C11590   3.134   0.817  11.501  2.9577 -1.4555  0.4837
  112OSM    C1311591   3.056   0.698  11.281 -0.1416 -0.1201 -0.3236
  112OSM   H13A11592   3.025   0.671  11.181 -2.1045  1.8029 -0.2632
  112OSM   H13B11593   2.986   0.649  11.347  0.7838 -1.7301 -0.4943
  112OSM   H13C11594   3.157   0.659  11.290 -1.0788 -2.3562  0.9420
  112OSM    C1211595   3.152   0.917  11.185 -0.3923 -0.2289 -0.1443
  112OSM   H12A11596   3.255   0.886  11.180 -1.0882 -2.4588 -1.2778
  112OSM   H12B11597   3.147   1.023  11.207 -1.8049 -0.7178  2.1175
  112OSM    C1111598   3.103   0.904  11.041 -0.4262  0.1133 -0.0918
  112OSM   H11A11599   2.992   0.904  11.033 -0.5251  0.9314  1.1016
  112OSM   H11B11600   3.145   0.807  11.006  1.0979  0.9634 -0.6554
  112OSM      P11601   3.117   1.156  10.967  0.2360 -0.2333 -0.0434
  112OSM    O1311602   3.153   1.198  11.104 -0.4720 -0.3643 -0.3100
  112OSM    O1411603   3.170   1.230  10.850  0.1116 -0.0083 -0.0979
  112OSM    O1111604   2.962   1.156  10.957 -0.2736 -0.0336  0.4654
  112OSM    O1211605   3.156   1.007  10.952  0.2212  0.4773 -0.0146
  112OSM    C1S11606   2.897   1.263  10.885  0.2990  0.1037  0.7348
  112OSM    H1S11607   2.934   1.360  10.924 -0.7504  0.9352 -0.3013
  112OSM    H1T11608   2.790   1.257  10.915  0.1304  1.9401  0.5368
  112OSM     NF11609   2.829   1.354  10.668 -0.1676 -0.2225  0.6048
  112OSM    HNF11610   2.737   1.336  10.634 -0.6989  2.8666  0.2711
  112OSM    C2S11611   2.892   1.242  10.730  0.2219 -1.2603  0.5467
  112OSM    H2S11612   2.996   1.244  10.691 -0.2070 -0.9546 -0.6002
  112OSM    C3S11613   2.823   1.107  10.692 -0.3434  0.0889 -0.3092
  112OSM    H3S11614   2.718   1.123  10.722  0.3581  1.6540  1.4220
  112OSM     O311615   2.875   0.993  10.758 -0.3831 -0.2345  0.3077
  112OSM    HO311616   2.908   1.040  10.835  0.7819  1.4621 -1.1814
  112OSM    C4S11617   2.826   1.099  10.540 -0.2579  0.7765 -0.1467
  112OSM    H4S11618   2.735   1.124  10.483  0.2572  1.7215 -0.5748
  112OSM    C5S11619   2.918   1.035  10.467 -0.7248 -0.4840  0.0678
  112OSM    H5S11620   3.002   0.987  10.519 -1.0342 -0.2510  0.7880
  112OSM    C6S11621   2.917   1.019  10.314  0.4129  0.2721 -0.1350
  112OSM    H6S11622   2.832   1.075  10.271  0.2293 -0.8110 -1.1977
  112OSM    H6T11623   2.904   0.913  10.285  5.4990 -0.5521  0.1556
  112OSM    C7S11624   3.040   1.075  10.242  0.3942  0.1268 -0.3436
  112OSM    H7S11625   3.118   1.000  10.264 -0.2666 -0.3138  0.4959
  112OSM    H7T11626   3.064   1.176  10.281  1.0990  0.3246 -1.2743
  112OSM    C8S11627   3.017   1.091  10.092 -0.3487 -0.8151  0.2061
  112OSM    H8S11628   3.108   1.137  10.048  0.6450 -2.8548  0.0434
  112OSM    H8T11629   2.932   1.161  10.081  1.0029  0.6334 -1.2902
  112OSM    C9S11630   3.004   0.958  10.027 -0.3110  0.3821 -1.2998
  112OSM    H9S11631   2.898   0.924  10.030 -0.1535  0.0584  1.0232
  112OSM    H9T11632   3.058   0.877  10.080  0.7104  0.4521 -2.2282
  112OSM   C10S11633   3.039   0.971   9.880  0.0079  0.2706 -0.3021
  112OSM   H10S11634   3.040   0.872   9.832  1.3038  0.4480 -0.6548
  112OSM   H10T11635   3.137   1.022   9.866 -0.8260  2.7167  2.2421
  112OSM   C11S11636   2.941   1.052   9.798  1.3210 -0.0409  0.2231
  112OSM   H11S11637   2.948   1.158   9.830  1.5814  0.8249 -2.5833
  112OSM   H11T11638   2.839   1.020   9.830  1.9477 -0.2898  1.9961
  112OSM   C12S11639   2.956   1.049   9.643  0.2579 -0.2546  0.2108
  112OSM   H12S11640   2.912   1.144   9.604 -0.8651 -1.6828 -2.1136
  112OSM   H12T11641   2.905   0.957   9.607  0.3565 -1.6641  3.5275
  112OSM   C13S11642   3.105   1.052   9.592 -0.3721  0.0555 -0.0418
  112OSM   H13S11643   3.166   0.972   9.638  2.5130  0.1498 -3.4325
  112OSM   H13T11644   3.147   1.142   9.641 -1.6872  0.8041 -0.2599
  112OSM   C14S11645   3.123   1.049   9.433  0.0688  0.0401 -0.5697
  112OSM   H14S11646   3.229   1.066   9.403 -0.7946  0.4570 -3.6291
  112OSM   H14T11647   3.052   1.120   9.385 -1.3512 -2.7957 -2.8465
  112OSM   C15S11648   3.081   0.915   9.362  0.3769 -0.1319 -0.4753
  112OSM   H15S11649   2.978   0.887   9.392 -0.5502  1.8532 -1.7095
  112OSM   H15T11650   3.151   0.841   9.405 -1.5775  0.4844  4.0290
  112OSM   C16S11651   3.080   0.921   9.209 -0.5878 -1.1943 -0.5116
  112OSM   H16S11652   3.009   1.001   9.180  0.1198 -1.1194 -2.0831
  112OSM   H16T11653   3.040   0.825   9.167  0.7291 -1.0910 -2.0634
  112OSM   C17S11654   3.220   0.941   9.139  0.3862 -0.5216  0.4129
  112OSM   H17S11655   3.270   0.843   9.157  1.0235 -0.5747 -1.5893
  112OSM   H17T11656   3.281   1.010   9.200 -0.6834  0.5267  0.3107
  112OSM   C18S11657   3.221   0.961   8.991 -0.2573 -0.2890 -0.1807
  112OSM   H18S11658   3.196   0.861   8.951 -0.1746 -0.6259  0.6129
  112OSM   H18T11659   3.321   0.988   8.949  0.6749 -0.5979  1.7979
  112OSM   H18U11660   3.153   1.045   8.963 -1.4825 -0.8016  1.2207
  112OSM    C1F11661   2.878   1.475  10.664 -0.4025 -0.2544 -0.1119
  112OSM     OF11662   2.971   1.506  10.738 -0.5136 -0.0177  0.6302
  112OSM    C2F11663   2.814   1.565  10.563  0.0325 -0.5629  0.7356
  112OSM    H2F11664   2.750   1.642  10.612 -1.4565 -2.0674  1.2389
  112OSM    H2G11665   2.740   1.511  10.500 -0.0271  1.2715 -0.8292
  112OSM    C3F11666   2.915   1.652  10.484 -0.1351 -0.2955 -0.2847
  112OSM    H3F11667   2.987   1.709  10.545 -1.7953  0.6747  0.8044
  112OSM    H3G11668   2.860   1.722  10.418 -1.0770 -0.9905 -0.2484
  112OSM    C4F11669   3.000   1.551  10.395 -0.0446  0.5882  0.4478
  112OSM    H4F11670   3.062   1.481  10.456 -1.2844 -0.2237  0.8044
  112OSM    H4G11671   3.069   1.615  10.337 -0.4443  1.1204  0.5619
  112OSM    C5F11672   2.934   1.455  10.293 -0.4993  0.2864 -0.1062
  112OSM    H5F11673   2.881   1.374  10.348  2.2034  0.8300  3.5013
  112OSM    H5G11674   3.016   1.416  10.229  0.4682  3.2202 -0.7360
  112OSM    C6F11675   2.842   1.540  10.196  0.2754 -0.6591 -0.3792
  112OSM    H6F11676   2.894   1.632  10.161  0.1454 -2.0256 -4.2997
  112OSM    H6G11677   2.764   1.577  10.266  0.3805  2.7699 -1.9896
  112OSM    C7F11678   2.785   1.464  10.082 -1.0647 -0.0043  0.0179
  112OSM    H7F11679   2.742   1.373  10.129  2.3629 -1.3791  0.6850
  112OSM    H7G11680   2.872   1.427  10.022  0.5287  1.5600  1.3177
  112OSM    C8F11681   2.689   1.544   9.991 -0.6871  0.4373 -0.0027
  112OSM    H8F11682   2.735   1.624   9.931  0.2069 -0.5459 -0.6454
  112OSM    H8G11683   2.615   1.589  10.062 -0.0728 -0.3144  1.1333
  112OSM    C9F11684   2.624   1.443   9.907 -0.4040  0.2761 -0.4929
  112OSM    H9F11685   2.548   1.385   9.962  2.9014 -1.8894  2.0102
  112OSM   C10F11686   2.658   1.405   9.783  0.1275  0.6294  0.3016
  112OSM   H10F11687   2.613   1.322   9.727  1.5670  0.1058 -0.0960
  112OSM   C11F11688   2.765   1.468   9.700 -0.2106  0.1695  0.2210
  112OSM   H11F11689   2.806   1.395   9.627  0.8983  0.0449  0.9530
  112OSM   H11G11690   2.853   1.497   9.761 -1.6461  1.7504  1.5753
  112OSM   C12F11691   2.716   1.603   9.640  0.0710 -0.7458 -0.5572
  112OSM   H12F11692   2.719   1.673   9.726 -1.9708 -0.5824 -0.5732
  112OSM   H12G11693   2.617   1.583   9.592  0.6109 -3.7516 -0.5429
  112OSM   C13F11694   2.809   1.647   9.533 -0.2977 -0.8477 -0.1683
  112OSM   H13F11695   2.819   1.570   9.453  2.4102  3.0562 -3.7725
  112OSM   H13G11696   2.916   1.653   9.563  0.5199 -2.9318 -2.5069
  112OSM   C14F11697   2.787   1.783   9.467 -0.4566  0.7998  0.7712
  112OSM   H14F11698   2.795   1.860   9.547  1.1519 -1.3666  2.7589
  112OSM   H14G11699   2.679   1.783   9.443 -0.1437 -1.0648 -0.7514
  112OSM   C15F11700   2.869   1.825   9.342  0.3375  0.8559  0.1655
  112OSM   H15F11701   2.978   1.825   9.364  0.2103 -1.3695  0.9561
  112OSM   H15G11702   2.840   1.925   9.303  2.1163  1.5607  0.5890
  112OSM   C16F11703   2.846   1.733   9.222 -0.0490  0.2350 -0.3612
  112OSM   H16F11704   2.736   1.736   9.207 -0.1939 -0.8373  0.4439
  112OSM   H16G11705   2.888   1.633   9.245 -1.9301 -0.8241 -1.4746
  112OSM   C17F11706   2.914   1.790   9.090 -0.1094 -0.2821 -0.3619
  112OSM   H17F11707   3.024   1.805   9.096  0.1037 -0.8388 -2.3090
  112OSM   H17G11708   2.861   1.886   9.074  0.0509 -0.4181 -1.8613
  112OSM   C18F11709   2.882   1.694   8.971 -0.3741  0.0615 -0.9629
  112OSM   H18F11710   2.785   1.713   8.920  0.2939  0.3574 -2.1231
  112OSM   H18G11711   2.887   1.591   9.013  1.1076  0.9446  1.1246
  112OSM   H18H11712   2.958   1.687   8.890 -0.1400 -2.2095 -0.5750
  113OSM      N11713   0.068   5.287  10.947  0.6255  0.4779 -0.0462
  113OSM    C1511714   0.063   5.327  11.089  0.3252  0.2334 -0.3998
  113OSM   H15A11715  -0.035   5.311  11.132  0.6525  2.8672  1.4792
  113OSM   H15B11716   0.070   5.434  11.103 -2.4167  0.2599  1.3807
  113OSM   H15C11717   0.127   5.275  11.159 -0.1139  0.9262  0.5325
  113OSM    C1411718  -0.041   5.358  10.875  0.0256 -0.3745 -0.2769
  113OSM   H14A11719  -0.021   5.383  10.771  0.8759  0.1839  0.0125
  113OSM   H14B11720  -0.037   5.458  10.916 -0.6373 -1.0530  1.4468
  113OSM   H14C11721  -0.140   5.318  10.887  0.2842 -0.9161  0.0599
  113OSM    C1311722   0.200   5.333  10.898 -0.1412 -0.1425 -0.2196
  113OSM   H13A11723   0.286   5.302  10.955  0.0768 -2.3392 -1.6840
  113OSM   H13B11724   0.210   5.440  10.887 -0.8475 -0.2074 -1.6462
  113OSM   H13C11725   0.223   5.279  10.807  0.2832 -1.2329  0.5293
  113OSM    C1211726   0.053   5.139  10.929 -0.2993  0.5216  0.2570
  113OSM   H12A11727   0.129   5.079  10.978  0.3693 -0.4810 -1.9281
  113OSM   H12B11728   0.064   5.102  10.828 -0.7175 -0.3321  0.5140
  113OSM    C1111729  -0.086   5.083  10.972 -0.1894  0.1197  0.3567
  113OSM   H11A11730  -0.165   5.125  10.906 -0.5527 -0.3741  0.4705
  113OSM   H11B11731  -0.112   5.119  11.074  1.9683  0.6903  0.7235
  113OSM      P11732  -0.191   4.844  10.970 -0.1004 -0.4395  0.1218
  113OSM    O1311733  -0.139   4.709  10.942  0.2725 -0.5051  0.1614
  113OSM    O1411734  -0.260   4.866  11.098 -0.3727 -0.3912 -0.2033
  113OSM    O1111735  -0.286   4.909  10.858  0.0954  0.6750  0.5513
  113OSM    O1211736  -0.066   4.943  10.962  0.1408 -0.7144  0.0344
  113OSM    C1S11737  -0.242   4.919  10.721 -0.4408 -0.1866  0.2973
  113OSM    H1S11738  -0.234   4.814  10.687  1.4482 -0.1644  0.5863
  113OSM    H1T11739  -0.139   4.962  10.720 -0.6294  0.2932  1.0954
  113OSM     NF11740  -0.275   5.003  10.484 -0.2665 -0.0411  1.2938
  113OSM    HNF11741  -0.211   5.077  10.464 -1.5491  0.2321 -2.0998
  113OSM    C2S11742  -0.335   5.001  10.620  1.1280 -0.5374  0.5020
  113OSM    H2S11743  -0.429   4.942  10.614  1.4670 -1.3431  2.7301
  113OSM    C3S11744  -0.366   5.142  10.683  0.2066 -0.3441 -0.0877
  113OSM    H3S11745  -0.273   5.199  10.703 -0.3363  1.1573 -1.7787
  113OSM     O311746  -0.438   5.133  10.804 -0.5642 -0.4490 -0.3809
  113OSM    HO311747  -0.406   5.057  10.852 -1.1366  0.0853  0.8559
  113OSM    C4S11748  -0.451   5.229  10.591 -0.0396 -0.5032  0.4614
  113OSM    H4S11749  -0.557   5.198  10.598 -0.3394  0.2508 -0.6547
  113OSM    C5S11750  -0.411   5.347  10.529 -0.0927  0.4193  0.0043
  113OSM    H5S11751  -0.306   5.376  10.539 -0.2157  1.2772 -1.0960
  113OSM    C6S11752  -0.495   5.439  10.458  0.6205  0.0130 -0.0603
  113OSM    H6S11753  -0.510   5.536  10.511  1.3212  0.6404 -0.9896
  113OSM    H6T11754  -0.597   5.395  10.452  1.2559 -1.5277  0.1829
  113OSM    C7S11755  -0.448   5.461  10.316 -0.3101 -0.0706  0.6247
  113OSM    H7S11756  -0.343   5.496  10.309 -0.3355 -0.1295 -0.1084
  113OSM    H7T11757  -0.507   5.548  10.279  0.0355 -0.0883  0.0353
  113OSM    C8S11758  -0.470   5.337  10.233  0.0721 -0.0579 -0.5005
  113OSM    H8S11759  -0.569   5.289  10.248 -0.1127  0.5302  0.2128
  113OSM    H8T11760  -0.384   5.269  10.253  0.0026  0.3121  1.1025
  113OSM    C9S11761  -0.460   5.385  10.088 -0.0248 -0.2629  0.3797
  113OSM    H9S11762  -0.371   5.448  10.065  0.2011 -0.6520  0.1752
  113OSM    H9T11763  -0.549   5.451  10.085  0.2395  0.0546 -0.6290
  113OSM   C10S11764  -0.460   5.279   9.983 -0.8192 -0.7597 -0.2404
  113OSM   H10S11765  -0.560   5.231   9.976 -0.5586 -1.1837 -1.2508
  113OSM   H10T11766  -0.400   5.194  10.022 -1.9530 -1.9856 -1.1111
  113OSM   C11S11767  -0.417   5.330   9.847  0.1363 -0.2389  0.2633
  113OSM   H11S11768  -0.312   5.367   9.849  0.3795 -0.9469  1.0712
  113OSM   H11T11769  -0.481   5.417   9.824  1.5844  0.2508 -2.0663
  113OSM   C12S11770  -0.457   5.224   9.729  0.4531 -0.1114 -0.3868
  113OSM   H12S11771  -0.568   5.230   9.721  0.3368  0.8881  1.6246
  113OSM   H12T11772  -0.424   5.122   9.759  0.4031  0.1126  0.4224
  113OSM   C13S11773  -0.410   5.252   9.590 -0.5626  0.4609  0.1595
  113OSM   H13S11774  -0.432   5.360   9.578 -1.1498  0.2335 -0.8482
  113OSM   H13T11775  -0.461   5.191   9.512 -1.2971  2.8263 -1.2708
  113OSM   C14S11776  -0.256   5.235   9.581  0.0366 -0.1902  0.1774
  113OSM   H14S11777  -0.244   5.125   9.586  1.0822 -0.1027 -0.4374
  113OSM   H14T11778  -0.204   5.276   9.670 -0.2156 -0.8541  0.6331
  113OSM   C15S11779  -0.207   5.295   9.448  0.5843  0.9232  0.0319
  113OSM   H15S11780  -0.102   5.261   9.435  0.2589 -0.3276  0.5605
  113OSM   H15T11781  -0.216   5.406   9.454  0.6928  0.8812  1.0857
  113OSM   C16S11782  -0.272   5.236   9.317  0.3194 -0.3275  0.8488
  113OSM   H16S11783  -0.340   5.307   9.267 -0.5123 -1.1384  0.8147
  113OSM   H16T11784  -0.331   5.147   9.348 -1.6258  1.8671  3.6619
  113OSM   C17S11785  -0.175   5.197   9.207  0.6731  0.2515  0.0925
  113OSM   H17S11786  -0.228   5.153   9.119  1.7511  0.7079 -0.8013
  113OSM   H17T11787  -0.114   5.115   9.249 -1.7869 -1.2478  0.8532
  113OSM   C18S11788  -0.085   5.308   9.161 -0.3614  0.3187  0.7838
  113OSM   H18S11789   0.001   5.296   9.230 -0.2293  2.3727  1.0107
  113OSM   H18T11790  -0.130   5.406   9.186  1.9931  1.4155  0.7981
  113OSM   H18U11791  -0.063   5.309   9.053  0.5385 -1.1558  0.9336
  113OSM    C1F11792  -0.280   4.896  10.409 -0.8462 -0.1042  0.1403
  113OSM     OF11793  -0.307   4.786  10.457  0.3751 -0.3548 -0.5366
  113OSM    C2F11794  -0.221   4.914  10.270  0.7575  0.0462 -0.1428
  113OSM    H2F11795  -0.112   4.930  10.283  0.8165 -0.2428 -0.2768
  113OSM    H2G11796  -0.267   5.009  10.233  0.4241  0.6015  1.6785
  113OSM    C3F11797  -0.251   4.807  10.159  0.6308  1.5440  0.0320
  113OSM    H3F11798  -0.359   4.782  10.153  0.9705 -1.0609  3.3678
  113OSM    H3G11799  -0.198   4.713  10.184 -0.8893 -0.1036 -2.6027
  113OSM    C4F11800  -0.201   4.860  10.019  0.1424  0.1280  0.8581
  113OSM    H4F11801  -0.091   4.875  10.023 -0.0547  2.0417 -0.2879
  113OSM    H4G11802  -0.252   4.956   9.996 -3.3279 -2.0929 -1.1632
  113OSM    C5F11803  -0.230   4.759   9.907  0.1063 -0.2228  0.3685
  113OSM    H5F11804  -0.341   4.759   9.911  0.1195 -0.0683  0.8484
  113OSM    H5G11805  -0.190   4.657   9.927  2.5593  1.0909  2.6303
  113OSM    C6F11806  -0.180   4.803   9.766 -0.3951  0.3353 -0.6109
  113OSM    H6F11807  -0.070   4.803   9.750 -0.3014 -0.9950 -0.0038
  113OSM    H6G11808  -0.227   4.904   9.756 -2.3559 -0.7646 -3.2445
  113OSM    C7F11809  -0.239   4.714   9.653 -0.1387 -0.3813 -0.0781
  113OSM    H7F11810  -0.350   4.720   9.660 -0.0910  1.0963 -0.3750
  113OSM    H7G11811  -0.219   4.608   9.677 -0.9501 -1.0122 -2.0827
  113OSM    C8F11812  -0.188   4.761   9.521  0.1021 -0.6241  1.0389
  113OSM    H8F11813  -0.080   4.740   9.505 -0.2237 -1.6459  0.0641
  113OSM    H8G11814  -0.214   4.864   9.491  1.7811 -1.1417 -2.5114
  113OSM    C9F11815  -0.242   4.666   9.410  0.3691  0.3923 -0.0626
  113OSM    H9F11816  -0.294   4.575   9.444 -0.5036  0.0501 -2.2184
  113OSM   C10F11817  -0.245   4.688   9.274 -0.0591 -0.1018  0.0874
  113OSM   H10F11818  -0.295   4.603   9.226  3.4621 -1.1834 -1.8747
  113OSM   C11F11819  -0.193   4.814   9.208 -0.7638 -0.7741 -0.5995
  113OSM   H11F11820  -0.115   4.868   9.265 -2.0293  1.6113 -1.0965
  113OSM   H11G11821  -0.274   4.887   9.190  2.7789  3.0864 -1.5873
  113OSM   C12F11822  -0.131   4.789   9.076 -0.3696  0.9245 -0.3619
  113OSM   H12F11823  -0.215   4.763   9.009 -1.4851  1.6410  0.7110
  113OSM   H12G11824  -0.070   4.697   9.087 -1.4235  0.2261 -0.2822
  113OSM   C13F11825  -0.042   4.897   9.010  0.0560  0.1593 -0.1859
  113OSM   H13F11826   0.056   4.904   9.062  0.2450 -0.1585 -0.4953
  113OSM   H13G11827  -0.092   4.993   9.037 -1.0098 -0.1784 -0.9130
  113OSM   C14F11828  -0.037   4.894   8.856 -0.3826 -0.3711 -0.1775
  113OSM   H14F11829   0.013   4.986   8.817 -1.3022  0.5134  0.6901
  113OSM   H14G11830  -0.140   4.882   8.818  0.0724 -2.7957 -0.7091
  113OSM   C15F11831   0.049   4.780   8.802  0.8331  0.2453  0.0161
  113OSM   H15F11832  -0.002   4.688   8.837 -0.8514  1.3780  0.5889
  113OSM   H15G11833   0.157   4.785   8.830  0.7049  0.9933  0.3873
  113OSM   C16F11834   0.040   4.797   8.642 -0.0579 -0.1044 -0.7578
  113OSM   H16F11835   0.107   4.879   8.611  2.1691 -0.5998  2.4896
  113OSM   H16G11836  -0.069   4.813   8.628 -0.3667 -0.6020  0.9606
  113OSM   C17F11837   0.088   4.674   8.562  0.2300 -0.4586  0.3463
  113OSM   H17F11838   0.065   4.592   8.632  0.6702 -1.0352 -0.1824
  113OSM   H17G11839   0.198   4.678   8.545 -0.3164  2.8480 -3.2078
  113OSM   C18F11840   0.007   4.660   8.438  0.1314  0.6108  0.3379
  113OSM   H18F11841   0.053   4.597   8.359 -0.6502  1.5496 -0.8724
  113OSM   H18G11842  -0.003   4.766   8.408  0.1655  0.3205 -0.7361
  113OSM   H18H11843  -0.096   4.627   8.465  0.5446 -1.0568 -0.0983
  114OSM      N11844   1.546   0.475  11.243 -0.4255  0.5747 -0.2233
  114OSM    C1511845   1.437   0.389  11.189  0.6552  0.1064 -0.2647
  114OSM   H15A11846   1.418   0.399  11.083 -1.6843  0.4969  0.1446
  114OSM   H15B11847   1.346   0.412  11.242  1.0576  0.4444  0.2843
  114OSM   H15C11848   1.462   0.288  11.217 -4.1479 -0.1585  3.9816
  114OSM    C1411849   1.545   0.443  11.395 -0.2149 -0.6185 -0.2821
  114OSM   H14A11850   1.444   0.429  11.430 -0.0762  1.7367  1.1223
  114OSM   H14B11851   1.583   0.524  11.456  1.0789 -1.9791  0.7707
  114OSM   H14C11852   1.607   0.359  11.425  0.8273  0.3653  0.3631
  114OSM    C1311853   1.683   0.429  11.203 -0.4391 -0.1280 -0.5838
  114OSM   H13A11854   1.698   0.324  11.221 -0.6041  0.0285  0.5052
  114OSM   H13B11855   1.757   0.482  11.262 -2.5720  2.6333 -0.2685
  114OSM   H13C11856   1.706   0.446  11.099 -0.4055  2.6782 -0.1710
  114OSM    C1211857   1.520   0.627  11.230  0.2578 -0.2413 -0.9836
  114OSM   H12A11858   1.603   0.679  11.277 -0.1953 -1.4480  1.2509
  114OSM   H12B11859   1.430   0.657  11.282  1.6218  0.2548  1.1745
  114OSM    C1111860   1.529   0.681  11.088  0.7964  0.0317 -0.6580
  114OSM   H11A11861   1.434   0.667  11.031 -0.0889  2.1076  0.2394
  114OSM   H11B11862   1.607   0.622  11.035 -0.1816 -2.2695  0.4104
  114OSM      P11863   1.699   0.878  11.061 -0.4299  0.4586  0.0909
  114OSM    O1311864   1.702   1.019  11.085  0.3732 -0.7062 -0.0673
  114OSM    O1411865   1.813   0.802  11.127  0.2880 -0.2838  0.0225
  114OSM    O1111866   1.712   0.854  10.905  0.2668 -0.8333 -0.3252
  114OSM    O1211867   1.560   0.820  11.093 -0.2484 -0.0140 -0.0535
  114OSM    C1S11868   1.598   0.896  10.822 -0.1612 -0.4342 -0.0321
  114OSM    H1S11869   1.578   1.006  10.819 -2.1683 -0.8253 -2.6647
  114OSM    H1T11870   1.504   0.842  10.845 -0.0535 -0.4420  0.3939
  114OSM     NF11871   1.513   0.912  10.592 -0.8213  0.1317  0.1828
  114OSM    HNF11872   1.430   0.858  10.585 -0.6499  0.0401 -1.3551
  114OSM    C2S11873   1.624   0.854  10.668  0.3597 -1.0860  0.6663
  114OSM    H2S11874   1.721   0.902  10.642 -0.1331 -0.1140  0.6142
  114OSM    C3S11875   1.642   0.700  10.655 -0.3922 -0.5579 -0.4249
  114OSM    H3S11876   1.558   0.647  10.705 -0.9618  0.1998 -0.5706
  114OSM     O311877   1.751   0.654  10.739  0.2100 -0.5864 -0.2468
  114OSM    HO311878   1.743   0.716  10.812  2.1390 -1.2097  0.5243
  114OSM    C4S11879   1.662   0.653  10.511  0.1098 -0.7753 -0.3480
  114OSM    H4S11880   1.562   0.626  10.473 -0.1637  0.2578 -0.3809
  114OSM    C5S11881   1.770   0.654  10.430 -0.3021  0.4338  0.3617
  114OSM    H5S11882   1.869   0.693  10.459 -0.3175 -0.1186  1.1704
  114OSM    C6S11883   1.786   0.603  10.288  0.0800  0.6074 -0.3567
  114OSM    H6S11884   1.854   0.515  10.288 -0.2029  0.3864  0.6008
  114OSM    H6T11885   1.834   0.678  10.221  0.8264  0.1207 -0.3706
  114OSM    C7S11886   1.656   0.571  10.207 -0.3896 -0.6534  0.1000
  114OSM    H7S11887   1.580   0.650  10.220  0.0604 -0.2448  0.2859
  114OSM    H7T11888   1.600   0.490  10.257  1.3057  0.5851  4.2079
  114OSM    C8S11889   1.687   0.520  10.069  0.5291  0.0616 -0.5727
  114OSM    H8S11890   1.605   0.453  10.033 -0.8366  1.7276 -0.6160
  114OSM    H8T11891   1.775   0.452  10.077  0.4865  0.0509 -0.2115
  114OSM    C9S11892   1.708   0.619   9.954  0.1766  0.6700 -0.1025
  114OSM    H9S11893   1.795   0.684   9.976  0.5716  0.5835 -1.3643
  114OSM    H9T11894   1.619   0.682   9.935 -1.7698 -1.2076  2.4801
  114OSM   C10S11895   1.719   0.549   9.818 -0.1645 -0.2963  0.8507
  114OSM   H10S11896   1.633   0.481   9.799 -0.0809  0.2606 -1.6754
  114OSM   H10T11897   1.805   0.482   9.800 -0.5263 -1.3000  2.7753
  114OSM   C11S11898   1.720   0.662   9.705  0.8026 -0.1506 -0.5071
  114OSM   H11S11899   1.806   0.732   9.712 -0.5164  1.3771  1.3271
  114OSM   H11T11900   1.626   0.719   9.724 -0.6398 -2.4883 -0.3340
  114OSM   C12S11901   1.720   0.603   9.568  0.4680  0.1777  0.4098
  114OSM   H12S11902   1.628   0.541   9.557  1.1780 -1.1765  1.8864
  114OSM   H12T11903   1.801   0.528   9.554  0.3811 -0.0333  1.0243
  114OSM   C13S11904   1.697   0.707   9.462 -0.2280  0.0497  0.0106
  114OSM   H13S11905   1.785   0.774   9.447  1.4728 -1.8041  1.5056
  114OSM   H13T11906   1.609   0.774   9.472 -0.5062 -0.5972  2.0636
  114OSM   C14S11907   1.657   0.648   9.318 -0.5350  0.6332 -0.4368
  114OSM   H14S11908   1.558   0.597   9.317  0.1027 -0.7091  1.8730
  114OSM   H14T11909   1.737   0.574   9.298  0.2451  1.2691  0.2869
  114OSM   C15S11910   1.645   0.761   9.210 -0.1846  0.6056  0.6183
  114OSM   H15S11911   1.733   0.827   9.230 -0.4010  1.3658 -0.8607
  114OSM   H15T11912   1.549   0.816   9.221 -0.7366 -0.3102  0.3808
  114OSM   C16S11913   1.661   0.717   9.061  0.0972 -0.4487  0.2332
  114OSM   H16S11914   1.584   0.639   9.043  0.8121 -0.9337 -0.7988
  114OSM   H16T11915   1.761   0.668   9.055 -0.0729 -0.7592 -0.0918
  114OSM   C17S11916   1.656   0.829   8.966 -0.2034  0.1472  0.3722
  114OSM   H17S11917   1.724   0.906   9.009  0.5313  0.6393 -1.6077
  114OSM   H17T11918   1.553   0.871   8.970 -0.4979 -0.3953 -1.2312
  114OSM   C18S11919   1.675   0.789   8.822 -0.1322 -0.0916  0.3756
  114OSM   H18S11920   1.582   0.733   8.798  1.0364 -1.6114 -0.7193
  114OSM   H18T11921   1.761   0.722   8.799 -1.2647 -1.2971 -0.3903
  114OSM   H18U11922   1.673   0.883   8.764 -0.5610 -0.4819 -0.2478
  114OSM    C1F11923   1.500   1.042  10.562 -0.5763 -0.6340 -0.1568
  114OSM     OF11924   1.583   1.122  10.598  0.9144  0.3786 -0.2476
  114OSM    C2F11925   1.386   1.075  10.467  0.2667  0.4000  0.7838
  114OSM    H2F11926   1.291   1.069  10.523 -0.7599  0.4785 -0.9185
  114OSM    H2G11927   1.390   0.993  10.392  2.5568  2.3890 -1.3668
  114OSM    C3F11928   1.389   1.216  10.401  0.3462  0.1154  0.5851
  114OSM    H3F11929   1.484   1.231  10.347  0.3527 -0.3555  0.4608
  114OSM    H3G11930   1.378   1.295  10.479 -1.1565 -2.0541  2.6501
  114OSM    C4F11931   1.275   1.246  10.303 -0.7315 -0.4291 -0.4695
  114OSM    H4F11932   1.278   1.189  10.207 -0.4330 -1.9618  0.4286
  114OSM    H4G11933   1.280   1.354  10.277 -1.3936 -0.5796 -1.2497
  114OSM    C5F11934   1.133   1.250  10.358 -0.3342 -0.2392 -0.6967
  114OSM    H5F11935   1.121   1.333  10.431  0.5514  1.3932 -2.3454
  114OSM    H5G11936   1.120   1.156  10.415  1.4664  1.0248  1.8821
  114OSM    C6F11937   1.023   1.259  10.252  0.0135  0.1996  0.4073
  114OSM    H6F11938   1.039   1.341  10.179 -1.6045 -0.5097 -0.7601
  114OSM    H6G11939   0.931   1.271  10.313  0.6558  0.0438  1.4257
  114OSM    C7F11940   1.016   1.143  10.154  0.6636  0.1558  0.3502
  114OSM    H7F11941   1.011   1.051  10.217  1.8320  0.8248  1.4375
  114OSM    H7G11942   1.114   1.138  10.102  1.3858  1.7604  1.5294
  114OSM    C8F11943   0.893   1.143  10.060  0.3778 -0.1074 -0.2004
  114OSM    H8F11944   0.888   1.239  10.003 -1.2795 -0.2889 -0.3923
  114OSM    H8G11945   0.801   1.143  10.122 -0.4089 -1.0125 -1.3582
  114OSM    C9F11946   0.883   1.032   9.963  0.0766  0.3166 -0.2343
  114OSM    H9F11947   0.870   0.936  10.016  0.8055 -0.7336 -1.9078
  114OSM   C10F11948   0.909   1.030   9.833  0.0899  0.8146 -0.2220
  114OSM   H10F11949   0.917   0.931   9.786 -0.8160  1.6841 -2.2810
  114OSM   C11F11950   0.959   1.145   9.751 -0.3193 -0.2778 -0.5529
  114OSM   H11F11951   1.065   1.129   9.725  0.1554  2.2529 -0.2493
  114OSM   H11G11952   0.956   1.246   9.796  1.4513 -0.8672  0.9592
  114OSM   C12F11953   0.877   1.153   9.619 -0.6426  0.1623 -0.2151
  114OSM   H12F11954   0.773   1.187   9.638 -1.2173 -1.4497 -0.3795
  114OSM   H12G11955   0.870   1.051   9.575  0.7822  1.0629 -2.6383
  114OSM   C13F11956   0.944   1.242   9.509 -0.2563  0.1598 -0.1665
  114OSM   H13F11957   1.038   1.185   9.490  0.4433  0.9925  0.7605
  114OSM   H13G11958   0.957   1.343   9.553 -1.0014 -1.0814  3.0695
  114OSM   C14F11959   0.862   1.242   9.377  0.1640  0.5817 -0.1365
  114OSM   H14F11960   0.754   1.262   9.398 -0.6532 -3.1423 -0.4431
  114OSM   H14G11961   0.858   1.142   9.328 -0.9496 -0.5905  2.2402
  114OSM   C15F11962   0.910   1.340   9.269 -0.7166 -0.0197 -0.1829
  114OSM   H15F11963   1.020   1.331   9.275 -0.6886  0.7062  0.5919
  114OSM   H15G11964   0.882   1.445   9.293 -0.6411 -0.3307  1.3728
  114OSM   C16F11965   0.868   1.301   9.131  0.0833 -0.0722  0.4932
  114OSM   H16F11966   0.757   1.306   9.123 -0.1634 -1.1271  2.9050
  114OSM   H16G11967   0.895   1.196   9.108  0.2721  0.3465 -1.3108
  114OSM   C17F11968   0.913   1.393   9.016 -0.1404  0.4793  0.9594
  114OSM   H17F11969   1.022   1.374   9.029 -0.8982 -3.9306  1.6819
  114OSM   H17G11970   0.882   1.499   9.027  0.4558  0.7781 -0.2793
  114OSM   C18F11971   0.880   1.358   8.866  0.7559 -0.2017 -0.7751
  114OSM   H18F11972   0.787   1.413   8.840  0.5104 -0.0365  0.4387
  114OSM   H18G11973   0.858   1.250   8.850 -0.2638 -0.1247  0.0303
  114OSM   H18H11974   0.960   1.385   8.794  1.6684 -0.1988  0.2279
  115OSM      N11975   5.581   0.472  10.675  0.4229  0.2531  0.1269
  115OSM    C1511976   5.697   0.384  10.687  0.0765  0.1188 -0.5452
  115OSM   H15A11977   5.790   0.421  10.646 -0.8495  1.3073 -1.5910
  115OSM   H15B11978   5.663   0.292  10.642  0.6938  1.4930 -3.9248
  115OSM   H15C11979   5.723   0.373  10.792  0.7987 -0.8033 -0.8115
  115OSM    C1411980   5.612   0.596  10.757  0.6504 -0.1228  0.5652
  115OSM   H14A11981   5.698   0.644  10.714  1.2798  0.1978  2.1431
  115OSM   H14B11982   5.638   0.570  10.859  1.5472  2.8422  1.1496
  115OSM   H14C11983   5.528   0.664  10.767  1.6423  1.0405  1.1171
  115OSM    C1311984   5.546   0.504  10.536 -0.2739 -0.6081 -0.3741
  115OSM   H13A11985   5.623   0.552  10.477 -0.3376 -2.0093 -1.6147
  115OSM   H13B11986   5.458   0.566  10.531 -0.0506 -0.3792 -1.8899
  115OSM   H13C11987   5.514   0.412  10.490 -0.6753  0.1512 -1.6630
  115OSM    C1211988   5.468   0.388  10.734  1.0340 -0.0537 -0.1107
  115OSM   H12A11989   5.465   0.293  10.682 -4.2172 -0.1955  0.1410
  115OSM   H12B11990   5.375   0.441  10.721  1.0334 -0.4774 -1.9287
  115OSM    C1111991   5.478   0.356  10.884  0.6082  0.5664  0.1411
  115OSM   H11A11992   5.491   0.449  10.942 -1.7865  0.3587  1.0756
  115OSM   H11B11993   5.563   0.287  10.902 -1.1337 -1.8680 -0.6573
  115OSM      P11994   5.324   0.150  10.934 -0.4051  0.0489  0.0394
  115OSM    O1311995   5.444   0.079  10.983 -0.2276 -0.0225 -0.5883
  115OSM    O1411996   5.201   0.124  11.016  0.3195 -0.4826  0.1706
  115OSM    O1111997   5.305   0.108  10.782 -0.4689  0.4295  0.0422
  115OSM    O1211998   5.350   0.303  10.928  0.3843 -0.0338  0.0831
  115OSM    C1S11999   5.197   0.142  10.702 -0.4779  0.4302 -0.6861
  115OSM    H1S12000   5.217   0.243  10.661  0.0609  1.4532  1.9787
  115OSM    H1T12001   5.108   0.152  10.768  0.6304 -0.8629  1.0422
  115OSM     NF12002   5.078   0.101  10.495 -0.4500  0.8377 -0.1208
  115OSM    HNF12003   4.985   0.070  10.513  0.3516 -1.2668  0.5291
  115OSM    C2S12004   5.182   0.041  10.583  0.1446 -0.5654  0.6056
  115OSM    H2S12005   5.276   0.028  10.526 -0.0018 -0.4675  0.3419
  115OSM    C3S12006   5.159  -0.102  10.645 -0.2157 -0.3241 -0.0154
  115OSM    H3S12007   5.066  -0.090  10.705 -0.9118 -1.1349 -0.9226
  115OSM     O312008   5.270  -0.156  10.722  0.1758 -0.2743  0.1125
  115OSM    HO312009   5.287  -0.078  10.776 -1.4793  0.8487 -0.9331
  115OSM    C4S12010   5.124  -0.206  10.538 -0.2674  0.7110  0.0813
  115OSM    H4S12011   5.026  -0.181  10.495  0.2984  0.1681 -1.5758
  115OSM    C5S12012   5.194  -0.306  10.483 -0.3656  0.0077  0.0647
  115OSM    H5S12013   5.295  -0.335  10.512  0.5665  2.2345 -0.7881
  115OSM    C6S12014   5.141  -0.387  10.365  0.2961  0.3371  0.3581
  115OSM    H6S12015   5.121  -0.491  10.398  2.1682 -0.2894 -0.4287
  115OSM    H6T12016   5.219  -0.403  10.288  0.8776  2.3363  0.4941
  115OSM    C7S12017   5.013  -0.344  10.300  0.7688  0.4680  0.3013
  115OSM    H7S12018   5.024  -0.241  10.262 -1.2895  1.6548  2.7661
  115OSM    H7T12019   4.926  -0.337  10.369 -1.1703  2.6943 -2.2809
  115OSM    C8S12020   4.972  -0.434  10.179  0.3737 -0.5742  0.8048
  115OSM    H8S12021   4.925  -0.529  10.209  0.2243 -0.5490  0.6522
  115OSM    H8T12022   5.056  -0.447  10.107 -0.8806  3.9160 -1.7236
  115OSM    C9S12023   4.873  -0.362  10.090 -0.6970 -0.5501 -0.2087
  115OSM    H9S12024   4.926  -0.273  10.050 -0.8534 -1.2775 -2.1036
  115OSM    H9T12025   4.789  -0.332  10.156 -0.1880  1.7682 -0.5609
  115OSM   C10S12026   4.808  -0.445   9.982  0.2694 -0.4427 -0.4682
  115OSM   H10S12027   4.725  -0.391   9.931 -1.1099 -1.1949  0.8938
  115OSM   H10T12028   4.748  -0.531  10.019  0.8846 -0.4535  0.5069
  115OSM   C11S12029   4.905  -0.491   9.871  0.5608 -0.4359 -0.3504
  115OSM   H11S12030   4.989  -0.542   9.923  1.5750  0.5830 -0.9492
  115OSM   H11T12031   4.947  -0.404   9.816 -0.8826  0.2109 -0.4416
  115OSM   C12S12032   4.858  -0.592   9.772  0.0572  0.0990  1.0970
  115OSM   H12S12033   4.800  -0.673   9.821 -0.0269  0.1566  1.0940
  115OSM   H12T12034   4.948  -0.642   9.729 -1.5676 -0.3956 -1.8379
  115OSM   C13S12035   4.785  -0.529   9.668 -0.0997 -0.0281  0.2579
  115OSM   H13S12036   4.813  -0.428   9.630 -1.2485  0.5388  0.8601
  115OSM   H13T12037   4.688  -0.503   9.717 -0.7861 -0.5613 -0.8092
  115OSM   C14S12038   4.727  -0.619   9.559 -0.6469  1.2499  0.2220
  115OSM   H14S12039   4.654  -0.695   9.594 -0.6239  1.0560 -0.1438
  115OSM   H14T12040   4.809  -0.674   9.509 -0.4683  1.8754 -0.1883
  115OSM   C15S12041   4.644  -0.540   9.452 -0.3456  0.4255  0.1689
  115OSM   H15S12042   4.684  -0.436   9.447 -2.4953  1.2465 -0.1905
  115OSM   H15T12043   4.538  -0.530   9.483 -0.5631  1.5695 -0.8788
  115OSM   C16S12044   4.653  -0.606   9.309  0.3112 -0.4619  0.1166
  115OSM   H16S12045   4.582  -0.691   9.304 -2.2434  1.5634  0.6369
  115OSM   H16T12046   4.748  -0.662   9.300  0.9946  0.1778  2.8361
  115OSM   C17S12047   4.620  -0.529   9.173 -0.4118  0.1700 -0.1327
  115OSM   H17S12048   4.639  -0.590   9.082 -1.5368 -2.3044  1.2189
  115OSM   H17T12049   4.690  -0.443   9.170  0.0240 -0.1716  0.1397
  115OSM   C18S12050   4.481  -0.466   9.177 -0.1992 -0.4071  0.7354
  115OSM   H18S12051   4.393  -0.526   9.209 -1.4865  0.9483 -0.1852
  115OSM   H18T12052   4.460  -0.426   9.076  2.9448 -2.8399 -0.9569
  115OSM   H18U12053   4.484  -0.376   9.242  0.3800 -0.6022  0.9800
  115OSM    C1F12054   5.089   0.201  10.412 -0.6118  0.7096  0.4059
  115OSM     OF12055   5.194   0.264  10.399  0.5545 -0.3185  0.9689
  115OSM    C2F12056   4.968   0.232  10.326  0.4922 -0.0749  0.4227
  115OSM    H2F12057   4.902   0.297  10.388 -0.0248 -0.1836 -0.0104
  115OSM    H2G12058   4.910   0.143  10.293  0.4827  0.7298 -1.7962
  115OSM    C3F12059   4.998   0.314  10.201  0.5342 -0.4981  0.1781
  115OSM    H3F12060   5.079   0.267  10.141 -0.0389 -1.0212 -0.1902
  115OSM    H3G12061   5.031   0.415  10.234  0.8209 -1.4351  2.8698
  115OSM    C4F12062   4.874   0.335  10.115 -0.4144  0.3269 -0.1820
  115OSM    H4F12063   4.786   0.370  10.173  0.8005  0.1620  1.7998
  115OSM    H4G12064   4.847   0.237  10.070 -1.2359 -0.2377  1.4939
  115OSM    C5F12065   4.918   0.437  10.001 -0.4086  0.4017  0.4400
  115OSM    H5F12066   5.017   0.404   9.963 -0.6866  0.8329 -0.6951
  115OSM    H5G12067   4.932   0.540  10.040  1.7295  0.1932  0.2982
  115OSM    C6F12068   4.829   0.443   9.870 -0.0788  0.7479  0.9628
  115OSM    H6F12069   4.728   0.479   9.902 -1.5478 -2.8995  0.6071
  115OSM    H6G12070   4.818   0.338   9.837 -1.9689  1.3063 -0.2780
  115OSM    C7F12071   4.887   0.519   9.754  0.0950  1.0248 -0.1869
  115OSM    H7F12072   4.963   0.454   9.706  0.4528  0.9261  0.5110
  115OSM    H7G12073   4.940   0.607   9.797  0.4716  0.0152  1.4368
  115OSM    C8F12074   4.772   0.559   9.659 -0.7727 -0.2329 -0.0845
  115OSM    H8F12075   4.829   0.626   9.591 -0.8003 -1.3698 -1.2490
  115OSM    H8G12076   4.701   0.620   9.717 -1.1723 -0.5302 -0.2586
  115OSM    C9F12077   4.699   0.445   9.582  0.0494  0.0274  0.8172
  115OSM    H9F12078   4.600   0.412   9.616  0.1407 -0.2836  0.7863
  115OSM   C10F12079   4.738   0.404   9.461  0.1301 -0.6870 -0.1088
  115OSM   H10F12080   4.675   0.328   9.412  0.1897 -0.0282 -1.2301
  115OSM   C11F12081   4.845   0.452   9.367  0.4507 -0.0042 -0.3263
  115OSM   H11F12082   4.907   0.365   9.338  0.8985  0.9467 -2.2636
  115OSM   H11G12083   4.906   0.531   9.416 -0.3926 -0.5108  1.6239
  115OSM   C12F12084   4.778   0.522   9.248  0.2533  0.1080  0.5089
  115OSM   H12F12085   4.713   0.608   9.277  0.6762  1.4922 -2.3650
  115OSM   H12G12086   4.711   0.441   9.212  1.5939 -0.8655  0.1726
  115OSM   C13F12087   4.874   0.565   9.129 -0.2990 -0.0555  1.2717
  115OSM   H13F12088   4.924   0.472   9.096 -0.4814  0.6458 -1.0350
  115OSM   H13G12089   4.952   0.638   9.162 -1.3991  1.1703  1.2116
  115OSM   C14F12090   4.790   0.633   9.027  0.2492 -0.7777  0.1277
  115OSM   H14F12091   4.741   0.723   9.068  0.2968  0.3087 -2.1397
  115OSM   H14G12092   4.711   0.568   8.983 -0.1631  1.3932 -2.4202
  115OSM   C15F12093   4.869   0.669   8.902 -0.3605  0.7171 -0.2746
  115OSM   H15F12094   4.945   0.591   8.880 -0.2509  0.4676  0.9692
  115OSM   H15G12095   4.924   0.761   8.930 -1.1660  0.7708  1.1691
  115OSM   C16F12096   4.779   0.696   8.776  0.4597  0.1964  0.0547
  115OSM   H16F12097   4.839   0.760   8.708  0.5517  0.1000  0.0451
  115OSM   H16G12098   4.686   0.747   8.810  0.6150  0.3509  0.2502
  115OSM   C17F12099   4.745   0.579   8.690 -0.2867 -0.3341  0.3232
  115OSM   H17F12100   4.695   0.500   8.749 -1.9031  0.2758 -0.2171
  115OSM   H17G12101   4.833   0.525   8.648 -0.0659  0.9695 -0.9496
  115OSM   C18F12102   4.657   0.627   8.568 -0.5484  0.1923 -0.2211
  115OSM   H18F12103   4.715   0.670   8.484  1.2471 -1.8749 -0.0818
  115OSM   H18G12104   4.594   0.713   8.598 -2.0074 -1.3538  1.2982
  115OSM   H18H12105   4.591   0.545   8.531 -1.4485  0.7526  0.1254
  116OSM      N12106   0.986   3.730  10.958 -0.6655 -0.0113 -0.2816
  116OSM    C1512107   0.959   3.583  10.973 -0.5389 -0.4950 -0.4584
  116OSM   H15A12108   0.948   3.555  11.076  2.8724  0.7182  0.3131
  116OSM   H15B12109   1.032   3.513  10.935  0.8969  0.7956 -0.1405
  116OSM   H15C12110   0.864   3.578  10.923 -1.0331  1.7044  0.1744
  116OSM    C1412111   0.962   3.753  10.813 -0.2310  0.0561  0.4207
  116OSM   H14A12112   0.857   3.751  10.790  0.0152  1.3809 -0.8277
  116OSM   H14B12113   1.023   3.680  10.760  1.6518  2.2405 -0.4944
  116OSM   H14C12114   0.994   3.852  10.784  0.1636 -0.6190 -1.5508
  116OSM    C1312115   0.890   3.814  11.035 -0.0528 -0.6492 -0.7220
  116OSM   H13A12116   0.892   3.788  11.139  1.3118  0.3465 -0.4835
  116OSM   H13B12117   0.788   3.799  11.004 -0.7301 -0.4323  1.3289
  116OSM   H13C12118   0.909   3.921  11.038 -0.3868 -0.6380  1.2873
  116OSM    C1212119   1.132   3.770  10.990 -0.6245  0.0112  0.5465
  116OSM   H12A12120   1.144   3.871  10.955 -2.0397  0.1863  0.5416
  116OSM   H12B12121   1.199   3.704  10.937 -0.0866  0.1033  1.1144
  116OSM    C1112122   1.173   3.768  11.141 -0.3449 -0.6655 -0.2112
  116OSM   H11A12123   1.141   3.669  11.180 -3.7371  0.1995 -0.6637
  116OSM   H11B12124   1.113   3.848  11.192  1.0754  0.7681 -0.7552
  116OSM      P12125   1.381   3.921  11.138 -0.6616 -0.3808  0.2684
  116OSM    O1312126   1.305   4.020  11.211  0.2896 -0.4404 -0.5285
  116OSM    O1412127   1.521   3.902  11.179  0.2114  0.5504 -0.1287
  116OSM    O1112128   1.370   3.957  10.985  0.0140 -0.5355  1.0853
  116OSM    O1212129   1.312   3.789  11.148  0.7907  0.1256  0.0174
  116OSM    C1S12130   1.449   3.884  10.886 -0.5403 -0.5100  0.0172
  116OSM    H1S12131   1.453   3.775  10.907  1.4675 -0.2722  0.9867
  116OSM    H1T12132   1.550   3.932  10.884  0.0980 -1.7508  1.3348
  116OSM     NF12133   1.425   3.810  10.645 -0.1823 -0.6855  0.0989
  116OSM    HNF12134   1.492   3.833  10.575  0.3680 -0.5277  0.6668
  116OSM    C2S12135   1.378   3.906  10.744 -0.4646 -0.5138 -1.0507
  116OSM    H2S12136   1.271   3.878  10.757 -0.1443 -1.4155 -0.3167
  116OSM    C3S12137   1.401   4.054  10.707  0.5834  0.5573  0.8867
  116OSM    H3S12138   1.510   4.075  10.704  0.3889  1.5340  0.7387
  116OSM     O312139   1.346   4.150  10.796  0.2265  0.7010 -0.3936
  116OSM    HO312140   1.334   4.105  10.881 -1.1161  0.7794 -0.5250
  116OSM    C4S12141   1.351   4.085  10.567 -0.1543  0.6818  0.2653
  116OSM    H4S12142   1.433   4.072  10.495  0.6542 -1.5433  1.5455
  116OSM    C5S12143   1.230   4.119  10.526  0.0900 -0.5205 -0.3171
  116OSM    H5S12144   1.155   4.145  10.602  0.2629  0.8478 -0.6099
  116OSM    C6S12145   1.191   4.146  10.389  0.4258  0.3698  0.0125
  116OSM    H6S12146   1.165   4.253  10.378 -0.5134 -0.1173 -2.8434
  116OSM    H6T12147   1.092   4.095  10.380  1.3425 -1.4927  0.2292
  116OSM    C7S12148   1.272   4.100  10.260 -0.1300 -0.2757  0.3931
  116OSM    H7S12149   1.303   3.994  10.276  1.8902  0.4455  1.4496
  116OSM    H7T12150   1.360   4.167  10.261 -2.5797  3.0705  1.0296
  116OSM    C8S12151   1.192   4.105  10.129  0.8072  0.5951 -0.1085
  116OSM    H8S12152   1.171   4.209  10.097  0.0499  1.0297  1.7448
  116OSM    H8T12153   1.093   4.060  10.152  1.0476  0.5741  0.9211
  116OSM    C9S12154   1.265   4.037  10.012  0.3709 -0.1375 -0.1037
  116OSM    H9S12155   1.311   3.944  10.052 -1.4783 -0.0949  2.2503
  116OSM    H9T12156   1.340   4.109   9.974  0.0108 -0.1671 -0.8611
  116OSM   C10S12157   1.167   4.017   9.890 -0.6021 -0.4142  0.2508
  116OSM   H10S12158   1.108   4.112   9.887 -1.4069 -0.9461 -2.4206
  116OSM   H10T12159   1.106   3.928   9.917 -0.8428 -0.0153  1.0299
  116OSM   C11S12160   1.233   4.006   9.754 -0.3447  0.2499 -0.6080
  116OSM   H11S12161   1.271   3.902   9.751 -0.3460  0.2135  0.5514
  116OSM   H11T12162   1.322   4.072   9.751  0.9214 -1.3061  1.4647
  116OSM   C12S12163   1.141   4.040   9.640 -0.4036 -0.3079  0.2812
  116OSM   H12S12164   1.101   4.143   9.641 -3.6675 -1.4195 -3.1488
  116OSM   H12T12165   1.063   3.961   9.645 -3.0205  1.9226 -3.1319
  116OSM   C13S12166   1.213   4.019   9.503 -0.0234 -0.3748 -0.3028
  116OSM   H13S12167   1.134   4.029   9.426  0.1472 -0.6735 -0.5152
  116OSM   H13T12168   1.260   3.919   9.499  0.4350 -0.1924  0.3753
  116OSM   C14S12169   1.320   4.129   9.473 -0.1437 -0.2922  0.4479
  116OSM   H14S12170   1.407   4.098   9.534 -1.4861 -1.4651  1.8178
  116OSM   H14T12171   1.280   4.228   9.504  0.4117 -0.5248  1.9573
  116OSM   C15S12172   1.379   4.129   9.324  0.2049 -0.1575  0.0122
  116OSM   H15S12173   1.291   4.147   9.259  0.9508 -3.8491 -2.1072
  116OSM   H15T12174   1.422   4.027   9.311  2.9692  0.6152  2.4605
  116OSM   C16S12175   1.491   4.235   9.295  0.3962  0.7848  0.3775
  116OSM   H16S12176   1.569   4.225   9.374  1.0203  1.2168 -0.1715
  116OSM   H16T12177   1.446   4.336   9.298 -0.3838  0.3905  2.3042
  116OSM   C17S12178   1.570   4.219   9.158 -0.1870  0.5185 -0.2562
  116OSM   H17S12179   1.627   4.124   9.168 -1.3462 -0.1577  0.0293
  116OSM   H17T12180   1.653   4.292   9.160 -0.9227  1.3975 -1.0872
  116OSM   C18S12181   1.482   4.221   9.029  0.4622 -0.3921 -0.6761
  116OSM   H18S12182   1.446   4.326   9.019 -1.5445 -0.9212  0.7699
  116OSM   H18T12183   1.399   4.148   9.041 -0.9717  1.0380 -1.6703
  116OSM   H18U12184   1.550   4.211   8.942  0.5300 -0.7302 -0.5838
  116OSM    C1F12185   1.395   3.679  10.662  0.1406  0.2970  0.2897
  116OSM     OF12186   1.303   3.638  10.734 -0.2803  0.1677 -0.5500
  116OSM    C2F12187   1.477   3.579  10.585 -0.0062  0.3969  0.9155
  116OSM    H2F12188   1.562   3.548  10.650 -0.2900 -2.2169  0.1020
  116OSM    H2G12189   1.508   3.607  10.482  1.9911 -0.2872  1.2954
  116OSM    C3F12190   1.392   3.457  10.563 -0.3901  0.1786  0.0813
  116OSM    H3F12191   1.299   3.492  10.514 -0.1231  0.4789 -0.2137
  116OSM    H3G12192   1.365   3.417  10.663  1.8721  0.6857  0.9261
  116OSM    C4F12193   1.473   3.356  10.471 -0.0825  0.1284 -0.0456
  116OSM    H4F12194   1.479   3.259  10.524 -2.3802 -0.8027 -1.4068
  116OSM    H4G12195   1.570   3.398  10.438 -0.0794 -0.8194 -1.2989
  116OSM    C5F12196   1.386   3.313  10.352 -0.6487 -0.5680 -0.5754
  116OSM    H5F12197   1.336   3.394  10.294  0.8742 -0.8239 -2.2997
  116OSM    H5G12198   1.312   3.237  10.385  1.6082 -2.8702 -0.6491
  116OSM    C6F12199   1.460   3.234  10.237 -0.0388  0.1720  1.1171
  116OSM    H6F12200   1.521   3.152  10.280  1.1204 -0.8679 -2.3379
  116OSM    H6G12201   1.533   3.309  10.201 -0.6483 -0.1829 -0.9741
  116OSM    C7F12202   1.371   3.177  10.131  0.2077 -0.2748  0.1921
  116OSM    H7F12203   1.307   3.258  10.090  1.2940  0.6759  0.3622
  116OSM    H7G12204   1.307   3.097  10.174  0.5860 -0.2871  0.7428
  116OSM    C8F12205   1.449   3.115  10.014  0.0081 -0.3864 -0.0878
  116OSM    H8F12206   1.376   3.050   9.960  0.4851 -0.4325 -0.6843
  116OSM    H8G12207   1.517   3.035  10.049 -1.3928 -0.8618  1.6153
  116OSM    C9F12208   1.491   3.215   9.905 -0.3246  0.3874  0.1294
  116OSM    H9F12209   1.568   3.291   9.927  2.2538 -1.8453 -0.8896
  116OSM   C10F12210   1.447   3.215   9.781  0.3868  0.8802 -0.0947
  116OSM   H10F12211   1.487   3.294   9.717  1.6390  1.4555  1.3610
  116OSM   C11F12212   1.342   3.130   9.711 -0.3475  0.2668 -0.0640
  116OSM   H11F12213   1.266   3.081   9.775  0.9837 -1.3215  0.3142
  116OSM   H11G12214   1.382   3.046   9.650  2.7859  0.9471  1.0038
  116OSM   C12F12215   1.250   3.225   9.629 -0.1434  1.0126  0.1702
  116OSM   H12F12216   1.207   3.311   9.685  0.8341 -0.3292  3.1129
  116OSM   H12G12217   1.175   3.169   9.570  1.6718  1.9555 -3.1252
  116OSM   C13F12218   1.337   3.269   9.511 -0.0650  0.2057 -0.6433
  116OSM   H13F12219   1.374   3.181   9.456  2.0461 -0.6662  2.0723
  116OSM   H13G12220   1.427   3.331   9.533 -1.5085  2.5685 -1.1161
  116OSM   C14F12221   1.249   3.342   9.404 -0.8734 -0.4534 -0.1538
  116OSM   H14F12222   1.150   3.293   9.396 -1.4449  0.1133  3.0679
  116OSM   H14G12223   1.298   3.347   9.304 -2.2534  1.4536 -0.7500
  116OSM   C15F12224   1.219   3.495   9.420  0.0235  0.5483  0.4757
  116OSM   H15F12225   1.316   3.548   9.427  0.4416  0.0068 -1.0312
  116OSM   H15G12226   1.167   3.504   9.518 -0.3562  3.1603  0.0496
  116OSM   C16F12227   1.126   3.541   9.310 -0.3592 -0.7464 -0.1927
  116OSM   H16F12228   1.024   3.496   9.305  0.4835 -2.6860 -0.4751
  116OSM   H16G12229   1.184   3.523   9.217  2.2698  0.5807  1.1270
  116OSM   C17F12230   1.109   3.694   9.318  0.4411 -0.2564 -0.7107
  116OSM   H17F12231   1.208   3.745   9.308  0.2069  0.6007  1.2105
  116OSM   H17G12232   1.056   3.722   9.411  0.9474  0.4967 -0.6484
  116OSM   C18F12233   1.026   3.753   9.207 -0.1738 -0.0294 -0.0369
  116OSM   H18F12234   1.056   3.703   9.113 -2.5503 -0.9665 -0.3229
  116OSM   H18G12235   1.033   3.863   9.192  0.2141 -0.1487 -0.7417
  116OSM   H18H12236   0.922   3.718   9.222 -0.4403  0.8808  0.2667
  117OSM      N12237   6.121   5.003  11.149  0.1174  0.2087 -0.4388
  117OSM    C1512238   6.158   5.134  11.226  0.1390  0.3832  0.2280
  117OSM   H15A12239   6.178   5.217  11.160 -4.6731  1.3201 -0.2166
  117OSM   H15B12240   6.237   5.117  11.298  0.7864 -3.1743 -1.2121
  117OSM   H15C12241   6.074   5.175  11.280 -0.2136  0.8345 -0.6640
  117OSM    C1412242   5.991   5.021  11.070  0.0981 -0.2085 -0.5267
  117OSM   H14A12243   5.996   5.108  11.007  1.4470  0.7930  0.9224
  117OSM   H14B12244   5.909   5.023  11.139  0.3821 -1.7729 -0.1115
  117OSM   H14C12245   5.974   4.933  11.010  0.0864 -2.1122  2.1704
  117OSM    C1312246   6.229   4.993  11.049  0.1267 -0.2639  0.5535
  117OSM   H13A12247   6.326   4.990  11.096 -0.3975 -0.8624  1.6173
  117OSM   H13B12248   6.219   5.070  10.974  1.8945  1.4307  1.9916
  117OSM   H13C12249   6.218   4.893  11.011 -1.3144  0.6864 -1.6187
  117OSM    C1212250   6.118   4.875  11.239  0.1663 -0.2644 -0.5383
  117OSM   H12A12251   6.060   4.900  11.326  0.3446 -0.2955 -0.4096
  117OSM   H12B12252   6.219   4.846  11.265  0.2168  0.0463 -0.3903
  117OSM    C1112253   6.059   4.747  11.167  0.1632 -0.1351 -0.8348
  117OSM   H11A12254   5.952   4.750  11.138  0.3709  0.7016 -1.5400
  117OSM   H11B12255   6.073   4.683  11.256  1.1682  0.3511 -0.6375
  117OSM      P12256   6.158   4.560  11.012  0.3494  0.0232  0.0096
  117OSM    O1312257   6.260   4.494  11.094  0.4019  0.6585 -0.3147
  117OSM    O1412258   6.026   4.488  11.018  0.1654  0.3368 -0.2120
  117OSM    O1112259   6.204   4.558  10.864  0.0023  0.9886 -0.1871
  117OSM    O1212260   6.138   4.707  11.052 -0.0410 -0.0623 -0.5625
  117OSM    C1S12261   6.332   4.595  10.807  0.5828 -0.1200  0.4310
  117OSM    H1S12262   6.414   4.559  10.873  0.8096  1.7336  1.2133
  117OSM    H1T12263   6.343   4.705  10.791 -1.9052  0.1029  0.1377
  117OSM     NF12264   6.489   4.555  10.617 -0.2009 -0.3262 -0.4578
  117OSM    HNF12265   6.487   4.624  10.545 -0.8408 -0.1989 -0.3211
  117OSM    C2S12266   6.350   4.529  10.663  0.8408 -0.1257 -0.2429
  117OSM    H2S12267   6.344   4.419  10.676 -0.3254  0.0135  0.5378
  117OSM    C3S12268   6.238   4.577  10.568  0.0879 -0.3531  0.4274
  117OSM    H3S12269   6.237   4.688  10.567  2.6259 -0.3050  0.0177
  117OSM     O312270   6.107   4.558  10.622  0.1874  0.7580  0.3969
  117OSM    HO312271   6.125   4.553  10.716 -0.2204 -1.7660  0.3966
  117OSM    C4S12272   6.258   4.529  10.426 -0.2792 -0.4212 -0.3970
  117OSM    H4S12273   6.324   4.593  10.366 -2.3425  3.0272  0.8740
  117OSM    C5S12274   6.192   4.429  10.373  0.1705 -0.2160 -0.3733
  117OSM    H5S12275   6.141   4.355  10.437  0.8782  0.9760  1.6210
  117OSM    C6S12276   6.213   4.390  10.230  0.2957  0.2735 -0.2625
  117OSM    H6S12277   6.122   4.398  10.167 -0.3611  0.9558  0.7594
  117OSM    H6T12278   6.244   4.284  10.230  0.6881  0.3638 -2.4387
  117OSM    C7S12279   6.323   4.467  10.144  0.1139  0.4017  1.3069
  117OSM    H7S12280   6.415   4.475  10.206  0.1242  2.0257  1.1055
  117OSM    H7T12281   6.297   4.574  10.126  3.9538  0.8831 -2.1901
  117OSM    C8S12282   6.359   4.403  10.008 -0.0874  0.3888 -0.4829
  117OSM    H8S12283   6.323   4.298  10.018 -2.8008  1.5040  2.3884
  117OSM    H8T12284   6.469   4.400   9.995 -0.1332  2.2290 -1.3999
  117OSM    C9S12285   6.269   4.466   9.892  0.0521  0.5780 -0.3786
  117OSM    H9S12286   6.314   4.566   9.880  1.5595 -0.2424 -1.8291
  117OSM    H9T12287   6.168   4.487   9.933  0.5326  1.7539  0.2006
  117OSM   C10S12288   6.258   4.386   9.766 -0.3242 -0.4623  0.5129
  117OSM   H10S12289   6.187   4.302   9.781 -1.1271  0.1522  0.1734
  117OSM   H10T12290   6.358   4.346   9.738  0.1044  0.3822  0.7978
  117OSM   C11S12291   6.224   4.471   9.644  0.1008 -0.5085 -0.4735
  117OSM   H11S12292   6.307   4.543   9.644 -0.3928  0.0636 -0.0864
  117OSM   H11T12293   6.125   4.519   9.663  1.0643  1.0723  0.6205
  117OSM   C12S12294   6.209   4.392   9.508 -0.2633 -0.2200  0.2364
  117OSM   H12S12295   6.128   4.316   9.502 -0.9463  0.3657  1.6370
  117OSM   H12T12296   6.303   4.349   9.467  0.1552  2.2412 -1.5155
  117OSM   C13S12297   6.153   4.487   9.396 -0.2171 -0.1441 -0.2739
  117OSM   H13S12298   6.234   4.561   9.379  0.7715 -1.0958  0.1907
  117OSM   H13T12299   6.062   4.532   9.440 -0.2922 -0.5726  0.0157
  117OSM   C14S12300   6.113   4.424   9.263  0.3316 -0.1573 -0.6068
  117OSM   H14S12301   6.043   4.488   9.205 -0.1563 -1.4799 -1.5160
  117OSM   H14T12302   6.065   4.327   9.290  1.8834 -1.3774 -2.0917
  117OSM   C15S12303   6.240   4.391   9.189 -0.1026 -0.2102  0.0359
  117OSM   H15S12304   6.237   4.292   9.139 -3.1538 -0.4468  0.6162
  117OSM   H15T12305   6.327   4.400   9.257  1.1109  0.3939 -1.5648
  117OSM   C16S12306   6.258   4.484   9.077 -0.1777  0.2079  0.3045
  117OSM   H16S12307   6.287   4.583   9.118  0.5593  0.2542 -0.3192
  117OSM   H16T12308   6.167   4.480   9.012  0.0226  0.8337 -0.0244
  117OSM   C17S12309   6.388   4.440   8.998  0.7772 -0.2970 -0.2122
  117OSM   H17S12310   6.375   4.346   8.941 -1.2039  0.1776 -0.5997
  117OSM   H17T12311   6.475   4.419   9.063  1.7130 -1.6043 -1.8405
  117OSM   C18S12312   6.416   4.537   8.879 -0.1853  0.0447  0.6327
  117OSM   H18S12313   6.335   4.516   8.806 -0.7738  1.8643  0.7197
  117OSM   H18T12314   6.511   4.526   8.823 -0.3131  3.7654 -0.4645
  117OSM   H18U12315   6.414   4.644   8.911 -2.2835  0.2776 -0.1567
  117OSM    C1F12316   6.603   4.507  10.674  1.3311 -0.2437 -0.3698
  117OSM     OF12317   6.613   4.419  10.754  0.2653  0.2981 -0.2178
  117OSM    C2F12318   6.724   4.588  10.634 -0.4040 -0.5856 -0.4841
  117OSM    H2F12319   6.789   4.613  10.720 -0.7977 -1.0113 -0.0574
  117OSM    H2G12320   6.690   4.687  10.596  2.7870  0.7273 -0.0981
  117OSM    C3F12321   6.813   4.513  10.522  0.6862  0.3565  0.1941
  117OSM    H3F12322   6.836   4.412  10.562 -1.0676  0.3227  1.1533
  117OSM    H3G12323   6.902   4.576  10.504  2.0601 -0.8570  2.4630
  117OSM    C4F12324   6.743   4.481  10.387 -0.1327 -0.1686 -0.1476
  117OSM    H4F12325   6.727   4.579  10.337 -0.4358 -0.8548 -1.4457
  117OSM    H4G12326   6.643   4.440  10.413  0.5738 -0.7028  1.7913
  117OSM    C5F12327   6.811   4.381  10.292  0.6821 -0.1226 -0.1207
  117OSM    H5F12328   6.808   4.280  10.340 -1.8507 -0.4115 -0.7852
  117OSM    H5G12329   6.915   4.412  10.272 -0.2590  1.5567 -2.6675
  117OSM    C6F12330   6.747   4.383  10.154  0.3961  0.2663  1.3671
  117OSM    H6F12331   6.739   4.489  10.120 -0.5571 -0.2463 -0.0234
  117OSM    H6G12332   6.648   4.334  10.157 -0.0653  1.2220  2.1038
  117OSM    C7F12333   6.824   4.293  10.054 -0.1292 -0.3147  0.3894
  117OSM    H7F12334   6.832   4.199  10.113 -1.8347 -0.3036  0.6684
  117OSM    H7G12335   6.920   4.344  10.032 -0.2888  0.1656  0.7856
  117OSM    C8F12336   6.748   4.270   9.923  0.3550  0.3485 -0.1031
  117OSM    H8F12337   6.813   4.211   9.856  0.1428 -0.6787  0.5848
  117OSM    H8G12338   6.728   4.371   9.882  1.3281  0.5925  0.0199
  117OSM    C9F12339   6.622   4.184   9.934  0.3600  0.7031  0.0627
  117OSM    H9F12340   6.577   4.161  10.032 -0.0679 -1.5074 -0.6305
  117OSM   C10F12341   6.557   4.123   9.827  0.1846  0.1546 -0.7264
  117OSM   H10F12342   6.480   4.049   9.853  0.8110  0.0681  0.9709
  117OSM   C11F12343   6.592   4.129   9.687 -0.1265  0.5507  0.4556
  117OSM   H11F12344   6.676   4.058   9.670 -2.1256 -1.6273 -0.5502
  117OSM   H11G12345   6.627   4.233   9.668 -1.8269  1.1488  0.5279
  117OSM   C12F12346   6.482   4.096   9.588 -0.5264 -0.5870 -0.2162
  117OSM   H12F12347   6.396   4.166   9.604 -0.4285 -0.4595 -0.2467
  117OSM   H12G12348   6.434   3.997   9.605  1.1656 -1.3936 -0.0732
  117OSM   C13F12349   6.535   4.083   9.445 -0.0815 -0.5070  0.1350
  117OSM   H13F12350   6.626   4.021   9.428  0.3136  0.5417 -1.7551
  117OSM   H13G12351   6.562   4.185   9.410 -0.6425 -0.6507 -0.7175
  117OSM   C14F12352   6.425   4.038   9.353 -0.6421  0.1118  1.0420
  117OSM   H14F12353   6.339   4.103   9.376 -1.7135 -1.3593  1.2955
  117OSM   H14G12354   6.394   3.932   9.363 -2.7776  0.4599 -1.3996
  117OSM   C15F12355   6.461   4.061   9.207  0.3879 -0.0689 -0.0982
  117OSM   H15F12356   6.505   4.160   9.182  0.7114 -0.3081 -0.4867
  117OSM   H15G12357   6.368   4.060   9.145 -0.4736 -2.0713  1.1602
  117OSM   C16F12358   6.581   3.970   9.159  0.0028 -0.6374  0.8155
  117OSM   H16F12359   6.548   3.866   9.178  0.0933 -1.0935 -1.4391
  117OSM   H16G12360   6.678   3.992   9.208 -0.5882 -1.4104  2.3988
  117OSM   C17F12361   6.607   3.969   9.012  0.0388 -0.6617 -0.6417
  117OSM   H17F12362   6.668   4.058   8.985 -0.9066 -0.3455 -1.7486
  117OSM   H17G12363   6.512   3.981   8.956 -0.3408 -0.3631  0.0747
  117OSM   C18F12364   6.669   3.841   8.955 -0.1582 -0.1535  0.4838
  117OSM   H18F12365   6.618   3.747   8.984  2.9690 -2.2763 -0.6103
  117OSM   H18G12366   6.770   3.833   9.001  0.0529  2.6658  0.6207
  117OSM   H18H12367   6.681   3.855   8.845  0.2368  0.8152  0.6429
  118OSM      N12368   6.070   6.059  10.931  0.1710  0.1086 -0.7762
  118OSM    C1512369   6.004   6.163  11.027  0.4547  0.4344  0.6795
  118OSM   H15A12370   5.976   6.112  11.118  1.5092 -0.7310  0.3703
  118OSM   H15B12371   5.914   6.202  10.982  1.6255 -1.3238 -3.4720
  118OSM   H15C12372   6.052   6.255  11.057 -1.0698  1.7010 -0.6685
  118OSM    C1412373   5.957   5.965  10.902 -0.4980  0.2209 -0.4112
  118OSM   H14A12374   5.899   5.996  10.816  0.1010 -1.1283 -1.3213
  118OSM   H14B12375   5.896   5.950  10.990  0.2680 -1.1776 -0.1003
  118OSM   H14C12376   5.988   5.863  10.884  0.0869 -0.0630  1.9897
  118OSM    C1312377   6.136   6.121  10.816 -0.0835 -0.2705 -0.3788
  118OSM   H13A12378   6.169   6.048  10.744 -2.0070  0.6866 -2.2806
  118OSM   H13B12379   6.208   6.194  10.851 -1.1835 -0.2989  2.0919
  118OSM   H13C12380   6.063   6.181  10.765 -1.4301  0.0858  1.8711
  118OSM    C1212381   6.171   5.981  11.015 -0.2652 -0.1158  0.4037
  118OSM   H12A12382   6.208   5.899  10.954 -0.2885 -0.2220  0.5343
  118OSM   H12B12383   6.114   5.938  11.095 -2.5651  0.9517 -0.6245
  118OSM    C1112384   6.293   6.055  11.070  0.2796  1.2970  0.4727
  118OSM   H11A12385   6.359   5.994  11.135  2.1383 -1.1333 -3.4363
  118OSM   H11B12386   6.251   6.138  11.130  0.3522  3.0493 -1.8004
  118OSM      P12387   6.493   6.017  10.910  0.0486 -0.2987  0.1414
  118OSM    O1312388   6.606   6.107  10.873 -0.0376  0.1274 -0.9081
  118OSM    O1412389   6.532   5.913  11.009 -0.5064 -0.1436 -0.4406
  118OSM    O1112390   6.433   5.942  10.783 -0.1927 -0.7165 -0.0681
  118OSM    O1212391   6.376   6.105  10.965  0.3025  0.6712 -0.0474
  118OSM    C1S12392   6.450   6.001  10.649 -0.0289 -1.0339  0.4266
  118OSM    H1S12393   6.554   6.037  10.642 -0.3805 -0.4569 -2.3262
  118OSM    H1T12394   6.391   6.094  10.631 -2.9715 -2.6940  0.9962
  118OSM     NF12395   6.476   5.933  10.418  0.2595 -0.2312 -0.2275
  118OSM    HNF12396   6.437   5.998  10.354  1.6764 -0.1986 -1.0844
  118OSM    C2S12397   6.406   5.895  10.537  0.0549 -0.2224  0.0684
  118OSM    H2S12398   6.438   5.793  10.565 -0.8292  0.0326  2.0554
  118OSM    C3S12399   6.255   5.895  10.529  1.2225 -0.9452 -1.2084
  118OSM    H3S12400   6.221   6.000  10.521  2.9928 -0.2637 -0.2459
  118OSM     O312401   6.199   5.852  10.649 -0.6750 -0.4714 -0.3772
  118OSM    HO312402   6.278   5.860  10.703 -0.6414 -1.7364 -0.2216
  118OSM    C4S12403   6.199   5.815  10.414  0.1707  0.1066 -0.1404
  118OSM    H4S12404   6.176   5.709  10.436 -0.9945 -0.0068 -1.7939
  118OSM    C5S12405   6.174   5.863  10.290 -0.4107  0.4102 -0.7179
  118OSM    H5S12406   6.181   5.972  10.276  0.3997  0.3928 -0.4482
  118OSM    C6S12407   6.127   5.782  10.167  0.1481 -0.2443  0.0002
  118OSM    H6S12408   6.015   5.779  10.166  0.1530 -0.3542 -0.2784
  118OSM    H6T12409   6.149   5.673  10.174  0.3649 -0.1426  0.9009
  118OSM    C7S12410   6.178   5.838  10.035 -0.3878  0.1419  0.6003
  118OSM    H7S12411   6.289   5.834  10.044 -0.4717 -0.7123  1.3530
  118OSM    H7T12412   6.136   5.941  10.042 -0.8439 -0.1224  2.0567
  118OSM    C8S12413   6.134   5.782   9.905 -0.4564  0.0571 -1.1597
  118OSM    H8S12414   6.071   5.690   9.912  0.8298 -0.7129  0.5943
  118OSM    H8T12415   6.234   5.752   9.868  0.2409 -0.9764  1.4525
  118OSM    C9S12416   6.068   5.881   9.809 -0.2722 -0.0741 -0.7611
  118OSM    H9S12417   6.138   5.966   9.799  0.3563 -0.7999 -2.8260
  118OSM    H9T12418   5.971   5.928   9.837 -1.4245 -2.4947 -0.5850
  118OSM   C10S12419   6.050   5.803   9.675  0.3162  0.4469 -0.1334
  118OSM   H10S12420   5.966   5.732   9.692  1.4849 -0.7174  0.8269
  118OSM   H10T12421   6.136   5.736   9.654 -1.0361 -1.6107  0.7814
  118OSM   C11S12422   6.019   5.901   9.563  0.0398  0.9503 -0.0006
  118OSM   H11S12423   6.101   5.972   9.538  0.8526  0.1173  0.2881
  118OSM   H11T12424   5.935   5.969   9.588 -0.1414  0.7904 -0.1735
  118OSM   C12S12425   5.985   5.824   9.437 -0.1254 -0.1211 -0.4658
  118OSM   H12S12426   5.883   5.780   9.448  0.9011 -2.9691 -1.7438
  118OSM   H12T12427   6.054   5.742   9.407  1.2791  0.2581  1.6583
  118OSM   C13S12428   5.973   5.924   9.317 -0.1488 -0.0633 -0.4282
  118OSM   H13S12429   6.077   5.958   9.300 -1.3691  4.5048  0.5311
  118OSM   H13T12430   5.912   6.010   9.353  0.2400  0.1558 -0.2895
  118OSM   C14S12431   5.904   5.866   9.193  0.5670 -0.2511  0.5180
  118OSM   H14S12432   5.798   5.844   9.215  0.6223 -0.3386  0.7043
  118OSM   H14T12433   5.943   5.769   9.156 -1.1016 -0.4827 -0.6422
  118OSM   C15S12434   5.914   5.966   9.077  0.7739 -0.6059 -0.2665
  118OSM   H15S12435   6.019   5.985   9.048  0.2525  1.9902 -0.6152
  118OSM   H15T12436   5.870   6.064   9.107  1.4104 -0.9326  1.7481
  118OSM   C16S12437   5.850   5.939   8.938 -0.2127  0.6028 -0.1992
  118OSM   H16S12438   5.750   5.900   8.965 -0.0456  1.3995  1.6868
  118OSM   H16T12439   5.908   5.855   8.894 -1.0421 -0.7061  1.1526
  118OSM   C17S12440   5.843   6.058   8.846  0.3530 -0.3178  0.6583
  118OSM   H17S12441   5.946   6.098   8.836 -0.8885  3.1618  0.9156
  118OSM   H17T12442   5.773   6.124   8.902  0.4915 -0.3451  0.8653
  118OSM   C18S12443   5.769   6.026   8.715 -0.2893 -0.3364 -0.3259
  118OSM   H18S12444   5.660   6.022   8.739 -1.1303  1.5527 -3.4346
  118OSM   H18T12445   5.815   5.934   8.675  1.2553  0.1709  0.2455
  118OSM   H18U12446   5.790   6.105   8.640  1.0614  0.8613  1.2826
  118OSM    C1F12447   6.598   5.899  10.397 -0.3009  0.1604 -0.1243
  118OSM     OF12448   6.644   5.808  10.464 -0.2174 -0.3465  0.3665
  118OSM    C2F12449   6.672   5.974  10.291  0.0940  0.0088  0.1020
  118OSM    H2F12450   6.765   6.015  10.335 -0.7066  1.8071  0.1968
  118OSM    H2G12451   6.601   6.051  10.253 -1.2723 -1.2708  0.0253
  118OSM    C3F12452   6.726   5.879  10.178 -0.5457 -0.9028  0.5058
  118OSM    H3F12453   6.799   5.804  10.217  1.2350  0.2838 -0.4843
  118OSM    H3G12454   6.780   5.950  10.112  0.8051 -0.4198  2.0855
  118OSM    C4F12455   6.623   5.809  10.098  0.7710 -0.4398  0.4692
  118OSM    H4F12456   6.538   5.878  10.078 -0.2184 -2.2632 -1.9003
  118OSM    H4G12457   6.585   5.735  10.170 -1.2688 -0.2872 -0.4257
  118OSM    C5F12458   6.672   5.739   9.976  0.4611  0.3753  0.1594
  118OSM    H5F12459   6.733   5.651  10.003  1.4487  1.4803  1.6503
  118OSM    H5G12460   6.739   5.804   9.916 -0.5705  1.7351  0.4393
  118OSM    C6F12461   6.558   5.707   9.881 -0.0985 -0.0315 -0.1898
  118OSM    H6F12462   6.493   5.797   9.877 -0.6666 -0.4002  0.5312
  118OSM    H6G12463   6.496   5.622   9.916  0.0633 -1.3259 -2.9046
  118OSM    C7F12464   6.618   5.671   9.740 -0.2633 -0.8797  0.1467
  118OSM    H7F12465   6.669   5.573   9.751  2.6135  0.0046 -4.0046
  118OSM    H7G12466   6.695   5.748   9.715 -0.4141 -0.3543  1.2734
  118OSM    C8F12467   6.504   5.656   9.630  0.1027  0.2172 -0.4007
  118OSM    H8F12468   6.437   5.740   9.657 -2.5168 -1.8939 -0.0625
  118OSM    H8G12469   6.450   5.559   9.640  0.6995  0.0243  1.0350
  118OSM    C9F12470   6.572   5.657   9.495  0.7341  0.0565 -0.4984
  118OSM    H9F12471   6.676   5.621   9.503  1.5555  2.7707  2.1501
  118OSM   C10F12472   6.516   5.704   9.380  0.0216  0.0231  0.0463
  118OSM   H10F12473   6.591   5.716   9.301  2.1393  0.5930  2.0691
  118OSM   C11F12474   6.372   5.761   9.363  0.5439 -0.3766 -0.1498
  118OSM   H11F12475   6.388   5.865   9.329 -0.8261  0.1716  0.8277
  118OSM   H11G12476   6.314   5.771   9.458  0.2968 -3.6712  0.1245
  118OSM   C12F12477   6.290   5.677   9.260 -0.4313  0.3256 -0.3082
  118OSM   H12F12478   6.336   5.651   9.163  4.9049  2.1452  1.5776
  118OSM   H12G12479   6.193   5.724   9.235  0.2586  2.9417  1.6930
  118OSM   C13F12480   6.254   5.535   9.315 -0.1591  0.0694  0.5729
  118OSM   H13F12481   6.202   5.542   9.413 -1.4366 -0.0881 -0.0874
  118OSM   H13G12482   6.349   5.479   9.331 -0.3264 -0.3063  0.2458
  118OSM   C14F12483   6.172   5.435   9.228  0.0434 -0.1619 -0.4880
  118OSM   H14F12484   6.069   5.469   9.204  0.0984  1.0970  0.9863
  118OSM   H14G12485   6.159   5.335   9.275  0.5049  0.6830  1.5055
  118OSM   C15F12486   6.249   5.409   9.098  0.1388  0.2070  0.0222
  118OSM   H15F12487   6.359   5.419   9.112  0.4224 -0.1294 -1.8796
  118OSM   H15G12488   6.227   5.483   9.018  0.7629  0.1497 -0.2107
  118OSM   C16F12489   6.230   5.264   9.044 -0.1426  0.0871 -0.0270
  118OSM   H16F12490   6.122   5.247   9.027 -0.3296  0.2936  0.9199
  118OSM   H16G12491   6.262   5.207   9.134 -0.4414  0.0232  0.0389
  118OSM   C17F12492   6.300   5.235   8.907 -0.2569  0.4682  0.0030
  118OSM   H17F12493   6.406   5.266   8.917  0.1520 -0.4771 -1.2271
  118OSM   H17G12494   6.259   5.293   8.821 -0.0221  0.0611 -0.3823
  118OSM   C18F12495   6.303   5.082   8.891  0.5749  1.4676  0.5034
  118OSM   H18F12496   6.205   5.036   8.864  0.6765  1.8279 -0.5049
  118OSM   H18G12497   6.349   5.038   8.982 -0.6176 -0.8995  0.0146
  118OSM   H18H12498   6.358   5.059   8.797 -1.6783 -1.5283 -0.1622
  119OSM      N12499   0.688   5.202  11.397 -0.6287 -0.5343 -0.3980
  119OSM    C1512500   0.625   5.073  11.348 -0.1807 -1.4502 -0.1458
  119OSM   H15A12501   0.685   5.019  11.276 -0.9007 -1.7601 -0.5220
  119OSM   H15B12502   0.528   5.093  11.305 -0.2984 -1.6231  0.0430
  119OSM   H15C12503   0.620   4.999  11.426  1.2710 -0.9433  0.4479
  119OSM    C1412504   0.609   5.257  11.518 -0.0201  0.3606 -0.2680
  119OSM   H14A12505   0.608   5.188  11.601 -0.4431  1.5356  0.7057
  119OSM   H14B12506   0.511   5.287  11.483  0.0576  0.8637 -0.0486
  119OSM   H14C12507   0.658   5.348  11.547  2.3288 -1.4948  1.7734
  119OSM    C1312508   0.830   5.176  11.429  0.0322  0.2719 -0.0401
  119OSM   H13A12509   0.876   5.127  11.345  0.1571 -1.0055  0.7483
  119OSM   H13B12510   0.844   5.107  11.512  0.7944  1.1521  0.5748
  119OSM   H13C12511   0.888   5.266  11.445 -0.4724  0.9558 -2.0418
  119OSM    C1212512   0.690   5.301  11.287 -0.7628  0.0602 -0.7015
  119OSM   H12A12513   0.722   5.397  11.324  0.7338 -0.6980 -0.0103
  119OSM   H12B12514   0.587   5.314  11.259 -1.2228  1.2569  1.3987
  119OSM    C1112515   0.773   5.265  11.156 -0.5894  0.3428  0.6677
  119OSM   H11A12516   0.855   5.191  11.172  0.1362  0.3854 -2.4720
  119OSM   H11B12517   0.829   5.357  11.129 -1.4982  1.4346  2.4107
  119OSM      P12518   0.578   5.307  10.992 -0.2089  0.1097  0.1849
  119OSM    O1312519   0.448   5.277  11.051  0.8135  0.1212 -0.3693
  119OSM    O1412520   0.632   5.444  10.997 -0.1731  0.1320  0.5718
  119OSM    O1112521   0.579   5.250  10.843  0.5726  0.3812  0.3376
  119OSM    O1212522   0.686   5.210  11.055 -0.4760 -0.4378  0.1332
  119OSM    C1S12523   0.511   5.131  10.800  0.5115  0.6308 -0.6324
  119OSM    H1S12524   0.417   5.124  10.859  0.0914  1.5693 -1.1749
  119OSM    H1T12525   0.577   5.047  10.830 -2.2782 -1.0648  1.0269
  119OSM     NF12526   0.403   5.024  10.610 -0.3451 -0.6107 -0.1916
  119OSM    HNF12527   0.442   4.939  10.575  0.9788  0.5690 -1.5762
  119OSM    C2S12528   0.490   5.128  10.648 -0.3919 -0.3087 -0.5340
  119OSM    H2S12529   0.436   5.223  10.626  0.7776  0.7455  1.0151
  119OSM    C3S12530   0.626   5.111  10.569  0.0306  0.7357  0.0777
  119OSM    H3S12531   0.678   5.017  10.599 -0.6536  0.0995 -0.6888
  119OSM     O312532   0.717   5.207  10.613 -0.7468 -0.5517  0.2134
  119OSM    HO312533   0.670   5.247  10.687  0.9621 -0.6816  1.4046
  119OSM    C4S12534   0.601   5.097  10.420  0.3470 -0.4621  1.1108
  119OSM    H4S12535   0.602   4.991  10.390  0.0926  0.0170 -0.6323
  119OSM    C5S12536   0.594   5.203  10.330  0.1813  0.2221 -0.1673
  119OSM    H5S12537   0.571   5.303  10.368 -1.6683 -0.0171 -0.6169
  119OSM    C6S12538   0.582   5.188  10.182  0.8300 -0.4742 -0.0390
  119OSM    H6S12539   0.560   5.087  10.140  2.1588  0.3005 -2.7306
  119OSM    H6T12540   0.673   5.221  10.128  1.9807 -2.9947  0.2813
  119OSM    C7S12541   0.461   5.257  10.115 -0.1053 -0.3753  0.3333
  119OSM    H7S12542   0.470   5.365  10.141  1.7400 -0.8806  1.8990
  119OSM    H7T12543   0.374   5.218  10.172 -1.3821 -0.7794 -1.8414
  119OSM    C8S12544   0.434   5.213   9.975  0.0714 -0.4955  0.1731
  119OSM    H8S12545   0.337   5.262   9.951  0.0406 -0.5622  0.1604
  119OSM    H8T12546   0.429   5.102   9.975  3.3679 -0.7436 -2.8859
  119OSM    C9S12547   0.548   5.252   9.875  1.2011  1.0039  0.6050
  119OSM    H9S12548   0.643   5.197   9.894  0.4651 -1.0952 -1.5545
  119OSM    H9T12549   0.570   5.361   9.873  0.8616  1.0634 -0.0658
  119OSM   C10S12550   0.484   5.225   9.736 -0.5166 -0.4355 -0.8028
  119OSM   H10S12551   0.387   5.279   9.732  0.2999  1.1404  0.2520
  119OSM   H10T12552   0.456   5.120   9.714 -0.7179 -0.2015 -1.7051
  119OSM   C11S12553   0.588   5.265   9.626 -0.2548  0.7245  0.5326
  119OSM   H11S12554   0.673   5.194   9.628 -0.8760 -0.0791 -0.8429
  119OSM   H11T12555   0.625   5.367   9.649 -1.6054  1.0735  1.2510
  119OSM   C12S12556   0.539   5.247   9.478  0.4208  0.0766  0.6479
  119OSM   H12S12557   0.441   5.298   9.468  0.8623  0.6099 -1.1319
  119OSM   H12T12558   0.527   5.137   9.468 -0.5292  0.0546  1.8689
  119OSM   C13S12559   0.644   5.305   9.374  0.2637  0.3279 -0.1326
  119OSM   H13S12560   0.735   5.245   9.396 -0.6241 -1.9849 -2.5319
  119OSM   H13T12561   0.648   5.412   9.404 -1.6459  0.4291 -0.1857
  119OSM   C14S12562   0.615   5.283   9.229  0.0614 -0.3980 -0.9219
  119OSM   H14S12563   0.548   5.369   9.205 -0.6725 -0.5278  0.6196
  119OSM   H14T12564   0.555   5.189   9.223 -1.6150  0.3095  3.0258
  119OSM   C15S12565   0.742   5.283   9.134  0.0269  0.1425 -1.2856
  119OSM   H15S12566   0.820   5.208   9.159  1.2700  1.5552 -0.8492
  119OSM   H15T12567   0.807   5.372   9.146  1.4118 -0.8522 -1.2690
  119OSM   C16S12568   0.710   5.253   8.983 -0.0717  0.1837 -0.2274
  119OSM   H16S12569   0.654   5.340   8.942  1.4452  1.3133  0.0492
  119OSM   H16T12570   0.651   5.159   8.979  2.8962 -1.8868  1.7297
  119OSM   C17S12571   0.835   5.226   8.902  0.8655  0.4573 -0.0736
  119OSM   H17S12572   0.898   5.166   8.972 -2.4542 -1.2801  1.5314
  119OSM   H17T12573   0.889   5.323   8.891  2.4395 -0.3335  0.5501
  119OSM   C18S12574   0.808   5.145   8.772  0.5934 -0.2568 -0.1433
  119OSM   H18S12575   0.730   5.193   8.710 -0.7196 -0.8496  1.0298
  119OSM   H18T12576   0.770   5.042   8.786  0.3792 -0.4548 -2.0759
  119OSM   H18U12577   0.903   5.145   8.713  0.4132 -0.4039 -0.4362
  119OSM    C1F12578   0.272   5.028  10.636  0.2392 -0.1840 -0.1224
  119OSM     OF12579   0.217   5.132  10.668  0.2122 -0.1074  0.4720
  119OSM    C2F12580   0.186   4.909  10.610  0.6092  0.4252  0.1724
  119OSM    H2F12581   0.101   4.918  10.681  0.4434 -1.0008  0.1545
  119OSM    H2G12582   0.240   4.813  10.623  0.9181  0.6930  0.9132
  119OSM    C3F12583   0.124   4.896  10.465  0.5495 -0.1535  0.4108
  119OSM    H3F12584   0.067   4.984  10.430  1.4298  0.4356  0.4533
  119OSM    H3G12585   0.060   4.806  10.469  0.4671 -0.1156 -0.0198
  119OSM    C4F12586   0.222   4.849  10.355 -0.1945  0.3377  0.8552
  119OSM    H4F12587   0.280   4.759  10.386  2.3325  2.2083  1.6090
  119OSM    H4G12588   0.291   4.932  10.329 -0.0396 -0.3570 -1.0183
  119OSM    C5F12589   0.150   4.814  10.231  0.1257  0.2590  0.7092
  119OSM    H5F12590   0.095   4.904  10.195  0.8920 -0.1840 -1.6901
  119OSM    H5G12591   0.073   4.738  10.255 -0.0604  0.7133  1.5859
  119OSM    C6F12592   0.244   4.760  10.114  0.4230 -0.3561  0.2863
  119OSM    H6F12593   0.294   4.665  10.140  0.4345 -0.3625  0.2432
  119OSM    H6G12594   0.325   4.835  10.112 -1.8832  2.2716  1.1771
  119OSM    C7F12595   0.163   4.758   9.988 -0.2503 -0.2690  0.3251
  119OSM    H7F12596   0.137   4.863   9.962 -1.1926 -0.7445 -0.6785
  119OSM    H7G12597   0.064   4.711  10.005  0.7714 -1.5506  3.0412
  119OSM    C8F12598   0.235   4.700   9.867 -0.0312 -0.6131 -0.2477
  119OSM    H8F12599   0.333   4.752   9.866 -0.1666 -0.3240  1.1154
  119OSM    H8G12600   0.193   4.730   9.769 -0.0493  2.2280  0.5808
  119OSM    C9F12601   0.252   4.555   9.870  0.0893 -0.5327 -0.0211
  119OSM    H9F12602   0.251   4.514   9.972  2.9553 -1.8712 -0.4888
  119OSM   C10F12603   0.251   4.470   9.764  0.7832 -0.2418 -0.0416
  119OSM   H10F12604   0.266   4.364   9.788  0.4878 -0.5423 -1.1519
  119OSM   C11F12605   0.222   4.494   9.619  0.1868  0.3256 -0.0346
  119OSM   H11F12606   0.318   4.492   9.563 -0.9211  1.5239 -2.0183
  119OSM   H11G12607   0.194   4.599   9.596 -0.1995  0.2148 -0.0655
  119OSM   C12F12608   0.122   4.396   9.556 -0.3250  0.4423  0.3738
  119OSM   H12F12609   0.032   4.408   9.620 -0.4959 -0.8405  0.3851
  119OSM   H12G12610   0.156   4.291   9.560  1.7156  1.0670  0.4033
  119OSM   C13F12611   0.086   4.449   9.415  0.2360  0.4210 -0.5253
  119OSM   H13F12612   0.129   4.551   9.405  2.4494 -0.2321  1.7938
  119OSM   H13G12613  -0.023   4.462   9.399  0.1854  0.9003  0.1685
  119OSM   C14F12614   0.148   4.350   9.317 -0.3869  0.0762 -0.2392
  119OSM   H14F12615   0.097   4.252   9.331  2.0466 -1.3169 -0.8342
  119OSM   H14G12616   0.257   4.342   9.336 -0.5081 -1.1750 -0.0030
  119OSM   C15F12617   0.123   4.394   9.164  0.0589 -0.1704 -0.0261
  119OSM   H15F12618   0.224   4.385   9.118  1.1485 -1.3373  2.4955
  119OSM   H15G12619   0.092   4.500   9.176  1.8164  0.1976  1.5845
  119OSM   C16F12620   0.022   4.307   9.092  0.3615 -0.3809  0.0780
  119OSM   H16F12621  -0.074   4.313   9.147 -0.0565 -1.7198 -0.5154
  119OSM   H16G12622   0.061   4.203   9.087 -0.4976 -0.6214 -2.0333
  119OSM   C17F12623  -0.003   4.366   8.953 -0.1505  0.1787  0.2567
  119OSM   H17F12624  -0.057   4.464   8.947 -0.6325 -0.1580 -1.0908
  119OSM   H17G12625  -0.069   4.291   8.904  1.3591 -1.3961  0.5874
  119OSM   C18F12626   0.130   4.395   8.870 -0.4585  0.7714 -0.5076
  119OSM   H18F12627   0.198   4.308   8.871  2.2261  2.7854  0.6050
  119OSM   H18G12628   0.184   4.483   8.912 -0.3301  0.3477  0.2371
  119OSM   H18H12629   0.109   4.413   8.763 -3.0324 -1.5642 -0.4470
  120OSM      N12630   6.428   1.708  11.034 -0.4640  0.5374  0.4590
  120OSM    C1512631   6.514   1.770  11.147 -0.4420  0.0809  0.6649
  120OSM   H15A12632   6.540   1.872  11.122 -0.4485  0.2216  1.2277
  120OSM   H15B12633   6.610   1.721  11.150  0.2509  1.1164 -2.2971
  120OSM   H15C12634   6.464   1.769  11.242 -0.1190  1.0549  0.8562
  120OSM    C1412635   6.408   1.568  11.084  0.0294 -0.1709  0.1834
  120OSM   H14A12636   6.377   1.576  11.187  1.5173  0.8602  0.5607
  120OSM   H14B12637   6.500   1.511  11.091  1.2969  1.7653 -0.4382
  120OSM   H14C12638   6.330   1.518  11.028 -2.5799  1.0827  2.6319
  120OSM    C1312639   6.294   1.781  11.031  0.1070  0.4411  0.6459
  120OSM   H13A12640   6.240   1.779  11.125  0.1243 -1.1596  0.6281
  120OSM   H13B12641   6.232   1.735  10.956 -0.2963  1.2375  0.4790
  120OSM   H13C12642   6.320   1.884  11.011  0.9672  0.2820  0.9160
  120OSM    C1212643   6.489   1.716  10.895  1.0908  1.3713 -0.0856
  120OSM   H12A12644   6.584   1.666  10.893  0.4777  0.2450 -2.1918
  120OSM   H12B12645   6.500   1.822  10.874  0.5206  1.0517 -2.0571
  120OSM    C1112646   6.412   1.652  10.769 -0.2489  0.1793  0.3090
  120OSM   H11A12647   6.402   1.545  10.796  0.6517  0.1701  0.6138
  120OSM   H11B12648   6.486   1.656  10.687  0.9895 -0.9634  1.3464
  120OSM      P12649   6.195   1.664  10.631  0.1625  0.1693  0.0799
  120OSM    O1312650   6.169   1.520  10.663 -0.4158 -0.1616 -0.6707
  120OSM    O1412651   6.070   1.741  10.625  0.5188 -0.2865  0.2360
  120OSM    O1112652   6.277   1.678  10.493  0.1615 -0.6529 -0.5791
  120OSM    O1212653   6.290   1.723  10.739  0.0919  0.2193 -0.4482
  120OSM    C1S12654   6.356   1.789  10.459  0.4433 -0.3447 -0.2282
  120OSM    H1S12655   6.438   1.793  10.535 -0.4007 -2.1668  0.8129
  120OSM    H1T12656   6.301   1.886  10.459  0.5009 -0.2805  2.1457
  120OSM     NF12657   6.485   1.906  10.290 -0.0609  0.1047 -0.0033
  120OSM    HNF12658   6.428   1.960  10.228  1.5428  2.3685  0.4214
  120OSM    C2S12659   6.426   1.778  10.325  0.0426 -0.6133 -0.3713
  120OSM    H2S12660   6.510   1.707  10.347 -1.3635 -1.4798  2.4033
  120OSM    C3S12661   6.330   1.724  10.212 -0.1578 -0.2420 -0.4956
  120OSM    H3S12662   6.265   1.808  10.177  1.4402  1.1458 -0.1822
  120OSM     O312663   6.260   1.609  10.246 -0.1278 -0.4075  0.0690
  120OSM    HO312664   6.268   1.608  10.342  0.2755  0.1492  0.0447
  120OSM    C4S12665   6.416   1.696  10.085  0.0267  0.2176 -0.5300
  120OSM    H4S12666   6.494   1.619  10.092  0.5453  0.5842 -2.0439
  120OSM    C5S12667   6.388   1.747   9.963 -0.4519  0.4628  0.1545
  120OSM    H5S12668   6.301   1.813   9.950 -0.6667  0.3866  1.1715
  120OSM    C6S12669   6.467   1.704   9.843 -0.1673 -0.0894  0.6104
  120OSM    H6S12670   6.543   1.625   9.863 -0.0756  0.1911  1.3640
  120OSM    H6T12671   6.531   1.782   9.796 -1.3817 -0.1971 -1.2626
  120OSM    C7S12672   6.382   1.643   9.730  0.0644 -0.6188 -0.4486
  120OSM    H7S12673   6.340   1.737   9.688  0.1002 -0.8698 -1.0496
  120OSM    H7T12674   6.310   1.568   9.768  0.1725 -0.3278  0.3453
  120OSM    C8S12675   6.463   1.590   9.617 -0.4429 -1.0300  0.1900
  120OSM    H8S12676   6.510   1.493   9.643 -0.4371 -0.7152  1.3987
  120OSM    H8T12677   6.540   1.664   9.587  3.5704 -4.5533  1.3301
  120OSM    C9S12678   6.371   1.570   9.492  0.3321  0.2816 -0.6074
  120OSM    H9S12679   6.329   1.667   9.456  0.9889 -0.8520 -4.6696
  120OSM    H9T12680   6.283   1.507   9.518 -0.5016  0.9262 -1.7893
  120OSM   C10S12681   6.447   1.514   9.376  0.1071  0.7453 -0.2857
  120OSM   H10S12682   6.470   1.407   9.399  0.2643  0.9039  0.2969
  120OSM   H10T12683   6.546   1.564   9.373 -0.7861  2.5003 -1.1914
  120OSM   C11S12684   6.373   1.543   9.242  0.6193 -0.2962 -0.0518
  120OSM   H11S12685   6.391   1.651   9.221 -0.1955 -0.1550 -0.0603
  120OSM   H11T12686   6.264   1.521   9.245  0.6067 -0.2050  0.1571
  120OSM   C12S12687   6.436   1.457   9.136  0.1165 -0.0067 -0.0266
  120OSM   H12S12688   6.410   1.349   9.142  0.1948 -0.2069 -2.6725
  120OSM   H12T12689   6.547   1.458   9.134  0.1513 -0.1707  1.2757
  120OSM   C13S12690   6.378   1.506   9.002 -0.7691 -0.4285 -0.1240
  120OSM   H13S12691   6.432   1.602   8.988 -1.0415 -0.2442  0.0713
  120OSM   H13T12692   6.268   1.522   9.006 -0.5565  0.7557  1.5735
  120OSM   C14S12693   6.400   1.417   8.880 -0.0889  0.0401  0.6769
  120OSM   H14S12694   6.363   1.315   8.900  0.8848 -0.2224  1.1709
  120OSM   H14T12695   6.509   1.425   8.862 -0.1542 -0.8159 -0.0865
  120OSM   C15S12696   6.340   1.470   8.749  0.7366  0.7075  0.6507
  120OSM   H15S12697   6.232   1.445   8.747  1.2513 -1.7086  1.0734
  120OSM   H15T12698   6.382   1.414   8.663  1.0703  0.6607  0.8404
  120OSM   C16S12699   6.362   1.621   8.722  0.4325  0.3900  0.0845
  120OSM   H16S12700   6.464   1.655   8.748  0.1031  2.2826 -1.0123
  120OSM   H16T12701   6.279   1.669   8.778  1.7611  2.2228  0.5107
  120OSM   C17S12702   6.334   1.664   8.578 -0.3529 -0.6345 -0.4420
  120OSM   H17S12703   6.426   1.642   8.520 -0.2652 -1.3187 -0.0389
  120OSM   H17T12704   6.339   1.775   8.567 -1.9729 -0.4277  0.6992
  120OSM   C18S12705   6.204   1.613   8.520 -0.3244  0.6283 -0.3686
  120OSM   H18S12706   6.219   1.504   8.506  0.6904  0.8601 -1.0913
  120OSM   H18T12707   6.166   1.671   8.434 -1.3256  2.2215  1.1180
  120OSM   H18U12708   6.126   1.608   8.599  0.3008  0.1345  0.2365
  120OSM    C1F12709   6.587   1.960  10.357 -0.1482 -0.1083  0.3689
  120OSM     OF12710   6.645   1.907  10.446  0.5830  0.1394  0.0327
  120OSM    C2F12711   6.633   2.093  10.299 -0.1848  0.5246  0.4978
  120OSM    H2F12712   6.555   2.171  10.316 -0.4227  0.2705  0.5745
  120OSM    H2G12713   6.650   2.088  10.189 -0.7308 -1.7786  0.4922
  120OSM    C3F12714   6.760   2.132  10.378  0.0480 -0.6166  0.6252
  120OSM    H3F12715   6.834   2.051  10.362 -0.2641 -0.8453  0.3505
  120OSM    H3G12716   6.731   2.142  10.485  1.6295 -0.7918  1.0851
  120OSM    C4F12717   6.816   2.271  10.345  0.4996  0.0957 -0.5276
  120OSM    H4F12718   6.882   2.319  10.420  2.7972 -0.9500 -1.8481
  120OSM    H4G12719   6.729   2.339  10.328 -0.0174  0.1464  2.0661
  120OSM    C5F12720   6.885   2.269  10.205 -0.1421 -0.6096 -0.6132
  120OSM    H5F12721   6.814   2.229  10.130 -1.6374  0.6659  0.0757
  120OSM    H5G12722   6.976   2.206  10.202  0.3657  0.0553  0.5239
  120OSM    C6F12723   6.932   2.412  10.166 -0.1726  0.3174 -0.3310
  120OSM    H6F12724   6.989   2.443  10.256 -0.1073 -2.6820  0.7365
  120OSM    H6G12725   6.850   2.482  10.140  0.2491  0.8759 -0.1653
  120OSM    C7F12726   7.032   2.416  10.048 -0.0226 -0.4640 -0.8195
  120OSM    H7F12727   7.120   2.357  10.080 -0.4567 -0.2835  0.7685
  120OSM    H7G12728   7.064   2.521  10.038  0.1382  0.0945  4.3815
  120OSM    C8F12729   6.975   2.349   9.926 -0.0212 -0.1759 -0.1665
  120OSM    H8F12730   7.002   2.242   9.938  0.2985 -0.0004  0.7156
  120OSM    H8G12731   7.042   2.375   9.841  2.3836  1.0523  2.0270
  120OSM    C9F12732   6.830   2.376   9.898  0.1564 -0.0566 -0.4805
  120OSM    H9F12733   6.760   2.325   9.966  0.6462  1.6264  1.3514
  120OSM   C10F12734   6.786   2.445   9.793 -0.1050 -0.0124 -0.1787
  120OSM   H10F12735   6.679   2.467   9.793  0.1566  1.3908 -1.3925
  120OSM   C11F12736   6.867   2.514   9.682 -0.1234  0.2944  0.4164
  120OSM   H11F12737   6.974   2.498   9.704 -0.0326  0.9690  0.4603
  120OSM   H11G12738   6.852   2.624   9.687 -0.5976  0.4190 -2.5491
  120OSM   C12F12739   6.840   2.465   9.533 -0.2786 -0.1870 -0.8637
  120OSM   H12F12740   6.869   2.358   9.527 -0.7939 -0.3928  0.1162
  120OSM   H12G12741   6.924   2.511   9.478 -1.1713  1.3528 -0.9663
  120OSM   C13F12742   6.699   2.502   9.473 -0.3239 -0.2769 -0.0523
  120OSM   H13F12743   6.675   2.611   9.479 -0.9674 -0.4302  0.1848
  120OSM   H13G12744   6.621   2.437   9.518  0.2220 -0.8526  0.0685
  120OSM   C14F12745   6.699   2.482   9.319 -0.9512 -0.4115 -0.1286
  120OSM   H14F12746   6.724   2.378   9.290 -0.1621 -0.1720 -0.3104
  120OSM   H14G12747   6.783   2.539   9.275 -0.3701 -1.0664  0.1201
  120OSM   C15F12748   6.563   2.515   9.252  0.4731  0.3674  0.8089
  120OSM   H15F12749   6.565   2.548   9.146  0.0343 -0.2828  0.5903
  120OSM   H15G12750   6.519   2.601   9.306  0.0072 -0.5882  1.9847
  120OSM   C16F12751   6.469   2.389   9.259  0.3104 -0.1873  0.5509
  120OSM   H16F12752   6.452   2.381   9.368  0.6939 -1.0839  0.5450
  120OSM   H16G12753   6.519   2.297   9.225 -1.8877 -1.5852  0.9824
  120OSM   C17F12754   6.330   2.404   9.193 -0.0233  0.9337 -0.1481
  120OSM   H17F12755   6.267   2.479   9.247 -1.8961  0.2689 -1.3520
  120OSM   H17G12756   6.264   2.317   9.214  0.7087  0.6079  0.8351
  120OSM   C18F12757   6.343   2.440   9.038  0.4565 -0.3191  0.0002
  120OSM   H18F12758   6.386   2.542   9.041 -2.6719  1.0921 -1.1357
  120OSM   H18G12759   6.247   2.436   8.982 -0.0144  1.2048  0.6685
  120OSM   H18H12760   6.412   2.366   8.992  0.6110  0.5816 -1.2493
  121OSM      N12761   5.166   4.921  10.777 -0.5528 -0.5212  0.6571
  121OSM    C1512762   5.050   4.960  10.868 -0.1310 -0.5987 -0.1902
  121OSM   H15A12763   5.042   4.887  10.947  0.3804 -1.8530 -1.2704
  121OSM   H15B12764   4.954   4.962  10.818  0.2812  1.9224 -0.9253
  121OSM   H15C12765   5.053   5.065  10.893 -1.6469 -0.3292 -1.0725
  121OSM    C1412766   5.135   4.786  10.722 -0.3030  0.1150 -0.1003
  121OSM   H14A12767   5.230   4.765  10.675 -0.2347  1.4258 -0.5875
  121OSM   H14B12768   5.050   4.800  10.657  0.5472  1.0457 -1.0375
  121OSM   H14C12769   5.131   4.701  10.788 -0.5983 -0.4295 -0.8221
  121OSM    C1312770   5.179   5.027  10.667  0.1260 -0.3951  0.3879
  121OSM   H13A12771   5.110   5.007  10.587  0.6912 -1.7335  0.2195
  121OSM   H13B12772   5.276   5.017  10.620 -0.1823  1.1611 -0.6013
  121OSM   H13C12773   5.147   5.123  10.705  3.1195 -0.1473  2.4925
  121OSM    C1212774   5.289   4.925  10.867  0.3407  0.4711  0.0532
  121OSM   H12A12775   5.274   4.860  10.952 -0.2909  0.6111  0.0496
  121OSM   H12B12776   5.291   5.022  10.914  0.1577 -0.4809  2.0778
  121OSM    C1112777   5.425   4.872  10.803  0.4108 -0.6796  0.2014
  121OSM   H11A12778   5.508   4.905  10.869 -0.9875  1.4224  0.9669
  121OSM   H11B12779   5.436   4.911  10.699  0.0889  0.6914  0.6829
  121OSM      P12780   5.452   4.630  10.900  0.1461  0.0870 -0.2138
  121OSM    O1312781   5.391   4.672  11.027  0.1181  0.6438  0.2078
  121OSM    O1412782   5.424   4.494  10.847  0.0754  0.0983  0.1498
  121OSM    O1112783   5.612   4.658  10.916  0.1296  0.5411  0.4714
  121OSM    O1212784   5.416   4.725  10.788 -0.5185 -0.1418  0.2555
  121OSM    C1S12785   5.697   4.594  10.819  0.3303  0.2150  0.4174
  121OSM    H1S12786   5.657   4.498  10.778  0.9257  0.2056 -0.1454
  121OSM    H1T12787   5.787   4.551  10.867 -1.4472 -0.8545  2.8678
  121OSM     NF12788   5.804   4.606  10.590  0.1769 -0.3613  0.1973
  121OSM    HNF12789   5.904   4.614  10.593  0.1652  0.1818 -0.7664
  121OSM    C2S12790   5.744   4.686  10.705 -0.1612  0.6101  0.0751
  121OSM    H2S12791   5.658   4.745  10.665 -0.4760 -0.0646 -0.2518
  121OSM    C3S12792   5.843   4.794  10.762 -0.3202 -0.7140 -0.5176
  121OSM    H3S12793   5.930   4.739  10.803 -0.9315 -0.5535  1.0570
  121OSM     O312794   5.779   4.854  10.878 -0.1429 -0.9118  0.2173
  121OSM    HO312795   5.699   4.801  10.881  1.7533 -3.9912 -0.6866
  121OSM    C4S12796   5.877   4.898  10.657 -0.2654  0.2579  0.8508
  121OSM    H4S12797   5.806   4.982  10.660 -0.4896  0.0328  1.8458
  121OSM    C5S12798   5.987   4.898  10.583  0.5491 -1.1279 -0.4703
  121OSM    H5S12799   6.065   4.822  10.601  3.1147  1.5308  0.0648
  121OSM    C6S12800   6.006   4.994  10.466  0.7315  0.2574  0.5348
  121OSM    H6S12801   6.115   5.017  10.465  0.4457  1.7242  1.5304
  121OSM    H6T12802   5.965   5.097  10.475  3.5936  1.3501  1.8179
  121OSM    C7S12803   5.955   4.926  10.338 -0.0338 -0.8370 -0.4563
  121OSM    H7S12804   5.950   5.007  10.261 -0.9519  0.4962  0.9708
  121OSM    H7T12805   5.859   4.871  10.348 -0.9507  1.0689  1.9075
  121OSM    C8S12806   6.058   4.814  10.287 -0.0720 -0.1590 -0.7018
  121OSM    H8S12807   6.047   4.716  10.338 -2.4491  0.5836  0.2788
  121OSM    H8T12808   6.165   4.844  10.299  0.0145 -1.4720  2.3288
  121OSM    C9S12809   6.028   4.772  10.139 -0.0474 -0.4898 -0.0946
  121OSM    H9S12810   5.918   4.754  10.145  0.0534 -1.6858 -1.5512
  121OSM    H9T12811   6.065   4.669  10.119 -1.4234 -1.2193  1.0190
  121OSM   C10S12812   6.082   4.867  10.030 -0.2123 -1.0065  0.3359
  121OSM   H10S12813   6.193   4.877  10.036 -0.0569 -0.6777 -2.6172
  121OSM   H10T12814   6.033   4.965  10.048 -2.0382 -1.3311 -2.6763
  121OSM   C11S12815   6.043   4.814   9.885  0.4743  0.0692 -1.0580
  121OSM   H11S12816   5.933   4.827   9.878  0.4012 -0.8769 -1.9727
  121OSM   H11T12817   6.070   4.707   9.870  0.9835 -0.0888  0.9365
  121OSM   C12S12818   6.108   4.896   9.774 -0.0727  0.6097  0.0598
  121OSM   H12S12819   6.214   4.880   9.802 -0.5714  0.2221  1.7839
  121OSM   H12T12820   6.076   5.001   9.789 -1.7681  0.0060  0.8288
  121OSM   C13S12821   6.068   4.846   9.632  0.3129  0.3341  0.0937
  121OSM   H13S12822   5.966   4.803   9.637 -0.8540  2.9684 -0.4038
  121OSM   H13T12823   6.137   4.763   9.603 -1.2654 -0.4779 -1.3995
  121OSM   C14S12824   6.079   4.959   9.527 -0.3343 -0.4100 -0.3745
  121OSM   H14S12825   6.156   5.025   9.573 -3.2595  1.9016  1.4488
  121OSM   H14T12826   5.988   5.021   9.520  0.3678  0.9546  1.8541
  121OSM   C15S12827   6.116   4.908   9.392  0.6537  0.0581 -0.3722
  121OSM   H15S12828   6.200   4.837   9.410 -0.3999 -1.4426 -1.2686
  121OSM   H15T12829   6.148   4.995   9.331  0.9162  0.9826  1.0687
  121OSM   C16S12830   6.006   4.834   9.319 -0.5590  0.0962  0.0121
  121OSM   H16S12831   5.918   4.902   9.318 -2.5457 -2.2477  3.1351
  121OSM   H16T12832   5.964   4.749   9.378 -0.9560  1.9785  2.5251
  121OSM   C17S12833   6.047   4.795   9.177  0.2002 -0.6017 -0.4440
  121OSM   H17S12834   5.960   4.740   9.134  0.7096  0.1614 -2.5350
  121OSM   H17T12835   6.125   4.717   9.172  0.1855 -0.6085 -0.5546
  121OSM   C18S12836   6.067   4.903   9.076  0.8152  0.0930  0.8025
  121OSM   H18S12837   5.990   4.982   9.086  0.4355  0.0540 -1.5119
  121OSM   H18T12838   6.053   4.852   8.978 -2.3950  3.1084 -0.4280
  121OSM   H18U12839   6.161   4.961   9.075  0.9776 -0.0287 -3.9966
  121OSM    C1F12840   5.738   4.525  10.509 -0.0249 -1.0734  0.0290
  121OSM     OF12841   5.622   4.501  10.529 -0.2656 -0.4303 -0.7248
  121OSM    C2F12842   5.803   4.458  10.392  0.5063  0.1145 -0.0123
  121OSM    H2F12843   5.771   4.352  10.406  1.0423 -0.1560 -0.7913
  121OSM    H2G12844   5.914   4.460  10.400  0.4871  1.8916 -0.1169
  121OSM    C3F12845   5.746   4.515  10.261 -0.1310  0.4986  0.4491
  121OSM    H3F12846   5.764   4.624  10.270 -2.1546  0.7512  1.7870
  121OSM    H3G12847   5.636   4.502  10.250  0.1824 -1.3054 -0.8203
  121OSM    C4F12848   5.809   4.460  10.134  0.0359 -0.7316 -0.1272
  121OSM    H4F12849   5.814   4.350  10.140 -0.2669 -0.6736  1.2277
  121OSM    H4G12850   5.916   4.492  10.130 -0.0689 -0.4670 -0.9698
  121OSM    C5F12851   5.754   4.513  10.003  0.1110  0.1420 -0.2523
  121OSM    H5F12852   5.782   4.620   9.993 -2.9237  1.5148  4.3614
  121OSM    H5G12853   5.643   4.513   9.994 -0.0021 -0.6875  1.0507
  121OSM    C6F12854   5.798   4.436   9.878 -0.0875  0.1392  0.6020
  121OSM    H6F12855   5.748   4.339   9.895 -1.1651  0.3483 -1.2036
  121OSM    H6G12856   5.909   4.429   9.877 -0.1255 -0.5836  1.8587
  121OSM    C7F12857   5.757   4.496   9.739  0.2944  0.2230 -0.2037
  121OSM    H7F12858   5.806   4.596   9.730  1.0216 -0.1312 -0.2221
  121OSM    H7G12859   5.648   4.515   9.740  0.1343 -0.6549 -0.7937
  121OSM    C8F12860   5.794   4.412   9.612 -0.0116  0.4784  0.3063
  121OSM    H8F12861   5.723   4.327   9.606  3.0254 -2.1298  0.4812
  121OSM    H8G12862   5.899   4.379   9.620 -0.2316  0.0708  1.5941
  121OSM    C9F12863   5.792   4.497   9.489 -0.0547 -0.6170 -0.8476
  121OSM    H9F12864   5.846   4.593   9.489  1.0522 -1.2276 -1.8185
  121OSM   C10F12865   5.716   4.477   9.380 -0.4482 -0.1581  0.3660
  121OSM   H10F12866   5.721   4.551   9.299 -0.7264 -1.0185 -0.4481
  121OSM   C11F12867   5.626   4.358   9.368 -0.0897  0.1059  0.3778
  121OSM   H11F12868   5.543   4.350   9.442 -0.5650  2.4461  0.1356
  121OSM   H11G12869   5.700   4.276   9.379  0.1427  0.1661 -0.6895
  121OSM   C12F12870   5.564   4.359   9.233  0.3983  0.2271 -0.0713
  121OSM   H12F12871   5.506   4.450   9.205  2.5879  1.3150 -1.2446
  121OSM   H12G12872   5.494   4.277   9.208  2.5489 -1.1394 -1.8028
  121OSM   C13F12873   5.665   4.340   9.119  0.1980  0.1776  0.2374
  121OSM   H13F12874   5.716   4.247   9.153  0.6298  1.4823  3.2830
  121OSM   H13G12875   5.745   4.417   9.123 -0.6106  0.9937  0.7799
  121OSM   C14F12876   5.619   4.312   8.971  0.3634  0.3366  0.2704
  121OSM   H14F12877   5.568   4.406   8.939 -1.2239 -0.1360  1.3514
  121OSM   H14G12878   5.531   4.245   8.971 -0.3444  1.1102 -3.9769
  121OSM   C15F12879   5.731   4.265   8.870  0.1726 -0.0320 -0.3863
  121OSM   H15F12880   5.683   4.278   8.771  1.1788 -1.2293 -1.0418
  121OSM   H15G12881   5.763   4.161   8.893 -1.5572 -0.4583  0.2088
  121OSM   C16F12882   5.858   4.344   8.866  0.3739  0.2868  0.5155
  121OSM   H16F12883   5.921   4.337   8.957  2.1330  0.1980 -0.6898
  121OSM   H16G12884   5.828   4.450   8.856  0.8552  0.3042 -0.8210
  121OSM   C17F12885   5.956   4.314   8.745  0.1577  0.2672 -0.0557
  121OSM   H17F12886   5.893   4.298   8.655  0.7534  0.3507 -0.4897
  121OSM   H17G12887   6.005   4.216   8.766 -1.1947 -0.8650 -2.0814
  121OSM   C18F12888   6.064   4.424   8.720 -1.4388  1.1475  0.5489
  121OSM   H18F12889   6.021   4.527   8.722 -1.9169  0.9513  0.3250
  121OSM   H18G12890   6.096   4.401   8.617  0.7433 -1.8605  1.8298
  121OSM   H18H12891   6.160   4.423   8.776 -2.0976 -1.5607  1.6752
  122OSM      N12892   6.502   2.437  10.725  0.1549 -0.2642 -0.0284
  122OSM    C1512893   6.569   2.560  10.770  0.5456  0.3472 -0.3848
  122OSM   H15A12894   6.579   2.631  10.689 -1.3167  1.4402  0.2961
  122OSM   H15B12895   6.666   2.545  10.814  0.9649 -0.4328 -1.5550
  122OSM   H15C12896   6.514   2.604  10.851  1.0934  0.1275  0.1068
  122OSM    C1412897   6.585   2.390  10.615  0.7918 -0.5774  0.2329
  122OSM   H14A12898   6.688   2.383  10.645  1.0327  0.9668 -0.2184
  122OSM   H14B12899   6.572   2.448  10.525 -1.9547  0.0752  1.0063
  122OSM   H14C12900   6.556   2.289  10.590  0.4437 -0.3319 -0.3540
  122OSM    C1312901   6.508   2.341  10.839 -0.2111  0.4206  0.7081
  122OSM   H13A12902   6.474   2.380  10.934 -0.2803 -0.0631  0.8801
  122OSM   H13B12903   6.610   2.313  10.859  0.2800  1.5856 -0.1169
  122OSM   H13C12904   6.454   2.249  10.820  0.5537 -0.0188  0.6636
  122OSM    C1212905   6.353   2.455  10.690 -0.3084  0.2092 -0.0560
  122OSM   H12A12906   6.305   2.367  10.651 -1.8692  1.4535 -1.0269
  122OSM   H12B12907   6.341   2.524  10.608  1.5628  1.8964  1.0334
  122OSM    C1112908   6.259   2.511  10.798  0.2406 -0.1541  0.3871
  122OSM   H11A12909   6.273   2.448  10.888 -0.5508 -0.2232  0.4665
  122OSM   H11B12910   6.156   2.505  10.757  1.0253 -0.2686 -1.6315
  122OSM      P12911   6.263   2.771  10.743 -0.1235 -0.0718 -0.4380
  122OSM    O1312912   6.123   2.813  10.771  0.6143  0.1800  0.1578
  122OSM    O1412913   6.370   2.869  10.763  0.0611 -0.8101 -0.2340
  122OSM    O1112914   6.269   2.725  10.590 -0.8059 -0.4155 -0.0246
  122OSM    O1212915   6.291   2.644  10.833 -0.0410  0.3416  0.2311
  122OSM    C1S12916   6.388   2.746  10.509 -0.9495 -0.4575  0.3154
  122OSM    H1S12917   6.466   2.676  10.544  0.3864  0.6540 -0.3598
  122OSM    H1T12918   6.430   2.849  10.502 -1.7118 -0.2146 -0.9141
  122OSM     NF12919   6.489   2.738  10.280  0.5921  0.3515  0.0315
  122OSM    HNF12920   6.492   2.820  10.224 -0.6695 -0.2750 -0.9828
  122OSM    C2S12921   6.368   2.713  10.359 -0.1008 -0.1555  0.9292
  122OSM    H2S12922   6.349   2.605  10.345 -0.0930  0.1346 -1.6297
  122OSM    C3S12923   6.239   2.796  10.317 -0.0652 -0.0527 -0.5483
  122OSM    H3S12924   6.239   2.896  10.367 -0.4874  0.0683 -0.7899
  122OSM     O312925   6.116   2.726  10.357 -0.1640  0.1478  0.2475
  122OSM    HO312926   6.144   2.657  10.417 -0.6525  1.2354  1.7479
  122OSM    C4S12927   6.236   2.799  10.166 -0.2340 -0.3440 -0.3708
  122OSM    H4S12928   6.211   2.703  10.117 -0.6574  1.3478 -3.5722
  122OSM    C5S12929   6.265   2.902  10.089 -0.1950 -0.5655 -0.3848
  122OSM    H5S12930   6.299   3.000  10.126  0.7360 -0.9709 -0.1609
  122OSM    C6S12931   6.261   2.894   9.942 -0.3001 -0.7904  0.5736
  122OSM    H6S12932   6.342   2.962   9.906 -1.4208  1.2792  1.8650
  122OSM    H6T12933   6.175   2.948   9.898 -0.3670  0.7246  2.5212
  122OSM    C7S12934   6.270   2.765   9.861 -0.2795 -0.1756  0.3880
  122OSM    H7S12935   6.197   2.687   9.891 -1.7011  0.6344 -0.8609
  122OSM    H7T12936   6.372   2.721   9.868  0.1859  0.8947  0.4283
  122OSM    C8S12937   6.247   2.803   9.713  1.0913  0.1232 -0.1620
  122OSM    H8S12938   6.314   2.885   9.677  1.8988  0.0673  1.1770
  122OSM    H8T12939   6.144   2.837   9.690  0.6342 -2.9240 -2.9936
  122OSM    C9S12940   6.280   2.681   9.619 -0.4296 -0.1168  0.5475
  122OSM    H9S12941   6.218   2.594   9.649  0.7464 -1.2061 -0.1401
  122OSM    H9T12942   6.381   2.649   9.653  0.1251  0.0292 -0.9095
  122OSM   C10S12943   6.280   2.709   9.471 -0.2762 -0.4711  0.0796
  122OSM   H10S12944   6.174   2.738   9.458 -0.4031 -0.8317  0.2818
  122OSM   H10T12945   6.305   2.617   9.414 -2.1777 -1.4643  0.8134
  122OSM   C11S12946   6.369   2.823   9.425  0.5414 -0.2839  0.4791
  122OSM   H11S12947   6.477   2.798   9.435  0.6260  0.2647  0.9709
  122OSM   H11T12948   6.353   2.920   9.475  0.7011 -0.2827  0.5309
  122OSM   C12S12949   6.344   2.850   9.276  0.3192  0.8432  0.0618
  122OSM   H12S12950   6.350   2.754   9.220  0.2278  1.8922 -1.7879
  122OSM   H12T12951   6.422   2.921   9.243  2.5515 -0.9982  1.2322
  122OSM   C13S12952   6.204   2.904   9.246 -0.4608 -0.0252  0.0126
  122OSM   H13S12953   6.207   3.015   9.247 -1.1491 -0.0164  1.1641
  122OSM   H13T12954   6.132   2.875   9.325 -1.6664  0.3558 -0.9176
  122OSM   C14S12955   6.133   2.867   9.110 -0.9385  0.1413 -0.4456
  122OSM   H14S12956   6.026   2.895   9.105 -0.4074  2.1854 -0.9974
  122OSM   H14T12957   6.128   2.756   9.106  0.7066 -0.0098  1.2384
  122OSM   C15S12958   6.204   2.916   8.980  0.5635  0.1670 -0.4332
  122OSM   H15S12959   6.309   2.884   8.966  0.4382 -0.9224  0.9142
  122OSM   H15T12960   6.211   3.025   8.999 -1.1558  0.9759 -4.1040
  122OSM   C16S12961   6.132   2.885   8.854  0.1444 -0.3067 -0.9688
  122OSM   H16S12962   6.026   2.917   8.862  0.9914  3.0022 -2.4074
  122OSM   H16T12963   6.127   2.774   8.840  0.4255 -0.4940  0.3680
  122OSM   C17S12964   6.189   2.952   8.727 -0.0351  0.7293 -0.3772
  122OSM   H17S12965   6.132   2.897   8.649  0.8538  0.2891 -0.7318
  122OSM   H17T12966   6.298   2.931   8.728  0.0983  1.4164  0.9910
  122OSM   C18S12967   6.171   3.104   8.712 -0.0014 -0.6433 -0.2856
  122OSM   H18S12968   6.187   3.169   8.801 -1.5498  2.4558 -2.1631
  122OSM   H18T12969   6.077   3.140   8.663  1.4558  3.3624 -0.3026
  122OSM   H18U12970   6.253   3.141   8.647 -0.8673  1.1912 -0.3865
  122OSM    C1F12971   6.599   2.667  10.305 -0.0952  0.4130 -0.1576
  122OSM     OF12972   6.597   2.553  10.352 -0.2521  0.0739 -0.0370
  122OSM    C2F12973   6.730   2.735  10.271  0.7960  0.3142 -0.9471
  122OSM    H2F12974   6.814   2.664  10.285  0.0256 -0.3769  0.2681
  122OSM    H2G12975   6.743   2.822  10.339  0.1619 -0.2965 -0.0438
  122OSM    C3F12976   6.738   2.797  10.134  0.2276  0.0280 -0.0294
  122OSM    H3F12977   6.672   2.886  10.134  1.5253  1.0467  2.3075
  122OSM    H3G12978   6.682   2.741  10.057 -1.8169  3.2096 -0.9409
  122OSM    C4F12979   6.879   2.829  10.086  0.3112 -0.0925  0.2528
  122OSM    H4F12980   6.938   2.735  10.090 -0.1132 -0.4926 -2.1962
  122OSM    H4G12981   6.921   2.902  10.159  1.3208 -3.2252  2.9350
  122OSM    C5F12982   6.885   2.883   9.944 -0.1343  0.1966 -0.3308
  122OSM    H5F12983   6.843   2.986   9.943  1.3793  0.8430 -2.4862
  122OSM    H5G12984   6.835   2.809   9.879 -0.8825 -0.9967  1.5790
  122OSM    C6F12985   7.029   2.909   9.890 -0.7770  0.6770  0.7367
  122OSM    H6F12986   7.092   2.829   9.935  1.4220  1.7625 -0.3272
  122OSM    H6G12987   7.065   3.005   9.933 -0.1179  0.3371  0.9561
  122OSM    C7F12988   7.030   2.903   9.740  0.0563  0.1096  0.6860
  122OSM    H7F12989   6.964   2.983   9.701 -0.9547 -1.3291 -0.6281
  122OSM    H7G12990   6.976   2.809   9.715 -0.8107  1.0323 -0.9556
  122OSM    C8F12991   7.170   2.912   9.682 -0.4493 -0.0828 -0.0772
  122OSM    H8F12992   7.230   2.995   9.725  0.2134  0.4412 -1.9458
  122OSM    H8G12993   7.157   2.932   9.573 -1.4825  0.1764  0.0929
  122OSM    C9F12994   7.259   2.790   9.693  0.9195 -0.2203  0.5310
  122OSM    H9F12995   7.292   2.769   9.796 -0.6796 -0.5705  0.9827
  122OSM   C10F12996   7.293   2.712   9.588 -0.9649 -0.8107 -0.1594
  122OSM   H10F12997   7.365   2.629   9.596  0.4032  0.3903  0.1934
  122OSM   C11F12998   7.254   2.729   9.445  0.4876 -0.3651 -0.3701
  122OSM   H11F12999   7.270   2.834   9.412  2.0470 -1.0473 -1.8751
  122OSM   H11G13000   7.148   2.704   9.425  0.7108 -0.4195 -1.5386
  122OSM   C12F13001   7.339   2.638   9.360 -0.2513 -0.3387  1.0092
  122OSM   H12F13002   7.309   2.532   9.378  1.2785 -1.0541 -0.5532
  122OSM   H12G13003   7.444   2.657   9.389  0.5120 -1.5118 -0.9230
  122OSM   C13F13004   7.318   2.661   9.205 -0.1539  0.3983  0.0634
  122OSM   H13F13005   7.381   2.594   9.143  0.6479  1.0588  0.1646
  122OSM   H13G13006   7.358   2.763   9.184 -0.2305 -0.0586 -2.5289
  122OSM   C14F13007   7.176   2.651   9.162 -0.0300 -0.4645  0.3848
  122OSM   H14F13008   7.127   2.741   9.205 -0.1928 -0.8110  0.9288
  122OSM   H14G13009   7.134   2.560   9.209 -3.1123  0.9420  0.5235
  122OSM   C15F13010   7.139   2.658   9.013 -0.0891  0.1208  0.2359
  122OSM   H15F13011   7.195   2.585   8.949 -2.3344  0.1996 -1.9070
  122OSM   H15G13012   7.154   2.760   8.971 -3.5829  0.1723 -1.0790
  122OSM   C16F13013   6.988   2.621   8.975 -1.3740 -0.7665 -0.0529
  122OSM   H16F13014   6.927   2.700   8.928  1.3628  1.0326 -0.6976
  122OSM   H16G13015   6.948   2.591   9.074 -4.3821  1.0949 -0.6652
  122OSM   C17F13016   6.964   2.495   8.883  0.1842  1.1103  0.2484
  122OSM   H17F13017   7.028   2.411   8.918  1.1932  0.9814 -1.8137
  122OSM   H17G13018   6.996   2.534   8.784 -0.5025  0.6831 -0.1402
  122OSM   C18F13019   6.818   2.460   8.881 -0.5462 -0.4376  0.0615
  122OSM   H18F13020   6.796   2.381   8.806  0.8154  0.8983 -1.7757
  122OSM   H18G13021   6.750   2.546   8.861 -2.7215 -2.2546 -0.5673
  122OSM   H18H13022   6.776   2.406   8.969 -0.3842  1.8663  1.6053
  123OSM      N13023   3.473   0.995   5.727  0.0312  0.4636 -0.4184
  123OSM    C1513024   3.441   1.143   5.738 -0.1986  0.3280  0.9951
  123OSM   H15A13025   3.371   1.174   5.662 -0.3849  0.9342  1.4127
  123OSM   H15B13026   3.525   1.202   5.706 -1.2386 -0.0424 -2.6873
  123OSM   H15C13027   3.391   1.167   5.830 -0.6460  1.7260  0.3952
  123OSM    C1413028   3.347   0.916   5.723 -0.2096  0.4425  0.1711
  123OSM   H14A13029   3.368   0.811   5.721  0.1870  0.4911  1.4710
  123OSM   H14B13030   3.290   0.944   5.635  1.0781 -1.4737 -1.2896
  123OSM   H14C13031   3.279   0.934   5.806  0.3737  0.2594  0.6901
  123OSM    C1313032   3.531   0.973   5.592 -0.0077 -0.1154 -1.1852
  123OSM   H13A13033   3.618   1.036   5.577 -1.1166  1.5635 -0.7725
  123OSM   H13B13034   3.458   1.003   5.518  0.5590 -0.6147 -1.9531
  123OSM   H13C13035   3.571   0.874   5.580  1.5292  0.0573  1.9991
  123OSM    C1213036   3.566   0.949   5.839 -0.3141 -0.4386  0.0216
  123OSM   H12A13037   3.657   1.007   5.846 -0.2003 -0.4896 -1.0579
  123OSM   H12B13038   3.603   0.848   5.827  1.5561 -0.0612  2.2247
  123OSM    C1113039   3.512   0.954   5.986  0.2204  0.0255  0.0909
  123OSM   H11A13040   3.445   0.866   5.997  0.2098  0.0625  0.3262
  123OSM   H11B13041   3.451   1.044   6.006 -1.2845 -0.9868  0.0784
  123OSM      P13042   3.729   1.047   6.127 -0.0779 -0.3798  0.0488
  123OSM    O1313043   3.819   0.989   6.234  0.0293 -0.0966 -0.2711
  123OSM    O1413044   3.793   1.095   6.005 -0.0237  0.0834  0.3165
  123OSM    O1113045   3.646   1.170   6.194  0.1082 -0.3561  0.2536
  123OSM    O1213046   3.624   0.940   6.085  0.0695  0.5738 -0.1488
  123OSM    C1S13047   3.554   1.141   6.300  0.2857  0.2112 -0.8957
  123OSM    H1S13048   3.536   1.032   6.314  0.0531  0.4613  0.8470
  123OSM    H1T13049   3.455   1.191   6.296 -0.1676 -0.5677  0.5616
  123OSM     NF13050   3.532   1.175   6.545  0.7507  0.3340  0.1892
  123OSM    HNF13051   3.481   1.256   6.574  1.9578  2.0950 -2.4510
  123OSM    C2S13052   3.627   1.183   6.434  0.3842 -0.8563 -0.1864
  123OSM    H2S13053   3.705   1.106   6.443 -0.4406 -1.7882 -0.9014
  123OSM    C3S13054   3.680   1.329   6.427  0.0579 -0.2581 -0.0712
  123OSM    H3S13055   3.591   1.396   6.423 -0.5207 -0.9964  0.3487
  123OSM     O313056   3.763   1.360   6.313  0.1574 -0.6257  0.1856
  123OSM    HO313057   3.779   1.276   6.269  2.1297  0.5814 -1.4984
  123OSM    C4S13058   3.766   1.351   6.555  0.1381 -0.5171 -0.0271
  123OSM    H4S13059   3.709   1.367   6.648 -0.3069 -1.1213 -0.1903
  123OSM    C5S13060   3.900   1.350   6.560  0.6958  0.0360  0.5594
  123OSM    H5S13061   3.953   1.339   6.464 -0.0484  1.2589  0.0009
  123OSM    C6S13062   3.985   1.362   6.685  0.1087  0.0919 -1.1675
  123OSM    H6S13063   3.941   1.412   6.774 -1.1216 -1.1805 -1.0445
  123OSM    H6T13064   4.090   1.385   6.658  0.8336 -0.3170  1.2453
  123OSM    C7S13065   4.006   1.216   6.739  0.8074  0.3169 -0.1682
  123OSM    H7S13066   4.051   1.150   6.662 -1.0977 -1.3400  0.1081
  123OSM    H7T13067   3.908   1.174   6.769  0.3554  0.7744 -0.9850
  123OSM    C8S13068   4.095   1.214   6.862  0.7903 -0.7502  0.1079
  123OSM    H8S13069   4.057   1.271   6.949  0.0448 -0.8503 -0.1509
  123OSM    H8T13070   4.189   1.269   6.840  0.0818  1.1973  1.7063
  123OSM    C9S13071   4.137   1.071   6.896 -1.4027 -0.2316  0.3871
  123OSM    H9S13072   4.202   1.029   6.815  1.2494  3.3842  0.5129
  123OSM    H9T13073   4.042   1.015   6.886 -0.0616 -2.5138 -0.1950
  123OSM   C10S13074   4.200   1.034   7.034  0.7933 -0.2557  0.6239
  123OSM   H10S13075   4.309   1.054   7.039  1.2081 -2.0103 -0.7854
  123OSM   H10T13076   4.196   0.923   7.031 -0.9578 -0.1760 -1.5906
  123OSM   C11S13077   4.113   1.083   7.151  0.6104 -0.1456  0.7707
  123OSM   H11S13078   4.010   1.044   7.139  0.9341 -0.7587 -0.0742
  123OSM   H11T13079   4.123   1.193   7.160 -2.0167  0.0836  1.1882
  123OSM   C12S13080   4.166   1.038   7.291  0.3263  0.1160  0.3455
  123OSM   H12S13081   4.274   1.064   7.294  0.7352 -1.6413  2.0239
  123OSM   H12T13082   4.161   0.927   7.287  1.5056  0.0808 -0.2422
  123OSM   C13S13083   4.079   1.094   7.406 -0.2892  0.1963 -0.0504
  123OSM   H13S13084   3.977   1.062   7.375  0.0372 -0.4388 -0.4723
  123OSM   H13T13085   4.071   1.204   7.391 -1.3647 -0.0276 -1.2165
  123OSM   C14S13086   4.117   1.054   7.541  0.0244 -1.1460 -0.1123
  123OSM   H14S13087   4.218   1.097   7.558 -1.0449  1.5915 -0.4625
  123OSM   H14T13088   4.129   0.943   7.538 -0.2283 -1.2338  1.5571
  123OSM   C15S13089   4.027   1.105   7.648 -0.1535  0.4050  0.1877
  123OSM   H15S13090   3.929   1.053   7.651 -0.2902  0.6724  0.3288
  123OSM   H15T13091   4.005   1.213   7.631 -0.8867  0.0310 -1.3416
  123OSM   C16S13092   4.093   1.112   7.789 -0.4520 -0.7968 -0.8344
  123OSM   H16S13093   4.152   1.204   7.808 -0.0862 -1.3366  0.6536
  123OSM   H16T13094   4.158   1.022   7.800  1.0880  0.6259  2.3802
  123OSM   C17S13095   3.986   1.096   7.895 -0.0280  0.1462  0.2479
  123OSM   H17S13096   3.957   0.990   7.910  1.7342 -0.3389  0.2916
  123OSM   H17T13097   3.891   1.145   7.865  0.0468  1.3781  1.9658
  123OSM   C18S13098   4.032   1.156   8.032  0.2904 -0.7592  0.3980
  123OSM   H18S13099   4.122   1.100   8.065  0.2987 -1.5839 -1.0130
  123OSM   H18T13100   3.960   1.158   8.117  1.2821  0.1704  1.2408
  123OSM   H18U13101   4.073   1.257   8.007 -2.5636  0.4087  0.1922
  123OSM    C1F13102   3.491   1.055   6.593 -0.2067 -0.5433  0.2491
  123OSM     OF13103   3.530   0.954   6.540  0.1033  0.1847  0.3219
  123OSM    C2F13104   3.396   1.070   6.706 -0.2746 -0.0445 -0.8319
  123OSM    H2F13105   3.294   1.049   6.666 -0.7025  0.5950 -0.0803
  123OSM    H2G13106   3.398   1.175   6.743 -0.0188 -0.6049  0.7589
  123OSM    C3F13107   3.418   0.965   6.821  0.2010 -0.1758 -0.0248
  123OSM    H3F13108   3.417   0.867   6.770 -1.3068 -0.0961 -0.1764
  123OSM    H3G13109   3.328   0.959   6.885 -0.2696  1.2610 -0.5270
  123OSM    C4F13110   3.551   0.971   6.900 -1.1261 -0.4257 -0.0842
  123OSM    H4F13111   3.637   0.933   6.841 -0.2136  0.3856  0.7104
  123OSM    H4G13112   3.557   0.904   6.988  1.0418  0.3224  0.3541
  123OSM    C5F13113   3.592   1.120   6.950  0.4026  1.0258  0.1263
  123OSM    H5F13114   3.516   1.170   7.014 -0.0142  0.9452 -0.3125
  123OSM    H5G13115   3.597   1.184   6.860  0.5811  1.0221  0.1333
  123OSM    C6F13116   3.723   1.110   7.032 -0.0582  0.2220 -0.3410
  123OSM    H6F13117   3.805   1.093   6.958 -0.0388  1.0758 -0.5203
  123OSM    H6G13118   3.717   1.023   7.100 -0.4120  2.8389  3.0778
  123OSM    C7F13119   3.757   1.238   7.102  0.0170  0.4807 -0.0593
  123OSM    H7F13120   3.746   1.322   7.030 -0.4382  0.8340  0.4083
  123OSM    H7G13121   3.866   1.242   7.122  0.0677 -0.2256 -0.1898
  123OSM    C8F13122   3.687   1.255   7.239  0.4027  0.0332 -0.1066
  123OSM    H8F13123   3.702   1.158   7.291  0.4043 -1.1551 -2.2699
  123OSM    H8G13124   3.579   1.269   7.214  0.7513  2.2119 -0.4608
  123OSM    C9F13125   3.743   1.374   7.315  0.7854 -0.7565 -0.1246
  123OSM    H9F13126   3.785   1.456   7.255 -3.0485  0.8750 -0.6971
  123OSM   C10F13127   3.748   1.374   7.447  0.3446  0.8793  0.2640
  123OSM   H10F13128   3.778   1.463   7.504  1.1865  1.4952 -1.1108
  123OSM   C11F13129   3.697   1.271   7.540  0.0801  0.5338 -0.1658
  123OSM   H11F13130   3.777   1.212   7.589  1.8416  2.4748 -0.6173
  123OSM   H11G13131   3.637   1.197   7.482  1.1911  0.1831 -0.8890
  123OSM   C12F13132   3.614   1.331   7.658  0.3667 -0.1290 -0.0488
  123OSM   H12F13133   3.549   1.249   7.695  2.6309 -1.5318  0.9148
  123OSM   H12G13134   3.543   1.414   7.633 -0.0804 -0.4062  0.2822
  123OSM   C13F13135   3.702   1.371   7.778  0.0495 -0.3887  0.0093
  123OSM   H13F13136   3.767   1.455   7.744 -1.2810  1.5315  2.0984
  123OSM   H13G13137   3.770   1.288   7.806  2.6781  1.7833  0.3752
  123OSM   C14F13138   3.618   1.414   7.900  0.8301 -0.3844  0.1150
  123OSM   H14F13139   3.526   1.352   7.910  0.7541 -0.5202 -1.3450
  123OSM   H14G13140   3.584   1.516   7.874  1.1575  0.1349  1.6584
  123OSM   C15F13141   3.705   1.425   8.028 -0.0782 -0.3773 -0.6354
  123OSM   H15F13142   3.788   1.497   8.011  0.9465 -1.0583  1.3175
  123OSM   H15G13143   3.748   1.325   8.048  0.8846  0.3523  1.0728
  123OSM   C16F13144   3.620   1.459   8.153  0.0597 -0.3398 -0.0237
  123OSM   H16F13145   3.535   1.389   8.172  1.4084 -2.0353 -0.1182
  123OSM   H16G13146   3.581   1.560   8.129  0.6383 -0.5928 -2.1400
  123OSM   C17F13147   3.705   1.464   8.276  0.4037  0.0293  0.2816
  123OSM   H17F13148   3.790   1.534   8.262 -1.1384  1.5749 -1.7465
  123OSM   H17G13149   3.759   1.371   8.303  1.2286  0.6488  0.8079
  123OSM   C18F13150   3.631   1.503   8.395  0.5070 -0.7656 -0.0782
  123OSM   H18F13151   3.610   1.611   8.410 -1.7823 -1.0308 -1.1547
  123OSM   H18G13152   3.688   1.467   8.483  2.1714  2.2088  0.1265
  123OSM   H18H13153   3.536   1.447   8.407  0.4551 -0.9451 -1.2492
  124OSM      N13154   0.637   5.726   6.065 -0.3866  0.0409 -0.2049
  124OSM    C1513155   0.759   5.699   6.144 -0.5314 -0.4682  0.3882
  124OSM   H15A13156   0.798   5.599   6.133 -0.0594  0.0087 -2.8954
  124OSM   H15B13157   0.737   5.708   6.249  1.3322  2.9458  0.5651
  124OSM   H15C13158   0.836   5.774   6.133 -0.3477 -0.7560 -0.3540
  124OSM    C1413159   0.597   5.868   6.097  0.2500 -0.4688  0.4881
  124OSM   H14A13160   0.509   5.888   6.038  0.4282  1.8576  0.9618
  124OSM   H14B13161   0.676   5.937   6.071 -1.9723  2.0264  0.1294
  124OSM   H14C13162   0.562   5.890   6.197 -1.3098  0.3044 -0.2020
  124OSM    C1313163   0.666   5.743   5.918  0.1462 -0.9204 -0.1977
  124OSM   H13A13164   0.690   5.656   5.859 -0.9384  0.0265 -2.0787
  124OSM   H13B13165   0.734   5.822   5.893 -1.0421  0.2848  0.3239
  124OSM   H13C13166   0.571   5.768   5.873  1.2456  0.2373 -1.9177
  124OSM    C1213167   0.523   5.633   6.094  0.7530 -0.5315 -1.0419
  124OSM   H12A13168   0.552   5.537   6.053  2.5149 -1.4350  2.1055
  124OSM   H12B13169   0.434   5.655   6.037  0.1631 -1.2962 -0.4237
  124OSM    C1113170   0.475   5.616   6.239 -0.2265  0.8263 -0.4131
  124OSM   H11A13171   0.561   5.559   6.282  0.5095  3.5707  1.8968
  124OSM   H11B13172   0.390   5.544   6.244  1.1187 -1.0342 -2.9261
  124OSM      P13173   0.322   5.799   6.312 -0.2253 -0.1962 -0.7010
  124OSM    O1313174   0.315   5.924   6.388 -0.0990  0.0953  0.5197
  124OSM    O1413175   0.272   5.801   6.170  0.4485  0.1035  0.4863
  124OSM    O1113176   0.229   5.693   6.382 -0.0505 -0.0969  0.3677
  124OSM    O1213177   0.464   5.736   6.320 -0.2357  0.0071  0.6126
  124OSM    C1S13178   0.275   5.641   6.516  0.1933  0.2586  0.9546
  124OSM    H1S13179   0.384   5.624   6.524 -0.1213 -2.5688 -0.0598
  124OSM    H1T13180   0.216   5.549   6.536  0.9923 -0.2120  1.1517
  124OSM     NF13181   0.312   5.690   6.764  0.2259  0.5094  0.0108
  124OSM    HNF13182   0.265   5.641   6.838  0.0194  1.3549  0.4428
  124OSM    C2S13183   0.241   5.727   6.639 -0.3003 -0.2931 -0.2893
  124OSM    H2S13184   0.275   5.828   6.606 -2.4813  0.0830 -1.5073
  124OSM    C3S13185   0.083   5.737   6.659  0.7564 -0.0619 -0.5268
  124OSM    H3S13186   0.040   5.644   6.702 -1.0631  1.5426  1.2581
  124OSM     O313187   0.017   5.764   6.536  0.7243 -0.6613  0.5184
  124OSM    HO313188   0.085   5.759   6.469 -2.0384 -1.9487 -2.3090
  124OSM    C4S13189   0.053   5.836   6.767  0.1125  0.3930  0.3623
  124OSM    H4S13190   0.057   5.804   6.872  1.9294  1.1625  0.5456
  124OSM    C5S13191   0.006   5.961   6.752  0.8690 -0.0306 -0.6724
  124OSM    H5S13192  -0.019   6.002   6.653  1.7492 -0.7807 -1.2134
  124OSM    C6S13193  -0.020   6.059   6.872 -0.5649 -0.6584  0.3457
  124OSM    H6S13194   0.065   6.128   6.888 -2.4080  1.4396  1.2472
  124OSM    H6T13195  -0.052   6.016   6.970 -1.6946  3.0635  1.6836
  124OSM    C7S13196  -0.132   6.157   6.841  0.2541  0.2391  0.3375
  124OSM    H7S13197  -0.211   6.103   6.785  0.8244  0.5439 -0.7918
  124OSM    H7T13198  -0.083   6.235   6.778 -0.2852  1.2517  1.1487
  124OSM    C8S13199  -0.195   6.227   6.962  0.6125  0.2105 -0.2011
  124OSM    H8S13200  -0.116   6.295   6.999  1.7811 -1.0539 -0.3474
  124OSM    H8T13201  -0.218   6.154   7.043 -2.6018  0.0538 -1.1742
  124OSM    C9S13202  -0.325   6.307   6.927  0.1678 -0.3381 -0.4669
  124OSM    H9S13203  -0.387   6.241   6.862  1.4580 -0.5880 -1.4750
  124OSM    H9T13204  -0.305   6.401   6.872 -0.5959  0.1636  0.1187
  124OSM   C10S13205  -0.402   6.345   7.049  0.1274  0.6140 -0.2189
  124OSM   H10S13206  -0.432   6.250   7.100  0.1321 -0.4218 -2.1153
  124OSM   H10T13207  -0.488   6.405   7.011 -1.4828 -1.0409  0.6875
  124OSM   C11S13208  -0.310   6.446   7.130 -0.0749 -0.3999  1.3940
  124OSM   H11S13209  -0.296   6.532   7.061  0.3208 -1.5511  0.0068
  124OSM   H11T13210  -0.208   6.407   7.148  0.7999  1.3775  0.4350
  124OSM   C12S13211  -0.388   6.502   7.251  0.0416 -0.4404 -0.1434
  124OSM   H12S13212  -0.480   6.547   7.208 -0.6923  0.6496  2.4826
  124OSM   H12T13213  -0.341   6.585   7.309 -0.1337 -0.2381 -0.2856
  124OSM   C13S13214  -0.428   6.394   7.354  0.1569  0.1604 -0.1722
  124OSM   H13S13215  -0.334   6.353   7.397  0.4951  0.7133 -0.3835
  124OSM   H13T13216  -0.469   6.301   7.310  0.5676 -0.9598  1.7419
  124OSM   C14S13217  -0.524   6.438   7.471  0.2682 -0.4635 -0.2929
  124OSM   H14S13218  -0.620   6.457   7.419  0.4587  0.0005 -0.4797
  124OSM   H14T13219  -0.491   6.539   7.504  1.1399 -1.2442  1.2674
  124OSM   C15S13220  -0.523   6.333   7.575 -0.4689 -0.1135 -0.2893
  124OSM   H15S13221  -0.418   6.310   7.604 -0.5408 -0.1594 -0.0696
  124OSM   H15T13222  -0.567   6.240   7.533  0.6611  0.0286 -1.8582
  124OSM   C16S13223  -0.598   6.372   7.701  0.0569  0.2067 -0.2693
  124OSM   H16S13224  -0.704   6.387   7.672  0.1716  0.6760 -0.4472
  124OSM   H16T13225  -0.552   6.468   7.733 -2.3905  0.8546  1.4505
  124OSM   C17S13226  -0.587   6.264   7.815 -0.1413  0.3358  0.2863
  124OSM   H17S13227  -0.480   6.243   7.833  0.0435  1.0091  0.0069
  124OSM   H17T13228  -0.624   6.162   7.791  0.6272  0.4847 -1.6498
  124OSM   C18S13229  -0.647   6.310   7.947  0.7033  0.3637 -0.1287
  124OSM   H18S13230  -0.632   6.417   7.971  0.0054  0.6894 -1.0993
  124OSM   H18T13231  -0.604   6.248   8.029 -0.1861  0.3055  0.3105
  124OSM   H18U13232  -0.756   6.286   7.942  0.2908  1.7882  1.5529
  124OSM    C1F13233   0.439   5.718   6.791  0.4978  0.4961  0.8521
  124OSM     OF13234   0.506   5.789   6.715  0.3284  0.2044 -0.2836
  124OSM    C2F13235   0.504   5.663   6.915  0.5937 -0.2806  0.6789
  124OSM    H2F13236   0.466   5.558   6.917 -2.0251  0.5903 -1.0454
  124OSM    H2G13237   0.458   5.712   7.003  0.6983 -0.6620  0.9470
  124OSM    C3F13238   0.656   5.658   6.918 -0.7745  0.2676  0.9193
  124OSM    H3F13239   0.697   5.751   6.873 -0.8622  0.8851  2.0940
  124OSM    H3G13240   0.688   5.572   6.855 -0.2132  0.9194  0.2985
  124OSM    C4F13241   0.717   5.621   7.056  0.8134 -0.1528  0.1261
  124OSM    H4F13242   0.810   5.562   7.047 -0.8949 -2.7105 -1.6209
  124OSM    H4G13243   0.641   5.562   7.112  0.9873 -0.0608  0.4588
  124OSM    C5F13244   0.744   5.743   7.145 -0.1638  0.0946  0.4782
  124OSM    H5F13245   0.672   5.821   7.112  2.2830  2.1506 -0.1349
  124OSM    H5G13246   0.847   5.774   7.117 -0.8008 -1.2745 -3.6127
  124OSM    C6F13247   0.743   5.721   7.296  0.1221 -0.1837  0.0812
  124OSM    H6F13248   0.769   5.815   7.349  1.7695 -0.0408 -0.9440
  124OSM    H6G13249   0.817   5.641   7.317 -0.8556 -1.7696 -2.2477
  124OSM    C7F13250   0.612   5.683   7.360 -0.7281 -0.7607  0.7136
  124OSM    H7F13251   0.559   5.609   7.296 -0.0611  0.5518 -1.3938
  124OSM    H7G13252   0.546   5.772   7.375  2.5230  1.7165  0.8461
  124OSM    C8F13253   0.640   5.605   7.484 -0.8897  0.1950 -0.6135
  124OSM    H8F13254   0.713   5.528   7.451  0.1310  1.2419 -0.8557
  124OSM    H8G13255   0.557   5.535   7.506  1.4673 -2.7370 -0.7224
  124OSM    C9F13256   0.686   5.671   7.611  0.7182 -0.2863  0.4051
  124OSM    H9F13257   0.766   5.745   7.591 -0.5981  0.8357 -0.7949
  124OSM   C10F13258   0.643   5.643   7.738  0.2141 -0.2842 -0.0270
  124OSM   H10F13259   0.675   5.714   7.816 -2.3324  1.7200 -0.7432
  124OSM   C11F13260   0.541   5.541   7.780 -0.3895 -0.4134 -0.9010
  124OSM   H11F13261   0.534   5.461   7.703  0.4230 -0.2832 -1.1158
  124OSM   H11G13262   0.441   5.589   7.788 -0.3229 -0.2603 -0.9862
  124OSM   C12F13263   0.580   5.465   7.908 -0.0380 -0.4780 -0.8440
  124OSM   H12F13264   0.662   5.393   7.886  2.9410  1.6537  2.8239
  124OSM   H12G13265   0.491   5.408   7.942 -1.6914  1.7832 -1.2811
  124OSM   C13F13266   0.622   5.553   8.033 -0.0333 -0.2621  1.0338
  124OSM   H13F13267   0.704   5.624   8.010 -1.4733  0.9842 -0.3921
  124OSM   H13G13268   0.674   5.473   8.089  2.4452  0.7163  0.2081
  124OSM   C14F13269   0.504   5.626   8.100 -0.1528 -0.0507 -0.1164
  124OSM   H14F13270   0.423   5.560   8.139  1.0645 -2.0057 -0.8428
  124OSM   H14G13271   0.450   5.680   8.019 -0.0788  0.9334  0.4846
  124OSM   C15F13272   0.549   5.729   8.212  0.1030  0.4681  0.0709
  124OSM   H15F13273   0.611   5.796   8.149  0.2501  0.3462  0.0829
  124OSM   H15G13274   0.616   5.670   8.278 -0.0457  1.2661  0.9386
  124OSM   C16F13275   0.436   5.789   8.293 -0.6417 -0.3549 -0.1305
  124OSM   H16F13276   0.487   5.846   8.373  1.5151  1.0649 -2.4223
  124OSM   H16G13277   0.368   5.712   8.335 -1.2608  0.6033  0.6421
  124OSM   C17F13278   0.348   5.892   8.221  0.1336  0.4577  0.7879
  124OSM   H17F13279   0.307   5.840   8.132  1.8801 -0.4791  0.5007
  124OSM   H17G13280   0.412   5.976   8.188 -0.7302  1.0223  0.5223
  124OSM   C18F13281   0.237   5.950   8.304  0.1053 -0.0833  0.1033
  124OSM   H18F13282   0.149   5.979   8.243 -0.3068 -1.7586 -0.1283
  124OSM   H18G13283   0.264   6.036   8.369 -1.5426  1.3438 -1.0729
  124OSM   H18H13284   0.192   5.871   8.369 -0.2227  0.1919  0.2131
  125OSM      N13285   6.159   1.297   6.289 -0.4644 -0.5404 -0.1141
  125OSM    C1513286   6.154   1.200   6.176  0.0224  0.5115  0.4419
  125OSM   H15A13287   6.156   1.098   6.212 -3.4164  0.9986  2.2254
  125OSM   H15B13288   6.238   1.226   6.113 -1.7099  0.0757 -2.1309
  125OSM   H15C13289   6.064   1.215   6.118  1.6552 -0.3228 -2.4085
  125OSM    C1413290   6.149   1.437   6.238 -0.5039  0.5449  0.2488
  125OSM   H14A13291   6.073   1.445   6.162  0.3541  2.0050 -0.4841
  125OSM   H14B13292   6.242   1.459   6.187 -2.4127 -0.5570 -3.9609
  125OSM   H14C13293   6.137   1.505   6.321 -0.5248  3.3900 -2.0119
  125OSM    C1313294   6.046   1.271   6.381 -0.1701  0.1970  0.5429
  125OSM   H13A13295   5.950   1.304   6.344  0.6863  0.7305 -1.2549
  125OSM   H13B13296   6.062   1.321   6.475  0.4580 -0.1644  0.6269
  125OSM   H13C13297   6.034   1.166   6.403 -0.3712 -0.0183 -0.5972
  125OSM    C1213298   6.288   1.287   6.362 -0.3719  0.0053 -0.2944
  125OSM   H12A13299   6.310   1.378   6.416  0.1017  0.1293 -0.6944
  125OSM   H12B13300   6.372   1.271   6.296  0.9632  1.9837  0.8824
  125OSM    C1113301   6.301   1.172   6.467  0.7159  0.0673  0.4016
  125OSM   H11A13302   6.229   1.176   6.552 -1.1546 -2.5573 -0.9950
  125OSM   H11B13303   6.397   1.184   6.522  0.4653  2.4368  0.3828
  125OSM      P13304   6.395   0.979   6.308  0.3208 -0.1477 -0.0027
  125OSM    O1313305   6.322   0.901   6.208 -0.0261  0.1502  0.0531
  125OSM    O1413306   6.497   1.083   6.273  0.2647 -0.4083 -0.4523
  125OSM    O1113307   6.460   0.875   6.406  0.2956  0.3649 -0.5682
  125OSM    O1213308   6.287   1.044   6.406  0.1805 -0.1803  0.5052
  125OSM    C1S13309   6.545   0.920   6.515  0.3571 -0.2152 -0.1743
  125OSM    H1S13310   6.555   1.028   6.537  0.8684  0.1778 -2.2402
  125OSM    H1T13311   6.640   0.864   6.505  0.3295 -0.3062  0.0724
  125OSM     NF13312   6.580   0.928   6.766  0.6608 -0.3926 -0.5142
  125OSM    HNF13313   6.659   0.874   6.792  1.7294  1.9486  1.3373
  125OSM    C2S13314   6.499   0.865   6.662  0.1499  0.6251 -0.1324
  125OSM    H2S13315   6.394   0.888   6.689  1.0961  2.8749  1.7297
  125OSM    C3S13316   6.509   0.708   6.664  0.1282 -1.3725 -0.8628
  125OSM    H3S13317   6.617   0.685   6.670  0.4395  0.3292  0.3020
  125OSM     O313318   6.450   0.654   6.548  0.4326  0.4168 -0.3266
  125OSM    HO313319   6.447   0.723   6.481  0.5007  1.4655  0.7490
  125OSM    C4S13320   6.463   0.632   6.787  0.5660 -0.5166  0.0424
  125OSM    H4S13321   6.544   0.606   6.857 -1.0076 -1.1799  1.6435
  125OSM    C5S13322   6.332   0.602   6.817  0.2571  0.1601  0.5052
  125OSM    H5S13323   6.249   0.636   6.754 -0.2696 -2.9063 -0.5477
  125OSM    C6S13324   6.287   0.524   6.944  0.7731 -0.5115  0.1520
  125OSM    H6S13325   6.375   0.486   7.000 -0.6181 -2.6669  0.9319
  125OSM    H6T13326   6.215   0.443   6.918 -0.3320  0.3312  0.5075
  125OSM    C7S13327   6.204   0.603   7.052 -0.4928  0.5286 -0.1286
  125OSM    H7S13328   6.114   0.640   6.998 -1.0224  0.5524  0.7494
  125OSM    H7T13329   6.254   0.692   7.097  0.9047 -0.4278  0.2368
  125OSM    C8S13330   6.162   0.507   7.173 -0.0619 -1.0128 -0.3590
  125OSM    H8S13331   6.253   0.468   7.225  2.1138  0.0039 -3.2328
  125OSM    H8T13332   6.099   0.424   7.134  0.0250 -1.4482  0.4309
  125OSM    C9S13333   6.076   0.590   7.279 -0.2770 -0.0036 -0.6489
  125OSM    H9S13334   5.998   0.650   7.227 -1.0994  0.2206  0.8269
  125OSM    H9T13335   6.144   0.665   7.323 -1.0484  0.6412 -0.5569
  125OSM   C10S13336   6.009   0.503   7.388  0.2219 -0.3423  0.3498
  125OSM   H10S13337   6.055   0.405   7.413 -0.9597 -1.1490 -0.5573
  125OSM   H10T13338   5.909   0.486   7.342  1.6792 -1.8054 -2.4115
  125OSM   C11S13339   6.000   0.580   7.525 -0.7055  0.5767 -0.1380
  125OSM   H11S13340   5.981   0.684   7.490 -3.1716  0.1091 -0.2496
  125OSM   H11T13341   6.100   0.574   7.573 -1.9527 -3.8208  2.1231
  125OSM   C12S13342   5.890   0.531   7.618 -0.1239  0.4071  0.0807
  125OSM   H12S13343   5.880   0.421   7.628 -0.0434  0.5035  1.3372
  125OSM   H12T13344   5.795   0.559   7.568  0.5897  5.1934  1.1947
  125OSM   C13S13345   5.912   0.583   7.759 -0.0019  0.4755 -0.3690
  125OSM   H13S13346   5.901   0.694   7.748  0.0541  0.6696  1.3713
  125OSM   H13T13347   6.018   0.582   7.792  1.1115 -0.0730 -3.7994
  125OSM   C14S13348   5.823   0.524   7.869  0.1078  0.2032 -0.2802
  125OSM   H14S13349   5.848   0.416   7.876  0.0192 -0.0138 -2.8109
  125OSM   H14T13350   5.717   0.538   7.839 -0.0129 -0.4161 -0.1383
  125OSM   C15S13351   5.823   0.608   8.006 -1.2823 -0.7319  0.3099
  125OSM   H15S13352   5.925   0.602   8.049 -0.2012 -0.0351 -2.1026
  125OSM   H15T13353   5.754   0.558   8.078 -0.7103 -0.4343  1.0687
  125OSM   C16S13354   5.769   0.749   7.975  0.6280 -0.7779 -0.5638
  125OSM   H16S13355   5.662   0.741   7.947  0.1975  0.6697  0.6478
  125OSM   H16T13356   5.816   0.811   7.895  1.0596 -0.4863 -0.0837
  125OSM   C17S13357   5.794   0.831   8.097  0.3401  0.3475 -0.1323
  125OSM   H17S13358   5.901   0.842   8.123  0.4252  2.3464 -1.3014
  125OSM   H17T13359   5.752   0.772   8.182 -0.3746  2.7764  1.2457
  125OSM   C18S13360   5.724   0.967   8.081 -0.3559  0.7579  0.1017
  125OSM   H18S13361   5.755   1.006   7.981  1.2985  2.0463  1.1061
  125OSM   H18T13362   5.770   1.029   8.161  0.7620  0.9378 -0.6657
  125OSM   H18U13363   5.613   0.957   8.085 -0.3155  0.7608  1.3880
  125OSM    C1F13364   6.572   1.059   6.793  0.0098 -0.1233  0.5134
  125OSM     OF13365   6.487   1.135   6.744  0.4691 -0.2064 -0.6465
  125OSM    C2F13366   6.673   1.114   6.894 -0.1908  1.0471  0.1311
  125OSM    H2F13367   6.766   1.155   6.849 -0.2782  0.2598 -0.7832
  125OSM    H2G13368   6.711   1.035   6.962 -3.0970 -0.1314  0.4794
  125OSM    C3F13369   6.607   1.226   6.980  0.0923  0.1349 -0.5950
  125OSM    H3F13370   6.510   1.181   7.012  1.0391 -1.3259  0.2810
  125OSM    H3G13371   6.580   1.324   6.936  4.4794  0.8923 -1.7493
  125OSM    C4F13372   6.680   1.262   7.108 -0.5305  1.2278  0.4559
  125OSM    H4F13373   6.774   1.312   7.078  1.8379 -1.5627  2.7965
  125OSM    H4G13374   6.706   1.176   7.174 -1.1491  0.6262 -0.0745
  125OSM    C5F13375   6.605   1.371   7.186  0.4492 -0.4184  0.1532
  125OSM    H5F13376   6.502   1.328   7.190  0.2777  0.0957  1.3805
  125OSM    H5G13377   6.593   1.464   7.126 -0.4363 -1.1240 -0.7797
  125OSM    C6F13378   6.671   1.392   7.325 -0.7900  0.1991 -0.0515
  125OSM    H6F13379   6.737   1.480   7.311  0.9630 -1.1475 -0.5296
  125OSM    H6G13380   6.731   1.306   7.363 -0.4137  1.1737  1.6318
  125OSM    C7F13381   6.566   1.421   7.436 -0.5934  0.1292 -0.7253
  125OSM    H7F13382   6.487   1.487   7.394  0.3195  1.1760 -0.8393
  125OSM    H7G13383   6.615   1.470   7.523  0.8500 -1.8935 -0.3620
  125OSM    C8F13384   6.501   1.292   7.497 -0.3129  0.5516 -0.6059
  125OSM    H8F13385   6.448   1.229   7.422  1.8940 -1.2204 -0.7417
  125OSM    H8G13386   6.418   1.343   7.550 -0.7140  0.2631 -0.9510
  125OSM    C9F13387   6.582   1.214   7.602  0.7401  0.1384  0.1841
  125OSM    H9F13388   6.658   1.146   7.559  0.0871 -1.6184  1.7251
  125OSM   C10F13389   6.581   1.228   7.735  0.0653  0.3281  1.0551
  125OSM   H10F13390   6.649   1.171   7.799  1.5726  1.4212  0.4689
  125OSM   C11F13391   6.498   1.317   7.819 -0.5064  0.7446  0.2533
  125OSM   H11F13392   6.430   1.255   7.880 -0.1260  0.1179  0.0473
  125OSM   H11G13393   6.444   1.390   7.755 -0.2562  1.2990  0.6626
  125OSM   C12F13394   6.587   1.404   7.920 -0.3485  0.3033 -0.4044
  125OSM   H12F13395   6.654   1.481   7.874 -3.6773  3.3018 -0.4553
  125OSM   H12G13396   6.643   1.326   7.976  0.3285  0.2570 -1.1288
  125OSM   C13F13397   6.493   1.476   8.010  0.9036  0.4171 -0.5774
  125OSM   H13F13398   6.408   1.416   8.049  1.6332  0.1874  0.6967
  125OSM   H13G13399   6.454   1.558   7.947 -2.1879 -2.1036 -2.1180
  125OSM   C14F13400   6.570   1.550   8.131  1.1840 -0.9312  0.4752
  125OSM   H14F13401   6.651   1.619   8.100 -1.1284  0.9391 -1.6696
  125OSM   H14G13402   6.618   1.471   8.193  2.8798 -0.5331 -0.3056
  125OSM   C15F13403   6.475   1.639   8.212 -0.6049  0.2402 -0.7504
  125OSM   H15F13404   6.533   1.689   8.292  0.5555 -0.4211 -1.1655
  125OSM   H15G13405   6.399   1.573   8.258  2.1074 -0.2365  3.2710
  125OSM   C16F13406   6.400   1.752   8.135  0.3978 -0.2215  0.2964
  125OSM   H16F13407   6.323   1.698   8.075  0.9152 -1.2163  0.5189
  125OSM   H16G13408   6.465   1.804   8.062  1.9492  1.5348  2.8457
  125OSM   C17F13409   6.353   1.863   8.228 -0.0415  0.0571 -0.5614
  125OSM   H17F13410   6.281   1.817   8.300 -0.1096  0.3284 -0.4538
  125OSM   H17G13411   6.294   1.933   8.164 -0.6087 -1.5226 -1.7938
  125OSM   C18F13412   6.461   1.938   8.312  0.3395 -0.3720  0.5530
  125OSM   H18F13413   6.556   1.945   8.256  0.7007  1.5938  1.3536
  125OSM   H18G13414   6.487   1.873   8.399 -3.3008 -1.0983  1.1902
  125OSM   H18H13415   6.430   2.037   8.355  0.7854  0.7011 -1.5505
  126OSM      N13416   3.948   6.606   6.307  0.3631 -0.3965 -0.2077
  126OSM    C1513417   3.954   6.486   6.223 -0.1587 -0.2941  0.2901
  126OSM   H15A13418   3.854   6.447   6.206  0.0568  0.1047 -2.0195
  126OSM   H15B13419   4.015   6.407   6.265  0.1731 -0.5440 -0.6621
  126OSM   H15C13420   4.002   6.508   6.129  0.2189  3.7000  1.3381
  126OSM    C1413421   3.849   6.702   6.245 -0.0704 -0.0459  0.3681
  126OSM   H14A13422   3.753   6.656   6.263  0.0849 -0.8143 -0.6835
  126OSM   H14B13423   3.868   6.722   6.140 -0.7468 -1.8618 -0.1233
  126OSM   H14C13424   3.851   6.799   6.293 -3.3356  0.0890  0.2936
  126OSM    C1313425   3.876   6.565   6.432  0.4701  0.5677  0.5492
  126OSM   H13A13426   3.859   6.644   6.503 -1.8036 -0.1790  0.8685
  126OSM   H13B13427   3.933   6.491   6.486  1.6274 -0.3095 -1.8056
  126OSM   H13C13428   3.782   6.516   6.414  1.3909 -1.1754  0.3755
  126OSM    C1213429   4.077   6.672   6.339 -0.0677  0.4987  0.0487
  126OSM   H12A13430   4.113   6.717   6.248 -0.5067 -0.2739 -0.5139
  126OSM   H12B13431   4.145   6.594   6.369 -2.3826 -0.8451  1.9511
  126OSM    C1113432   4.088   6.781   6.448  0.6501 -0.0401 -0.0939
  126OSM   H11A13433   4.189   6.828   6.444  0.1212  1.2207  1.0446
  126OSM   H11B13434   4.077   6.724   6.542 -1.1241 -0.3564 -0.4722
  126OSM      P13435   3.904   6.937   6.537 -0.2674 -0.0101 -0.1712
  126OSM    O1313436   3.870   7.074   6.504  0.0111 -0.0767 -0.1078
  126OSM    O1413437   3.795   6.841   6.559 -0.0034  0.1452 -0.0507
  126OSM    O1113438   4.007   6.935   6.654  0.5301 -0.1564 -0.2281
  126OSM    O1213439   3.991   6.886   6.414  0.5636  0.1741 -0.0038
  126OSM    C1S13440   3.976   7.000   6.781 -0.2662  0.5575  0.5617
  126OSM    H1S13441   3.868   6.999   6.805 -0.6812  0.4097 -1.2501
  126OSM    H1T13442   4.011   7.105   6.774 -0.6641  0.6735  0.3219
  126OSM     NF13443   3.993   6.991   7.016 -0.1438  0.2402 -0.2134
  126OSM    HNF13444   4.046   7.056   7.071 -0.9010  0.9601 -0.3261
  126OSM    C2S13445   4.054   6.934   6.898  0.5500 -0.8998  0.0790
  126OSM    H2S13446   4.029   6.826   6.897 -0.9108 -0.5628 -0.7217
  126OSM    C3S13447   4.207   6.942   6.880 -0.3438 -0.1566 -0.0483
  126OSM    H3S13448   4.240   7.048   6.874 -1.5816  0.3085  1.2105
  126OSM     O313449   4.246   6.895   6.752  0.4186  0.1946 -0.5930
  126OSM    HO313450   4.165   6.880   6.701  0.3236 -0.7797 -0.1588
  126OSM    C4S13451   4.278   6.872   6.989  0.3986 -1.1429 -0.5610
  126OSM    H4S13452   4.287   6.932   7.081 -0.9913 -1.9949  0.1429
  126OSM    C5S13453   4.344   6.757   6.997 -0.0472  0.2264 -0.3595
  126OSM    H5S13454   4.348   6.695   6.906 -1.8787  2.7527 -2.2435
  126OSM    C6S13455   4.416   6.691   7.109  0.2515 -0.3662 -0.3172
  126OSM    H6S13456   4.518   6.665   7.073  0.1572 -0.8495 -0.2463
  126OSM    H6T13457   4.356   6.604   7.142  0.9569 -0.7254  0.0307
  126OSM    C7S13458   4.441   6.769   7.236  0.1666 -0.5709  0.5503
  126OSM    H7S13459   4.350   6.760   7.299 -0.3761  3.4399  0.4633
  126OSM    H7T13460   4.462   6.875   7.210 -2.0683 -0.6912 -1.8989
  126OSM    C8S13461   4.547   6.714   7.331 -0.9831  0.1407  0.2374
  126OSM    H8S13462   4.636   6.702   7.266 -1.8654  0.9564 -1.1330
  126OSM    H8T13463   4.523   6.614   7.375  2.0962 -0.1756  1.2907
  126OSM    C9S13464   4.572   6.813   7.449  1.1011  0.3034 -0.2894
  126OSM    H9S13465   4.515   6.905   7.422  0.9660  0.6192  1.0372
  126OSM    H9T13466   4.679   6.840   7.460  0.7017  0.9517  2.3691
  126OSM   C10S13467   4.514   6.765   7.589 -0.4518  0.5940  0.5142
  126OSM   H10S13468   4.545   6.660   7.606 -1.7330  0.0028 -0.6349
  126OSM   H10T13469   4.404   6.773   7.573 -0.5489 -0.6169  0.5282
  126OSM   C11S13470   4.543   6.862   7.705 -0.4320  0.1501 -0.1023
  126OSM   H11S13471   4.506   6.963   7.677 -2.2879 -0.7303 -0.9836
  126OSM   H11T13472   4.651   6.871   7.726 -0.6325 -2.0845  2.1442
  126OSM   C12S13473   4.470   6.822   7.839 -0.1673 -0.4814 -0.4177
  126OSM   H12S13474   4.503   6.721   7.869  1.3877  0.7706  2.3262
  126OSM   H12T13475   4.359   6.818   7.829  0.1182  0.9257 -5.3493
  126OSM   C13S13476   4.503   6.928   7.953 -0.0310  0.2013  0.0794
  126OSM   H13S13477   4.468   7.029   7.921  0.8362  0.1032 -1.2177
  126OSM   H13T13478   4.612   6.944   7.966 -0.0291  0.1062  0.1775
  126OSM   C14S13479   4.443   6.888   8.093 -0.5399 -0.1914  0.2898
  126OSM   H14S13480   4.333   6.875   8.090 -0.4533 -1.2524  1.4957
  126OSM   H14T13481   4.467   6.967   8.168 -0.9968  0.1504  0.0775
  126OSM   C15S13482   4.500   6.758   8.150 -0.6710  0.6223  0.5152
  126OSM   H15S13483   4.608   6.779   8.167  0.0947 -0.9099 -2.2452
  126OSM   H15T13484   4.506   6.688   8.064 -0.2775  1.1034  0.1443
  126OSM   C16S13485   4.435   6.697   8.269 -0.9175  0.2342  0.4880
  126OSM   H16S13486   4.334   6.666   8.235 -1.8085  1.8736  1.5563
  126OSM   H16T13487   4.413   6.764   8.354  3.5167 -2.1328  3.7170
  126OSM   C17S13488   4.510   6.579   8.331  0.0755 -0.2312  0.0260
  126OSM   H17S13489   4.591   6.617   8.397  0.5497  0.8096 -1.1271
  126OSM   H17T13490   4.558   6.517   8.252 -1.3685 -1.5311  0.1565
  126OSM   C18S13491   4.442   6.478   8.433  0.1231  0.6208  0.8075
  126OSM   H18S13492   4.389   6.534   8.513  1.6653  0.4798  1.9443
  126OSM   H18T13493   4.522   6.421   8.485  1.4274  2.1729  0.5084
  126OSM   H18U13494   4.367   6.418   8.377  0.3452 -2.3127  3.4829
  126OSM    C1F13495   3.868   6.960   7.059 -0.1078  0.6987 -0.0118
  126OSM     OF13496   3.807   6.871   7.006 -0.3652 -0.3817 -0.4137
  126OSM    C2F13497   3.809   7.036   7.179 -0.2104  0.4913  0.5541
  126OSM    H2F13498   3.814   7.146   7.169 -1.2035  0.3700 -1.6754
  126OSM    H2G13499   3.874   7.019   7.267 -0.2922 -1.6402  0.2324
  126OSM    C3F13500   3.666   6.997   7.210  0.7921 -0.1259 -0.2420
  126OSM    H3F13501   3.662   6.886   7.215 -2.4554 -0.0548 -0.0628
  126OSM    H3G13502   3.600   7.026   7.125 -3.6583 -0.1708  3.0146
  126OSM    C4F13503   3.615   7.059   7.344 -0.2187  0.1139  0.1918
  126OSM    H4F13504   3.512   7.020   7.357 -1.1586  3.0748  2.1512
  126OSM    H4G13505   3.612   7.170   7.342  0.4136  0.1306 -0.9040
  126OSM    C5F13506   3.709   7.021   7.457  0.2071  0.5360 -0.5740
  126OSM    H5F13507   3.808   7.070   7.444 -1.1791  3.1553 -1.7159
  126OSM    H5G13508   3.718   6.911   7.454 -0.0651  0.5386 -1.9229
  126OSM    C6F13509   3.655   7.074   7.592  0.0929  0.0339 -1.3088
  126OSM    H6F13510   3.546   7.052   7.602  0.5809 -1.5318  1.1836
  126OSM    H6G13511   3.651   7.185   7.586  0.2761  0.1339  0.1679
  126OSM    C7F13512   3.734   7.025   7.711 -0.5440 -0.1046  0.6824
  126OSM    H7F13513   3.840   7.025   7.677 -0.8277  3.0641 -0.3277
  126OSM    H7G13514   3.700   6.921   7.731 -0.4447 -0.5699 -1.4472
  126OSM    C8F13515   3.717   7.099   7.844  0.0034 -0.3920  0.0129
  126OSM    H8F13516   3.609   7.090   7.870 -0.5249  1.4630 -1.4311
  126OSM    H8G13517   3.749   7.202   7.817  0.6320  0.1768  2.8026
  126OSM    C9F13518   3.802   7.047   7.960 -0.2156  0.3193 -0.5918
  126OSM    H9F13519   3.905   7.026   7.928  0.6632  1.2857  1.5560
  126OSM   C10F13520   3.766   7.033   8.097  1.0346  0.7357  0.1521
  126OSM   H10F13521   3.832   6.981   8.167  0.0376  0.9401  1.2469
  126OSM   C11F13522   3.630   7.062   8.153  0.1644  0.4502 -0.0629
  126OSM   H11F13523   3.612   7.007   8.248  0.7964 -0.7433 -0.6144
  126OSM   H11G13524   3.550   7.035   8.081 -0.7276 -0.1065  1.1181
  126OSM   C12F13525   3.596   7.210   8.187 -0.0597  0.3518  0.2263
  126OSM   H12F13526   3.589   7.274   8.096 -1.7066  2.0130  1.4735
  126OSM   H12G13527   3.679   7.249   8.250 -1.0026 -0.1882  1.8367
  126OSM   C13F13528   3.462   7.221   8.253  0.1393  0.1136  0.0282
  126OSM   H13F13529   3.391   7.165   8.188 -0.5586  1.0081  0.0189
  126OSM   H13G13530   3.432   7.327   8.264  1.8517  0.6202  0.0691
  126OSM   C14F13531   3.439   7.154   8.392  0.7566 -0.1876 -0.7197
  126OSM   H14F13532   3.515   7.193   8.463 -0.5630 -0.8152  1.0979
  126OSM   H14G13533   3.453   7.045   8.383  0.5617 -0.2825  0.0552
  126OSM   C15F13534   3.297   7.191   8.443  0.5941  0.0646  0.8397
  126OSM   H15F13535   3.230   7.172   8.357 -0.6621  3.2608  1.0471
  126OSM   H15G13536   3.285   7.297   8.476 -2.5082 -0.6203  2.0504
  126OSM   C16F13537   3.247   7.110   8.562 -0.0928  0.3187 -0.4866
  126OSM   H16F13538   3.327   7.098   8.639 -0.3040  0.6322 -0.2188
  126OSM   H16G13539   3.221   7.005   8.535 -0.9237  0.0708  1.1867
  126OSM   C17F13540   3.127   7.176   8.628  0.5425 -0.1123 -0.7403
  126OSM   H17F13541   3.038   7.165   8.561 -0.7305  0.2420  0.8566
  126OSM   H17G13542   3.164   7.278   8.648  0.3678  0.2496 -2.2292
  126OSM   C18F13543   3.087   7.102   8.756  0.1720  0.7361  0.4409
  126OSM   H18F13544   2.987   7.130   8.794 -1.9287 -2.9383 -2.1628
  126OSM   H18G13545   3.164   7.107   8.836  2.1150 -1.0329 -1.2783
  126OSM   H18H13546   3.067   6.996   8.732  0.8602  0.2586  1.9044
  127OSM      N13547   5.867   5.234   6.083  0.5321 -0.5899 -0.0733
  127OSM    C1513548   5.763   5.313   6.027 -0.4661 -0.4555  0.1330
  127OSM   H15A13549   5.677   5.324   6.092 -0.1447  2.2829  0.1542
  127OSM   H15B13550   5.712   5.266   5.944 -0.5932 -0.0139 -0.0433
  127OSM   H15C13551   5.783   5.413   5.990  0.2508 -0.2052  1.1621
  127OSM    C1413552   5.971   5.195   5.989  0.1407 -0.1007  0.0493
  127OSM   H14A13553   6.015   5.280   5.939 -0.2424 -1.3163 -2.4361
  127OSM   H14B13554   5.924   5.140   5.909  1.9137  1.0864 -1.8333
  127OSM   H14C13555   6.053   5.137   6.030  1.6331  1.3795 -0.7866
  127OSM    C1313556   5.941   5.302   6.199 -0.0877  0.0512 -0.1678
  127OSM   H13A13557   5.867   5.347   6.264  0.0360  0.6007 -0.4028
  127OSM   H13B13558   6.005   5.379   6.158  2.1923 -0.8180  1.6598
  127OSM   H13C13559   5.992   5.220   6.247  2.0955  1.0408 -0.7200
  127OSM    C1213560   5.797   5.106   6.131 -0.5206  0.0374 -0.0589
  127OSM   H12A13561   5.876   5.033   6.143 -0.4019  0.2623  0.6130
  127OSM   H12B13562   5.736   5.065   6.053  1.3177 -0.2000 -1.4113
  127OSM    C1113563   5.719   5.116   6.266  0.2059  0.3373  0.7320
  127OSM   H11A13564   5.787   5.145   6.349  0.0907  1.8404  0.3176
  127OSM   H11B13565   5.687   5.013   6.293 -0.8896  0.3156 -0.5902
  127OSM      P13566   5.473   5.157   6.225 -0.0027 -0.1950  0.4232
  127OSM    O1313567   5.383   5.277   6.200  0.3294  0.4641  0.5945
  127OSM    O1413568   5.488   5.057   6.116  0.0854 -0.1623  0.0756
  127OSM    O1113569   5.424   5.078   6.352 -0.1671  0.2623 -0.5678
  127OSM    O1213570   5.611   5.213   6.271 -0.3284 -0.2174  0.1143
  127OSM    C1S13571   5.432   5.139   6.487  0.3916  0.2362  0.0477
  127OSM    H1S13572   5.336   5.190   6.508  0.2296  0.4624 -1.1724
  127OSM    H1T13573   5.502   5.225   6.492  0.0776  0.4992 -0.0713
  127OSM     NF13574   5.500   5.114   6.716 -0.3529  0.7019  0.2805
  127OSM    HNF13575   5.595   5.118   6.746  0.0165 -2.1555 -0.4171
  127OSM    C2S13576   5.462   5.041   6.599  1.2325 -0.7320  0.4536
  127OSM    H2S13577   5.372   4.980   6.624 -0.2285  1.4906  0.7313
  127OSM    C3S13578   5.574   4.940   6.559 -0.2653  0.1525  0.7056
  127OSM    H3S13579   5.668   4.981   6.516  0.5537 -0.2639  2.0752
  127OSM     O313580   5.527   4.865   6.450  0.2902  0.0850 -0.0216
  127OSM    HO313581   5.466   4.926   6.406 -0.4546 -1.1447 -0.7202
  127OSM    C4S13582   5.607   4.833   6.663  0.2185  0.4327  0.3784
  127OSM    H4S13583   5.530   4.755   6.669 -0.8335  1.3014 -1.4907
  127OSM    C5S13584   5.720   4.806   6.733 -0.0748 -0.4367  0.0534
  127OSM    H5S13585   5.803   4.878   6.738 -2.2109  2.3582 -2.5184
  127OSM    C6S13586   5.747   4.691   6.836  0.6596 -0.4873  0.1987
  127OSM    H6S13587   5.843   4.641   6.812  1.1012  0.7418 -0.6117
  127OSM    H6T13588   5.678   4.605   6.824 -0.8806  0.9473 -1.4745
  127OSM    C7S13589   5.762   4.725   6.987  0.3437  1.2053 -0.4868
  127OSM    H7S13590   5.696   4.809   7.018 -0.8859  0.7421 -1.8305
  127OSM    H7T13591   5.860   4.773   7.008 -0.3361  2.0935  0.6680
  127OSM    C8S13592   5.729   4.605   7.076 -0.4029  0.4538  0.3685
  127OSM    H8S13593   5.817   4.538   7.082  2.4333  3.9937 -0.5548
  127OSM    H8T13594   5.646   4.547   7.029 -0.3889 -0.6907  1.7128
  127OSM    C9S13595   5.680   4.655   7.210  0.7263 -0.1299  0.0005
  127OSM    H9S13596   5.600   4.731   7.200  0.6846 -0.1120  0.4731
  127OSM    H9T13597   5.769   4.708   7.250 -0.1967  2.1416 -0.9430
  127OSM   C10S13598   5.635   4.549   7.310 -0.3771  0.4882  0.6255
  127OSM   H10S13599   5.713   4.478   7.345  1.4833  2.5420  0.7185
  127OSM   H10T13600   5.559   4.477   7.270  1.3649 -1.3069  0.4881
  127OSM   C11S13601   5.574   4.612   7.436  0.2264  0.4672 -0.1468
  127OSM   H11S13602   5.471   4.571   7.452 -0.7348  1.6727 -3.0267
  127OSM   H11T13603   5.558   4.722   7.431 -2.4326  0.1627  0.8300
  127OSM   C12S13604   5.653   4.593   7.563 -0.0983 -0.3475  0.0193
  127OSM   H12S13605   5.758   4.626   7.542 -0.6847  0.8648 -1.0774
  127OSM   H12T13606   5.655   4.484   7.584  2.0339 -0.0910  1.3554
  127OSM   C13S13607   5.601   4.664   7.689 -0.3845 -0.7496  0.2900
  127OSM   H13S13608   5.492   4.650   7.706 -0.1268 -2.6155  0.5396
  127OSM   H13T13609   5.622   4.770   7.663 -0.8334 -0.7175  0.0623
  127OSM   C14S13610   5.681   4.630   7.819 -0.7218  0.1992 -0.5399
  127OSM   H14S13611   5.692   4.716   7.888 -0.1623 -0.5626  0.3199
  127OSM   H14T13612   5.786   4.630   7.784  0.0637  0.7368  1.7476
  127OSM   C15S13613   5.650   4.502   7.883  0.4034 -0.3487 -1.0896
  127OSM   H15S13614   5.734   4.476   7.951 -1.2730  2.6986  2.3071
  127OSM   H15T13615   5.647   4.438   7.792 -0.4878 -1.5276 -0.2472
  127OSM   C16S13616   5.521   4.506   7.963 -0.4629 -0.1428  0.0421
  127OSM   H16S13617   5.515   4.403   8.005  2.5188  0.0253  0.9997
  127OSM   H16T13618   5.429   4.521   7.902  0.0526  0.3824 -0.6054
  127OSM   C17S13619   5.515   4.616   8.069 -0.2699  0.7074 -0.3128
  127OSM   H17S13620   5.492   4.717   8.029 -0.1273  0.4594 -1.0233
  127OSM   H17T13621   5.618   4.628   8.108 -0.0739 -1.3720 -0.1431
  127OSM   C18S13622   5.408   4.580   8.178 -0.1408 -0.4708 -0.3517
  127OSM   H18S13623   5.305   4.573   8.136 -0.1782 -3.5859  0.1550
  127OSM   H18T13624   5.415   4.661   8.253  0.8548 -0.6419 -0.2426
  127OSM   H18U13625   5.421   4.477   8.218  0.2600 -0.1396  0.3889
  127OSM    C1F13626   5.403   5.172   6.792 -0.1451  0.0553  0.3739
  127OSM     OF13627   5.285   5.145   6.770  0.6092 -0.3508 -0.4477
  127OSM    C2F13628   5.445   5.250   6.915 -0.3077  0.0403  0.8894
  127OSM    H2F13629   5.549   5.282   6.895 -0.7129  0.2297 -1.0340
  127OSM    H2G13630   5.444   5.181   7.002  2.5563 -2.2169 -0.7864
  127OSM    C3F13631   5.362   5.378   6.941 -0.2024  0.4586  0.3035
  127OSM    H3F13632   5.257   5.344   6.955 -0.6888  0.6755 -2.6204
  127OSM    H3G13633   5.370   5.438   6.848 -0.1899 -3.8615 -2.6221
  127OSM    C4F13634   5.393   5.444   7.070 -0.1170  0.2374  0.3806
  127OSM    H4F13635   5.436   5.363   7.134 -1.6851  0.6547  2.0079
  127OSM    H4G13636   5.312   5.501   7.120 -0.2495  0.2515  0.1458
  127OSM    C5F13637   5.512   5.543   7.049  0.2296 -0.3213 -0.4428
  127OSM    H5F13638   5.494   5.603   6.958  0.8208  0.7072  0.1099
  127OSM    H5G13639   5.611   5.493   7.038  0.6750  0.4359  0.0572
  127OSM    C6F13640   5.504   5.657   7.160  0.4505 -0.2211 -0.0548
  127OSM    H6F13641   5.405   5.708   7.154 -0.0305 -0.7851  2.5241
  127OSM    H6G13642   5.578   5.739   7.152  0.2911 -0.1475 -0.8464
  127OSM    C7F13643   5.501   5.603   7.305  0.3615  0.4313  0.6611
  127OSM    H7F13644   5.600   5.551   7.304  0.1930  0.1165 -0.2583
  127OSM    H7G13645   5.418   5.530   7.317  0.5453  0.0536 -0.2970
  127OSM    C8F13646   5.508   5.710   7.410  0.7215  0.2485  0.9639
  127OSM    H8F13647   5.446   5.800   7.392  2.1462  1.0697  0.1215
  127OSM    H8G13648   5.615   5.738   7.402  0.4247  0.9692 -0.6882
  127OSM    C9F13649   5.493   5.651   7.545  0.6056  0.1770 -0.3902
  127OSM    H9F13650   5.564   5.570   7.570 -1.4553 -2.0011 -1.4572
  127OSM   C10F13651   5.398   5.684   7.634 -0.3115  0.3030  0.9693
  127OSM   H10F13652   5.402   5.637   7.733  0.0540  1.2489  1.4081
  127OSM   C11F13653   5.289   5.794   7.634  0.5699  0.4276  0.1301
  127OSM   H11F13654   5.196   5.737   7.611  1.3421 -1.0425  0.5535
  127OSM   H11G13655   5.303   5.870   7.555 -0.7357  0.5733  0.0236
  127OSM   C12F13656   5.263   5.860   7.767 -0.2252 -0.0018 -0.4127
  127OSM   H12F13657   5.253   5.778   7.842 -1.5138 -1.1508 -1.8134
  127OSM   H12G13658   5.156   5.892   7.763 -0.6443 -1.1868  0.7532
  127OSM   C13F13659   5.348   5.981   7.814  0.2759  0.0309 -0.0525
  127OSM   H13F13660   5.283   6.046   7.877  1.1510 -0.5158  1.4349
  127OSM   H13G13661   5.386   6.043   7.731 -1.2276 -0.6419 -1.2727
  127OSM   C14F13662   5.463   5.927   7.916 -0.5638  0.6030  0.4014
  127OSM   H14F13663   5.531   5.854   7.869 -0.3899  1.7690 -1.2122
  127OSM   H14G13664   5.422   5.872   8.003 -3.5891  0.0638 -1.2914
  127OSM   C15F13665   5.533   6.047   7.984  0.1770  0.2010 -0.7584
  127OSM   H15F13666   5.467   6.114   8.042  1.1517 -0.2925  0.9480
  127OSM   H15G13667   5.579   6.116   7.910 -0.3584  0.2311 -1.0669
  127OSM   C16F13668   5.637   5.992   8.087  0.0446  0.1044 -0.3526
  127OSM   H16F13669   5.701   5.921   8.031 -0.6190 -1.4755  0.8542
  127OSM   H16G13670   5.574   5.919   8.142  0.7525  0.4684  0.9397
  127OSM   C17F13671   5.724   6.088   8.166 -0.5953  0.8443 -0.0938
  127OSM   H17F13672   5.777   6.016   8.232 -1.3464 -0.9241 -1.4005
  127OSM   H17G13673   5.671   6.159   8.232 -0.0451  1.1040  0.0727
  127OSM   C18F13674   5.833   6.163   8.085  0.2423 -0.3372  0.0553
  127OSM   H18F13675   5.901   6.100   8.023  0.6189  0.0690  0.0480
  127OSM   H18G13676   5.910   6.179   8.164  1.0301 -0.1737 -0.7318
  127OSM   H18H13677   5.805   6.243   8.013  1.4404  1.8483  1.9485
  128OSM      N13678   1.055   1.567   6.001  0.0663 -0.2620  0.2699
  128OSM    C1513679   1.141   1.628   6.109 -0.1467 -0.3846 -0.0308
  128OSM   H15A13680   1.245   1.601   6.095  0.0018 -0.0966  0.5148
  128OSM   H15B13681   1.107   1.608   6.209  0.6007 -1.7758 -0.0452
  128OSM   H15C13682   1.125   1.735   6.112 -1.0661 -0.4964 -0.5910
  128OSM    C1413683   1.097   1.622   5.869 -0.1751 -0.1581 -0.4530
  128OSM   H14A13684   1.040   1.580   5.787  0.3261  0.2182 -0.9939
  128OSM   H14B13685   1.194   1.586   5.840 -0.1864 -0.5332 -0.0202
  128OSM   H14C13686   1.088   1.729   5.874 -0.7526 -0.2834  1.5680
  128OSM    C1313687   1.064   1.416   6.006 -0.2582 -1.0109 -0.1210
  128OSM   H13A13688   1.026   1.389   6.103  1.5591  1.7259  1.4272
  128OSM   H13B13689   1.167   1.389   6.020  0.0249 -0.3205 -0.8413
  128OSM   H13C13690   1.001   1.366   5.934 -0.7492  0.3100 -0.6268
  128OSM    C1213691   0.911   1.607   6.016  0.2749  0.6492  0.0504
  128OSM   H12A13692   0.875   1.560   6.107 -0.6639  1.0651 -0.0987
  128OSM   H12B13693   0.844   1.576   5.937  1.0324 -1.9735  0.3718
  128OSM    C1113694   0.890   1.761   6.019 -0.5384 -0.2232 -0.4626
  128OSM   H11A13695   0.779   1.768   6.027 -0.3901  1.5311  0.2224
  128OSM   H11B13696   0.923   1.818   5.929  0.7075  0.3428  0.3447
  128OSM      P13697   0.918   1.955   6.194  0.0547  0.3826  0.1547
  128OSM    O1313698   1.006   1.991   6.305 -0.6673 -0.2189 -0.0598
  128OSM    O1413699   0.905   2.049   6.083  0.6317 -0.1632  0.0417
  128OSM    O1113700   0.775   1.921   6.261 -0.1186  0.3035 -0.1213
  128OSM    O1213701   0.950   1.815   6.138 -0.0798 -0.3520 -0.3851
  128OSM    C1S13702   0.750   1.824   6.358 -0.6668  0.7924  0.2483
  128OSM    H1S13703   0.806   1.731   6.334 -1.4446  0.2351  0.5702
  128OSM    H1T13704   0.644   1.790   6.362  0.1270 -2.0336 -1.2246
  128OSM     NF13705   0.751   1.771   6.605  1.0429  0.1076 -0.0182
  128OSM    HNF13706   0.669   1.789   6.659  1.2328  1.6897 -0.2390
  128OSM    C2S13707   0.792   1.870   6.504 -0.5483  0.1880 -0.4577
  128OSM    H2S13708   0.899   1.899   6.518 -1.3554  2.4250  1.2476
  128OSM    C3S13709   0.723   2.002   6.535 -0.2890  1.1952 -0.2180
  128OSM    H3S13710   0.613   1.995   6.529 -0.3611  1.1414  1.1175
  128OSM     O313711   0.766   2.110   6.446  0.0093 -0.3580 -0.6319
  128OSM    HO313712   0.844   2.077   6.402  0.8672 -0.3394  0.8144
  128OSM    C4S13713   0.748   2.037   6.681  0.3560  0.3217 -0.0678
  128OSM    H4S13714   0.672   1.998   6.751  0.9629 -0.9668 -0.1053
  128OSM    C5S13715   0.849   2.105   6.735 -0.3782 -0.0932 -0.1962
  128OSM    H5S13716   0.933   2.129   6.668 -1.1454  2.6528 -0.2284
  128OSM    C6S13717   0.870   2.134   6.885  0.0607  0.5759  0.1780
  128OSM    H6S13718   0.862   2.244   6.892  1.4338  0.7479 -0.7678
  128OSM    H6T13719   0.973   2.110   6.919  1.5928  2.8031 -2.6194
  128OSM    C7S13720   0.781   2.059   6.985 -0.8153  0.5270  0.0366
  128OSM    H7S13721   0.806   1.951   6.983  0.5225  0.8288 -0.6807
  128OSM    H7T13722   0.678   2.071   6.946 -0.1827  1.2451 -1.4767
  128OSM    C8S13723   0.790   2.115   7.124 -0.0364 -0.0693 -0.1658
  128OSM    H8S13724   0.740   2.214   7.116 -1.3502 -0.8762 -2.7288
  128OSM    H8T13725   0.898   2.129   7.146 -0.2477 -0.1921  0.9738
  128OSM    C9S13726   0.719   2.025   7.226 -0.1824  1.0032 -1.1332
  128OSM    H9S13727   0.766   1.924   7.228 -0.3373  0.9129  3.6121
  128OSM    H9T13728   0.612   2.021   7.195  0.0439 -0.9328 -1.7454
  128OSM   C10S13729   0.721   2.084   7.366  0.4153 -0.1184  0.6162
  128OSM   H10S13730   0.699   2.192   7.354  0.6207 -0.1756 -0.3530
  128OSM   H10T13731   0.826   2.071   7.399  0.1989 -2.1240  0.5950
  128OSM   C11S13732   0.629   2.016   7.474 -0.2848 -0.3903 -0.0606
  128OSM   H11S13733   0.651   1.908   7.465  0.4401 -0.3993  1.6101
  128OSM   H11T13734   0.523   2.043   7.459 -0.4154  0.6231  2.4230
  128OSM   C12S13735   0.659   2.060   7.617  0.3904  0.4885  0.0169
  128OSM   H12S13736   0.644   2.169   7.627  1.5771  0.5204  1.8289
  128OSM   H12T13737   0.763   2.029   7.642 -0.1362  0.1738  1.9347
  128OSM   C13S13738   0.573   1.982   7.718 -0.0323  0.1577 -0.6451
  128OSM   H13S13739   0.600   1.874   7.723 -3.5349 -0.6580  2.5369
  128OSM   H13T13740   0.468   1.987   7.683  0.3432 -0.3128 -1.8656
  128OSM   C14S13741   0.576   2.039   7.860 -0.1770  0.9491 -0.1432
  128OSM   H14S13742   0.504   1.985   7.925  0.1876  0.1763 -0.3721
  128OSM   H14T13743   0.550   2.147   7.855 -0.2736  0.9586  0.4748
  128OSM   C15S13744   0.703   2.023   7.940 -0.8627 -0.6351  1.0036
  128OSM   H15S13745   0.791   2.048   7.878 -1.0178  0.4935  1.2270
  128OSM   H15T13746   0.706   1.914   7.959  5.1344 -0.6652  0.9333
  128OSM   C16S13747   0.698   2.095   8.071 -0.0314 -1.0878  0.3895
  128OSM   H16S13748   0.665   2.199   8.051  0.6263 -0.7789  0.9238
  128OSM   H16T13749   0.794   2.100   8.126  0.5373 -2.4865 -0.4508
  128OSM   C17S13750   0.590   2.042   8.171 -0.1233 -0.6259  0.0370
  128OSM   H17S13751   0.592   1.931   8.168 -0.0331 -0.6310  0.2421
  128OSM   H17T13752   0.486   2.073   8.150 -0.8201 -1.6042  1.8834
  128OSM   C18S13753   0.619   2.089   8.313  0.0226  0.0516 -0.1427
  128OSM   H18S13754   0.690   2.022   8.368  1.0770 -0.7218 -2.3858
  128OSM   H18T13755   0.523   2.070   8.366 -0.2955  0.4191 -0.5877
  128OSM   H18U13756   0.643   2.197   8.313 -2.8057  0.7860  3.5430
  128OSM    C1F13757   0.806   1.654   6.607  0.9600  0.2624 -0.0171
  128OSM     OF13758   0.894   1.634   6.527  0.3940 -0.0796 -0.4204
  128OSM    C2F13759   0.747   1.548   6.696  0.1321  0.1608  0.3181
  128OSM    H2F13760   0.651   1.523   6.647  1.3035 -1.5615 -1.1579
  128OSM    H2G13761   0.745   1.589   6.800  0.9794 -0.8703  0.7469
  128OSM    C3F13762   0.830   1.416   6.693  0.1827  0.6614 -1.1304
  128OSM    H3F13763   0.935   1.450   6.701  0.6287 -0.3475 -2.5692
  128OSM    H3G13764   0.813   1.371   6.593 -1.0098 -0.6420 -0.3572
  128OSM    C4F13765   0.798   1.295   6.786 -0.4481  0.0057 -0.5855
  128OSM    H4F13766   0.865   1.211   6.762  0.1234  0.9699 -2.4836
  128OSM    H4G13767   0.695   1.257   6.767 -0.8582 -0.0093  1.5212
  128OSM    C5F13768   0.813   1.333   6.937 -0.3917  0.1009  0.3837
  128OSM    H5F13769   0.750   1.424   6.944  0.9424  0.9402  1.7591
  128OSM    H5G13770   0.919   1.347   6.964  0.3021 -1.1008 -1.5855
  128OSM    C6F13771   0.770   1.212   7.017  0.4310 -0.2094  0.0912
  128OSM    H6F13772   0.813   1.114   6.985  2.7552  1.1265 -0.9864
  128OSM    H6G13773   0.662   1.191   7.006  0.0223  2.8862 -2.7084
  128OSM    C7F13774   0.808   1.235   7.167  0.0331 -0.8670  0.0166
  128OSM    H7F13775   0.763   1.335   7.183  2.1019 -0.1262  1.4682
  128OSM    H7G13776   0.916   1.253   7.186  0.6981 -2.2452 -2.2030
  128OSM    C8F13777   0.748   1.132   7.265 -0.2409 -0.2385  0.0776
  128OSM    H8F13778   0.828   1.055   7.265  0.1764  0.1604 -1.7698
  128OSM    H8G13779   0.670   1.077   7.209 -1.0515  3.2232 -2.3670
  128OSM    C9F13780   0.715   1.174   7.405  0.5261 -0.2902 -0.6304
  128OSM    H9F13781   0.630   1.244   7.405 -0.3659 -1.3346 -2.0883
  128OSM   C10F13782   0.775   1.132   7.522  0.0976  0.0038  0.0307
  128OSM   H10F13783   0.726   1.157   7.617  0.9920  0.0229  0.4965
  128OSM   C11F13784   0.889   1.033   7.534 -0.0895 -0.1439 -0.0338
  128OSM   H11F13785   0.987   1.082   7.516  0.3702 -1.6225 -1.6384
  128OSM   H11G13786   0.873   0.950   7.462  1.2396  0.5079 -1.1167
  128OSM   C12F13787   0.902   0.970   7.672  0.2306  0.7690 -0.3933
  128OSM   H12F13788   0.987   0.899   7.667 -1.3660 -1.1802 -0.9688
  128OSM   H12G13789   0.809   0.911   7.690  1.3277 -2.2565 -3.8215
  128OSM   C13F13790   0.933   1.062   7.787 -0.4648 -0.1373  0.0537
  128OSM   H13F13791   0.846   1.130   7.790 -1.2169 -1.1587  1.8211
  128OSM   H13G13792   1.005   1.141   7.755  0.4797 -1.1049 -0.2450
  128OSM   C14F13793   0.971   0.993   7.917  0.4877  0.4386  0.1516
  128OSM   H14F13794   1.071   0.947   7.905  0.3652  0.3718 -0.6566
  128OSM   H14G13795   0.897   0.913   7.939  0.6269  0.3402  0.2620
  128OSM   C15F13796   0.971   1.083   8.038  0.2769  0.0479  0.1161
  128OSM   H15F13797   0.866   1.116   8.046  0.3653 -0.0320  1.6810
  128OSM   H15G13798   1.039   1.170   8.022  1.3817 -0.7263  0.5512
  128OSM   C16F13799   1.012   1.017   8.170 -0.2036 -0.7169 -0.4556
  128OSM   H16F13800   1.123   1.019   8.177 -0.3850  0.4373  2.7168
  128OSM   H16G13801   0.979   0.911   8.175  4.0869 -2.0810  0.6490
  128OSM   C17F13802   0.956   1.107   8.274  0.1658  0.2306 -0.0853
  128OSM   H17F13803   0.967   1.208   8.229  1.8171 -1.6548 -4.1601
  128OSM   H17G13804   1.021   1.090   8.362 -0.6364 -0.5674  0.3722
  128OSM   C18F13805   0.811   1.084   8.312  0.0993 -0.1814  0.1050
  128OSM   H18F13806   0.783   0.984   8.350  0.7215  0.2469  1.7791
  128OSM   H18G13807   0.746   1.086   8.223  0.1224 -1.5149  0.0607
  128OSM   H18H13808   0.768   1.155   8.386 -1.5434 -1.8329  0.7699
  129OSM      N13809   5.170   4.814   6.116 -0.2220 -0.2796  0.2317
  129OSM    C1513810   5.237   4.908   6.020  0.3516  0.1873  0.0403
  129OSM   H15A13811   5.278   4.861   5.932  0.9551 -1.0271  0.9549
  129OSM   H15B13812   5.309   4.971   6.070  1.4793 -0.7993 -0.3242
  129OSM   H15C13813   5.168   4.988   5.996  1.5162  2.0338  2.6114
  129OSM    C1413814   5.036   4.775   6.065  0.3217 -0.1421 -0.4172
  129OSM   H14A13815   4.985   4.696   6.118 -2.1361  0.2606 -2.0633
  129OSM   H14B13816   5.051   4.738   5.964  2.0712 -1.5341  0.3335
  129OSM   H14C13817   4.978   4.866   6.063  0.9604  0.2955  0.7194
  129OSM    C1313818   5.259   4.689   6.136  0.2837 -0.0770  0.8846
  129OSM   H13A13819   5.364   4.714   6.146  0.3511  0.4009 -0.8957
  129OSM   H13B13820   5.269   4.631   6.045  3.2845  0.3430  0.8856
  129OSM   H13C13821   5.231   4.625   6.219 -1.6354 -0.2907  0.0893
  129OSM    C1213822   5.161   4.882   6.252 -0.0688 -0.3069  0.2947
  129OSM   H12A13823   5.263   4.894   6.286  0.3124  1.4285 -1.3553
  129OSM   H12B13824   5.095   4.828   6.319 -1.2995  2.3031  1.2784
  129OSM    C1113825   5.113   5.037   6.253  0.0553  0.1628  0.9810
  129OSM   H11A13826   5.188   5.084   6.185 -2.7464  2.7425 -0.4288
  129OSM   H11B13827   5.127   5.103   6.341  1.7775 -0.5827  1.2852
  129OSM      P13828   4.846   5.043   6.299  0.3353  0.0010 -0.1889
  129OSM    O1313829   4.796   5.178   6.317 -0.3471 -0.0454 -0.5176
  129OSM    O1413830   4.755   4.943   6.243 -0.4471 -0.0678  0.0577
  129OSM    O1113831   4.906   4.993   6.434 -0.2984 -0.3441  0.8582
  129OSM    O1213832   4.976   5.049   6.208 -0.0748 -0.0364 -0.7796
  129OSM    C1S13833   4.923   5.082   6.546  0.3226  0.1008 -0.2337
  129OSM    H1S13834   4.830   5.139   6.564 -0.1488 -0.8173  0.2891
  129OSM    H1T13835   5.003   5.156   6.528 -0.1900  1.3179  2.2405
  129OSM     NF13836   4.984   5.100   6.782  0.1108  0.1663  0.6455
  129OSM    HNF13837   5.077   5.115   6.814  0.3940 -0.0930 -0.0364
  129OSM    C2S13838   4.950   5.004   6.677  0.1910 -0.5539  1.0710
  129OSM    H2S13839   4.859   4.947   6.706  0.7185 -1.3751  1.1334
  129OSM    C3S13840   5.064   4.901   6.647  0.5602  0.4814 -0.4648
  129OSM    H3S13841   5.156   4.954   6.615  2.8199 -3.2024 -0.2885
  129OSM     O313842   5.040   4.802   6.551  0.4076  0.6164  0.4857
  129OSM    HO313843   4.962   4.838   6.508  0.2345 -1.8074 -1.4034
  129OSM    C4S13844   5.100   4.823   6.770  0.3336 -0.0071  0.2868
  129OSM    H4S13845   5.014   4.785   6.828  0.4857  0.7341  1.0078
  129OSM    C5S13846   5.226   4.803   6.815 -0.4002  0.3908 -0.2622
  129OSM    H5S13847   5.312   4.853   6.769 -0.0010 -0.5433 -0.5577
  129OSM    C6S13848   5.255   4.714   6.931 -0.2145  0.5371  0.3105
  129OSM    H6S13849   5.354   4.667   6.914 -0.2329  1.6562 -3.1149
  129OSM    H6T13850   5.177   4.638   6.952  0.0396 -0.3524 -1.9325
  129OSM    C7S13851   5.268   4.788   7.062  0.2772  0.6155 -0.4564
  129OSM    H7S13852   5.298   4.720   7.144 -1.1112 -0.4497 -0.8258
  129OSM    H7T13853   5.168   4.826   7.093 -0.3712 -2.2494  1.0846
  129OSM    C8S13854   5.358   4.909   7.058 -0.1300 -0.5111  0.3933
  129OSM    H8S13855   5.304   4.993   7.009  1.9041  0.1626 -0.7653
  129OSM    H8T13856   5.447   4.888   6.995 -0.7680 -2.7209  0.1766
  129OSM    C9S13857   5.391   4.960   7.203 -0.6020 -0.3342 -0.1185
  129OSM    H9S13858   5.490   5.010   7.209 -0.6589 -0.3490  1.0872
  129OSM    H9T13859   5.404   4.870   7.267 -0.0154  0.3556  0.7304
  129OSM   C10S13860   5.282   5.043   7.269 -0.1726  0.2308 -0.6249
  129OSM   H10S13861   5.183   5.005   7.236 -0.7528  0.3660  0.9473
  129OSM   H10T13862   5.297   5.149   7.240 -1.9769  1.0438  1.3310
  129OSM   C11S13863   5.269   5.026   7.424 -0.0117  0.5538 -0.4397
  129OSM   H11S13864   5.257   4.919   7.452  1.9745  0.5464  0.4932
  129OSM   H11T13865   5.185   5.080   7.472 -1.4645 -2.6531  0.7883
  129OSM   C12S13866   5.392   5.080   7.499 -0.8146 -0.3884  0.2670
  129OSM   H12S13867   5.415   5.186   7.476 -0.1418 -0.2428  1.5538
  129OSM   H12T13868   5.479   5.017   7.470 -0.9314 -0.5711  0.3103
  129OSM   C13S13869   5.387   5.067   7.657  0.0835  0.2045  0.0065
  129OSM   H13S13870   5.315   5.135   7.706 -1.8299 -0.4553 -1.8060
  129OSM   H13T13871   5.487   5.099   7.692  0.0246  0.0775  0.2896
  129OSM   C14S13872   5.360   4.924   7.705  0.4728 -0.4965  0.2867
  129OSM   H14S13873   5.433   4.857   7.656  1.8835  0.6286  0.8032
  129OSM   H14T13874   5.262   4.893   7.665  0.4308  0.3543 -0.2989
  129OSM   C15S13875   5.360   4.907   7.858  0.3362 -0.0893  0.5493
  129OSM   H15S13876   5.467   4.914   7.885  0.6037 -1.6437 -0.0698
  129OSM   H15T13877   5.334   4.800   7.870  1.2894 -0.5604 -1.3677
  129OSM   C16S13878   5.262   4.999   7.930 -0.2471  0.3155  0.3097
  129OSM   H16S13879   5.158   4.974   7.899 -0.0952 -2.3191  1.7625
  129OSM   H16T13880   5.270   5.108   7.907 -1.6780 -0.0358 -2.0184
  129OSM   C17S13881   5.267   4.982   8.081  1.3143  0.0454  0.0739
  129OSM   H17S13882   5.371   5.011   8.108  0.8169  1.2822  0.7331
  129OSM   H17T13883   5.250   4.875   8.104  1.8978 -0.1558 -0.4206
  129OSM   C18S13884   5.177   5.081   8.148 -0.4630 -0.0878 -0.6555
  129OSM   H18S13885   5.166   5.058   8.255  1.9807  1.6388  0.0192
  129OSM   H18T13886   5.078   5.099   8.100 -0.9648  2.8748  1.3914
  129OSM   H18U13887   5.225   5.181   8.156 -1.1064  0.1472  0.2783
  129OSM    C1F13888   4.894   5.187   6.827 -0.0724 -0.6964  0.8810
  129OSM     OF13889   4.778   5.184   6.790 -0.4641  0.2104  0.5359
  129OSM    C2F13890   4.948   5.291   6.915  0.1149  0.5065 -0.6749
  129OSM    H2F13891   4.878   5.377   6.917 -0.0907  0.3208  2.2954
  129OSM    H2G13892   5.042   5.338   6.878  0.9858  0.3530  1.2851
  129OSM    C3F13893   4.963   5.253   7.067  0.1898 -0.0680  0.5615
  129OSM    H3F13894   5.031   5.166   7.065 -1.0461 -1.0544  1.0255
  129OSM    H3G13895   4.866   5.219   7.109  0.4314 -0.8184  0.5200
  129OSM    C4F13896   5.022   5.369   7.155  0.1315 -0.5929 -0.5751
  129OSM    H4F13897   4.993   5.470   7.119 -1.0051 -0.4737  0.6529
  129OSM    H4G13898   5.133   5.376   7.155 -0.0259  2.4850 -0.1521
  129OSM    C5F13899   4.969   5.351   7.301  0.4069  0.2157  0.6292
  129OSM    H5F13900   4.996   5.246   7.327 -2.7708 -0.4257  1.5065
  129OSM    H5G13901   4.860   5.372   7.307  0.0986 -1.6072  1.9476
  129OSM    C6F13902   5.036   5.446   7.398 -0.0177 -0.2336  0.2515
  129OSM    H6F13903   5.016   5.550   7.365  0.8249  0.4059  1.7153
  129OSM    H6G13904   5.146   5.431   7.406  0.1487 -0.5088 -2.1728
  129OSM    C7F13905   4.979   5.425   7.539  0.1895 -0.0090  0.3485
  129OSM    H7F13906   5.012   5.326   7.578  0.5070 -0.3485 -0.7426
  129OSM    H7G13907   4.869   5.423   7.528  0.2504  0.8534 -0.4891
  129OSM    C8F13908   5.014   5.538   7.642  0.1422 -0.6876  0.7972
  129OSM    H8F13909   5.001   5.634   7.589  1.0318 -1.2348 -0.4505
  129OSM    H8G13910   5.122   5.531   7.669  0.5163  2.1153  0.1434
  129OSM    C9F13911   4.925   5.524   7.762  1.6284  0.0029 -0.5170
  129OSM    H9F13912   4.831   5.578   7.743  2.1307  0.8162 -0.7001
  129OSM   C10F13913   4.956   5.463   7.882 -0.2251  0.7006 -0.1360
  129OSM   H10F13914   4.876   5.466   7.957  1.1101  1.2997  1.3002
  129OSM   C11F13915   5.088   5.397   7.921  0.2895 -0.1238  0.2716
  129OSM   H11F13916   5.157   5.385   7.835 -0.0669 -1.2995  0.1358
  129OSM   H11G13917   5.060   5.299   7.966  0.7093  0.6305  2.2457
  129OSM   C12F13918   5.159   5.489   8.020 -0.5649 -0.0871 -0.0571
  129OSM   H12F13919   5.104   5.493   8.117 -2.2953 -2.8396 -0.8737
  129OSM   H12G13920   5.171   5.589   7.974 -0.9659  0.9060  1.9200
  129OSM   C13F13921   5.303   5.447   8.055  0.4049  1.0276  1.1483
  129OSM   H13F13922   5.354   5.425   7.959 -0.5302  0.8703  0.6849
  129OSM   H13G13923   5.304   5.358   8.121 -1.3881  1.4099  1.7224
  129OSM   C14F13924   5.387   5.553   8.133 -0.1427  1.0392 -0.0402
  129OSM   H14F13925   5.311   5.584   8.207 -1.5517 -1.2450 -0.4897
  129OSM   H14G13926   5.406   5.644   8.073 -0.7775 -0.3255 -2.3664
  129OSM   C15F13927   5.514   5.504   8.214  0.8906 -0.1970  0.2355
  129OSM   H15F13928   5.597   5.473   8.147 -1.6035 -0.5340 -2.8023
  129OSM   H15G13929   5.479   5.408   8.259  1.4139 -0.8351 -0.7004
  129OSM   C16F13930   5.553   5.612   8.319 -0.5931 -1.6320 -0.0190
  129OSM   H16F13931   5.456   5.652   8.355  0.5671  0.3239  0.9588
  129OSM   H16G13932   5.623   5.689   8.282 -1.2840  0.3964  2.7628
  129OSM   C17F13933   5.608   5.553   8.446  0.4649  0.0762 -0.0204
  129OSM   H17F13934   5.705   5.500   8.434  0.0400 -0.3937 -1.4852
  129OSM   H17G13935   5.530   5.476   8.464 -0.2339  1.2735  2.3541
  129OSM   C18F13936   5.607   5.654   8.560  0.0222 -0.6058  0.9435
  129OSM   H18F13937   5.672   5.740   8.531 -1.6861  0.5583  0.4751
  129OSM   H18G13938   5.658   5.610   8.648  2.2734 -2.2367 -1.0938
  129OSM   H18H13939   5.501   5.685   8.574  0.3793  0.7022  0.8386
  130OSM      N13940   1.236   0.287   6.232 -0.1323  0.2869  0.5420
  130OSM    C1513941   1.085   0.306   6.252  0.4768  0.7859  0.1306
  130OSM   H15A13942   1.029   0.277   6.164  0.6185  0.3298  0.1901
  130OSM   H15B13943   1.066   0.410   6.274 -1.6852  0.4118  0.1261
  130OSM   H15C13944   1.043   0.269   6.344  1.1964 -0.2257  0.0565
  130OSM    C1413945   1.262   0.136   6.229  0.6436 -0.1467 -0.5373
  130OSM   H14A13946   1.229   0.087   6.320  0.5178  0.8292 -0.0470
  130OSM   H14B13947   1.366   0.111   6.212  1.5189  3.0602 -0.1455
  130OSM   H14C13948   1.195   0.094   6.156 -1.6117  1.8086  0.3296
  130OSM    C1313949   1.261   0.339   6.096  0.6295  0.2973 -0.5875
  130OSM   H13A13950   1.204   0.285   6.022 -0.5606  1.3791 -0.4668
  130OSM   H13B13951   1.365   0.327   6.070  0.6975 -0.8022  0.1657
  130OSM   H13C13952   1.242   0.444   6.078  0.2766  0.0061 -1.9673
  130OSM    C1213953   1.316   0.354   6.342 -0.3398 -0.2536  0.4095
  130OSM   H12A13954   1.406   0.388   6.292 -0.5709  0.4954  0.4927
  130OSM   H12B13955   1.347   0.276   6.410  0.2906 -0.8255 -0.5315
  130OSM    C1113956   1.256   0.464   6.425  0.0502 -0.3933  0.5673
  130OSM   H11A13957   1.320   0.506   6.506  0.2344 -0.1429  0.2956
  130OSM   H11B13958   1.166   0.428   6.479 -0.8598  1.8716  0.6070
  130OSM      P13959   1.316   0.663   6.279 -0.1149  0.0718 -0.1137
  130OSM    O1313960   1.456   0.606   6.267 -0.2289  0.0402 -0.8820
  130OSM    O1413961   1.271   0.739   6.161  0.4539 -0.2640  0.0047
  130OSM    O1113962   1.330   0.764   6.393 -0.1490  0.6815  0.5414
  130OSM    O1213963   1.210   0.570   6.337  0.1542  0.8569 -0.2030
  130OSM    C1S13964   1.220   0.823   6.464 -0.2891  0.2221  0.2690
  130OSM    H1S13965   1.121   0.781   6.435  0.2717 -0.6101 -0.4810
  130OSM    H1T13966   1.214   0.932   6.447 -0.7098  0.2062  0.3050
  130OSM     NF13967   1.110   0.835   6.687  0.3062 -0.3923  0.0333
  130OSM    HNF13968   1.111   0.915   6.747 -1.8435  0.1684 -0.6654
  130OSM    C2S13969   1.232   0.790   6.616  0.1814 -0.6185 -0.4490
  130OSM    H2S13970   1.249   0.682   6.634  2.3454  0.2474  3.2736
  130OSM    C3S13971   1.368   0.850   6.674  0.0678 -0.5454  0.4083
  130OSM    H3S13972   1.353   0.960   6.677  1.9950 -0.2917  1.5756
  130OSM     O313973   1.483   0.838   6.589 -0.7056 -0.3358  0.8342
  130OSM    HO313974   1.454   0.786   6.514  0.6953 -1.1081  0.8166
  130OSM    C4S13975   1.394   0.804   6.820  0.1809  0.0920 -0.2547
  130OSM    H4S13976   1.343   0.860   6.900  1.0036  0.3131  0.1145
  130OSM    C5S13977   1.479   0.707   6.862 -0.0891  0.0275  0.2282
  130OSM    H5S13978   1.545   0.664   6.786  2.3197 -0.2398  2.4179
  130OSM    C6S13979   1.502   0.667   7.004  0.0207 -0.9717  0.5879
  130OSM    H6S13980   1.613   0.669   7.016  0.2186  1.4640 -1.2838
  130OSM    H6T13981   1.461   0.565   7.020 -0.4605 -0.7855  0.5417
  130OSM    C7S13982   1.442   0.751   7.118 -0.0242  0.3088 -0.3373
  130OSM    H7S13983   1.334   0.773   7.103  0.8220  2.9572 -2.9288
  130OSM    H7T13984   1.487   0.853   7.115 -1.0812  0.8116  0.6328
  130OSM    C8S13985   1.470   0.687   7.253 -0.7217  0.8410 -0.0291
  130OSM    H8S13986   1.577   0.666   7.275 -1.0864 -2.8311 -1.4995
  130OSM    H8T13987   1.416   0.590   7.249  0.5876  0.1068 -0.2375
  130OSM    C9S13988   1.412   0.761   7.382 -0.6260 -0.1579 -1.2351
  130OSM    H9S13989   1.313   0.805   7.361 -0.7707 -0.5252 -1.3337
  130OSM    H9T13990   1.474   0.848   7.410 -0.1193 -1.4558  1.9107
  130OSM   C10S13991   1.434   0.670   7.504 -0.0770  0.1655 -0.2067
  130OSM   H10S13992   1.537   0.627   7.505  0.0633  0.4639  1.9278
  130OSM   H10T13993   1.369   0.581   7.505 -1.2049  0.9741 -0.8764
  130OSM   C11S13994   1.418   0.748   7.636 -0.1878  0.3817  0.2713
  130OSM   H11S13995   1.324   0.807   7.644 -0.4570 -0.1121  0.7680
  130OSM   H11T13996   1.510   0.810   7.642  0.8075 -1.2220  1.5970
  130OSM   C12S13997   1.408   0.661   7.764  0.6212  0.6386  0.3402
  130OSM   H12S13998   1.495   0.593   7.778  1.0366  0.9031 -0.8816
  130OSM   H12T13999   1.320   0.594   7.747  0.2482  1.0319  0.7017
  130OSM   C13S14000   1.390   0.743   7.884 -0.5796 -0.0671  1.0028
  130OSM   H13S14001   1.301   0.809   7.878 -0.4297 -0.0966 -2.2200
  130OSM   H13T14002   1.476   0.813   7.884 -1.3309  0.8611  0.7832
  130OSM   C14S14003   1.385   0.669   8.016  0.4249 -0.6727  0.1836
  130OSM   H14S14004   1.484   0.620   8.026  0.2282 -0.8388  1.3992
  130OSM   H14T14005   1.303   0.594   8.023 -0.7099  0.5090 -0.1452
  130OSM   C15S14006   1.370   0.758   8.143 -0.4448 -0.6140 -0.1901
  130OSM   H15S14007   1.264   0.755   8.175  0.5915 -0.2964  3.4168
  130OSM   H15T14008   1.397   0.863   8.121 -0.2493 -0.6661 -0.2015
  130OSM   C16S14009   1.446   0.701   8.264  0.2308 -0.1659  0.6670
  130OSM   H16S14010   1.556   0.707   8.252  0.2846 -0.4573  1.0223
  130OSM   H16T14011   1.424   0.593   8.273  1.2508 -0.6899 -2.5960
  130OSM   C17S14012   1.410   0.771   8.399  0.1474  0.4055 -0.1005
  130OSM   H17S14013   1.299   0.760   8.398  0.1897 -0.1985  1.2127
  130OSM   H17T14014   1.426   0.880   8.411  1.9063  0.2326 -0.7830
  130OSM   C18S14015   1.477   0.685   8.504  0.0063  0.3132 -0.2968
  130OSM   H18S14016   1.443   0.580   8.505  1.1146 -0.0460  1.0932
  130OSM   H18T14017   1.434   0.718   8.601  0.3251 -1.9446  0.6380
  130OSM   H18U14018   1.587   0.682   8.520 -0.0645 -0.4090  0.0840
  130OSM    C1F14019   0.989   0.778   6.675 -0.2501  0.2486 -0.4761
  130OSM     OF14020   0.974   0.678   6.602 -0.2385  0.2540  1.0990
  130OSM    C2F14021   0.875   0.834   6.751 -0.5671  0.5454 -0.2581
  130OSM    H2F14022   0.799   0.869   6.679 -0.9595  1.8544  0.7585
  130OSM    H2G14023   0.911   0.933   6.787  1.0237 -0.5706  1.3401
  130OSM    C3F14024   0.813   0.738   6.858 -0.9682 -0.0074  0.6004
  130OSM    H3F14025   0.895   0.715   6.929 -0.1964  0.7402 -0.0406
  130OSM    H3G14026   0.791   0.640   6.809  0.1947  0.1398 -0.2410
  130OSM    C4F14027   0.692   0.797   6.924  0.1517 -0.0519  0.2859
  130OSM    H4F14028   0.607   0.795   6.853  1.0318  0.6366 -0.8088
  130OSM    H4G14029   0.699   0.905   6.949 -2.2713  0.6825 -1.9977
  130OSM    C5F14030   0.658   0.710   7.047 -0.2780  0.1747  0.3315
  130OSM    H5F14031   0.749   0.696   7.109 -0.3641 -1.6103  0.0896
  130OSM    H5G14032   0.625   0.608   7.016  1.5829 -0.3253 -0.0418
  130OSM    C6F14033   0.554   0.777   7.132  0.0971  0.2167 -0.7801
  130OSM    H6F14034   0.466   0.804   7.069 -1.2184 -1.5428  0.2675
  130OSM    H6G14035   0.593   0.869   7.181  0.6049  0.2952 -1.3244
  130OSM    C7F14036   0.504   0.675   7.236 -0.1385  0.2063 -0.2096
  130OSM    H7F14037   0.480   0.581   7.181  1.6400 -0.4256  0.0763
  130OSM    H7G14038   0.409   0.722   7.270 -0.1824  0.1640 -0.2717
  130OSM    C8F14039   0.584   0.642   7.362 -0.3495  0.2172 -0.2921
  130OSM    H8F14040   0.686   0.610   7.330 -0.7610 -0.2962 -1.1175
  130OSM    H8G14041   0.534   0.558   7.414  0.7630 -0.7955 -0.8247
  130OSM    C9F14042   0.586   0.759   7.453 -1.1139 -0.5384 -0.1534
  130OSM    H9F14043   0.647   0.847   7.426  0.7358 -0.9501  2.5369
  130OSM   C10F14044   0.510   0.772   7.563 -0.1222 -0.5362  0.4607
  130OSM   H10F14045   0.513   0.863   7.624 -2.4069 -0.3942  0.4151
  130OSM   C11F14046   0.399   0.682   7.611 -0.0093  0.2735  0.4457
  130OSM   H11F14047   0.340   0.637   7.529 -3.1809  0.8023  2.3443
  130OSM   H11G14048   0.330   0.736   7.679 -0.4019 -1.8640  1.7586
  130OSM   C12F14049   0.464   0.568   7.694  0.1809  0.3178 -0.4972
  130OSM   H12F14050   0.507   0.596   7.793  3.3501 -1.3497 -1.3334
  130OSM   H12G14051   0.546   0.515   7.642  0.6526  2.9220 -2.4946
  130OSM   C13F14052   0.346   0.466   7.721  0.8685  0.2137  0.3071
  130OSM   H13F14053   0.320   0.412   7.627 -1.3964  0.5770  0.7079
  130OSM   H13G14054   0.246   0.506   7.749  0.4250  0.2836 -1.3250
  130OSM   C14F14055   0.376   0.367   7.840  0.4344  0.2774  0.2746
  130OSM   H14F14056   0.479   0.328   7.827  0.2232  0.1845 -1.1391
  130OSM   H14G14057   0.311   0.278   7.843  0.7943 -0.1123 -2.5603
  130OSM   C15F14058   0.371   0.422   7.981  0.8689 -0.2069 -0.1235
  130OSM   H15F14059   0.265   0.433   8.012  0.9952  1.6072 -0.2491
  130OSM   H15G14060   0.413   0.524   7.967  1.0252 -0.5431 -2.2450
  130OSM   C16F14061   0.457   0.348   8.083  0.2281 -0.2862 -0.6271
  130OSM   H16F14062   0.445   0.411   8.174  0.6968 -1.6045  0.3891
  130OSM   H16G14063   0.566   0.336   8.064  0.5103 -0.0308  0.7872
  130OSM   C17F14064   0.396   0.214   8.132  0.2144  0.1196  0.0677
  130OSM   H17F14065   0.401   0.142   8.047 -1.1574  0.0701  0.0136
  130OSM   H17G14066   0.287   0.226   8.143  0.1524 -0.7104  0.4126
  130OSM   C18F14067   0.461   0.144   8.253 -0.7422  0.3650 -0.8882
  130OSM   H18F14068   0.415   0.044   8.267 -1.0145  0.8786  2.3620
  130OSM   H18G14069   0.439   0.205   8.343 -0.6925 -0.7305 -0.1214
  130OSM   H18H14070   0.571   0.136   8.248 -0.7818  0.3451 -1.8200
  131OSM      N14071   5.735   3.838   5.760  0.1126  0.1872  0.1860
  131OSM    C1514072   5.854   3.823   5.846  0.1196 -0.1420  0.2833
  131OSM   H15A14073   5.834   3.849   5.949  0.4601  1.2193  0.0091
  131OSM   H15B14074   5.925   3.892   5.804 -1.1899  1.1907  0.2059
  131OSM   H15C14075   5.907   3.730   5.834 -0.2551 -0.1482 -1.4646
  131OSM    C1414076   5.703   3.990   5.754  0.0235 -0.6668  0.0211
  131OSM   H14A14077   5.664   4.018   5.851 -0.6670 -1.9464  0.1188
  131OSM   H14B14078   5.633   4.010   5.675 -0.6632 -3.0030  0.0155
  131OSM   H14C14079   5.798   4.038   5.738 -1.1762  2.2589  1.3230
  131OSM    C1314080   5.766   3.794   5.622 -0.1373 -0.2636  1.2948
  131OSM   H13A14081   5.844   3.856   5.580 -0.7002 -1.8604 -2.3004
  131OSM   H13B14082   5.682   3.790   5.555  0.9048 -1.2526  0.0232
  131OSM   H13C14083   5.810   3.695   5.621  1.0801  0.2809 -0.1718
  131OSM    C1214084   5.606   3.787   5.812 -0.3638  0.3929 -0.2620
  131OSM   H12A14085   5.611   3.679   5.801  1.4512  0.6607 -2.3012
  131OSM   H12B14086   5.519   3.819   5.758 -0.7543 -0.3200 -0.0652
  131OSM    C1114087   5.576   3.809   5.967 -0.0532  0.0156  0.1150
  131OSM   H11A14088   5.650   3.746   6.021 -0.9014  1.8609  3.5892
  131OSM   H11B14089   5.481   3.756   5.989 -0.7320  1.1348 -0.0430
  131OSM      P14090   5.441   4.029   6.019 -0.0301 -0.0624  0.1884
  131OSM    O1314091   5.479   4.163   6.068 -0.1164 -0.5317  0.1789
  131OSM    O1414092   5.360   4.026   5.897 -0.6383 -0.2523  0.1744
  131OSM    O1114093   5.374   3.946   6.136  0.1480  0.4927  0.3850
  131OSM    O1214094   5.579   3.948   6.000  0.0948 -0.3488 -0.0046
  131OSM    C1S14095   5.421   3.967   6.274 -0.1034  0.5666 -0.2744
  131OSM    H1S14096   5.409   4.073   6.303 -2.8741  0.5697 -1.3042
  131OSM    H1T14097   5.531   3.949   6.280  0.0867  1.8987  0.3156
  131OSM     NF14098   5.389   3.921   6.518  0.3457 -0.3650  0.2887
  131OSM    HNF14099   5.442   3.850   6.564 -0.9434 -2.1899 -0.9736
  131OSM    C2S14100   5.349   3.885   6.381 -0.1446  0.4037 -0.4373
  131OSM    H2S14101   5.239   3.894   6.368  0.1261  2.7002 -1.3447
  131OSM    C3S14102   5.381   3.734   6.343 -0.4355 -0.0515 -0.2526
  131OSM    H3S14103   5.489   3.714   6.361 -0.5138 -3.2846 -2.8256
  131OSM     O314104   5.363   3.698   6.212  0.3478  0.8484  0.5156
  131OSM    HO314105   5.329   3.781   6.179 -0.9106 -0.1916 -0.8832
  131OSM    C4S14106   5.295   3.649   6.426  0.1512  0.2744  0.3590
  131OSM    H4S14107   5.199   3.700   6.438  0.7375  1.8797 -1.6108
  131OSM    C5S14108   5.325   3.542   6.500  0.4535  0.0975 -0.8589
  131OSM    H5S14109   5.430   3.517   6.518 -0.2553 -1.5840  1.1978
  131OSM    C6S14110   5.220   3.459   6.579  0.1336 -0.1099  0.1975
  131OSM    H6S14111   5.218   3.354   6.541  0.8744 -0.2887  0.6500
  131OSM    H6T14112   5.117   3.500   6.569  0.4041  0.5527  0.1301
  131OSM    C7S14113   5.262   3.447   6.723  0.2046 -0.5012 -0.5028
  131OSM    H7S14114   5.371   3.424   6.727  0.9530  2.0430 -3.3724
  131OSM    H7T14115   5.205   3.368   6.776  1.6651 -0.8181  0.6178
  131OSM    C8S14116   5.250   3.576   6.811  0.6214 -0.1953 -0.4905
  131OSM    H8S14117   5.145   3.611   6.815 -0.2078 -2.8142  1.3734
  131OSM    H8T14118   5.319   3.648   6.762  2.2174 -0.3089  1.4820
  131OSM    C9S14119   5.305   3.543   6.949 -0.3229  0.8094 -0.2365
  131OSM    H9S14120   5.407   3.500   6.953  0.7538  3.4670  2.7469
  131OSM    H9T14121   5.246   3.469   7.008 -0.7983 -0.3449 -2.1119
  131OSM   C10S14122   5.334   3.664   7.030 -0.3931 -0.8197  0.5295
  131OSM   H10S14123   5.312   3.652   7.138  0.8269 -0.1641  0.8631
  131OSM   H10T14124   5.259   3.727   6.977 -0.7306 -1.7065 -0.0416
  131OSM   C11S14125   5.466   3.740   7.019 -0.4316  0.0093 -0.6052
  131OSM   H11S14126   5.452   3.846   7.048 -1.6637 -0.2283 -0.2948
  131OSM   H11T14127   5.487   3.731   6.910 -0.4897  0.8448 -0.6892
  131OSM   C12S14128   5.584   3.684   7.098  0.3184 -0.6838 -0.6379
  131OSM   H12S14129   5.609   3.579   7.071  0.9844 -0.1019 -2.3537
  131OSM   H12T14130   5.558   3.665   7.204 -0.1167 -2.2105 -0.9972
  131OSM   C13S14131   5.711   3.770   7.076 -0.2698  0.2879 -0.0164
  131OSM   H13S14132   5.682   3.877   7.082  0.4107  0.4531  0.3524
  131OSM   H13T14133   5.764   3.754   6.979  1.5355  2.0322  0.6591
  131OSM   C14S14134   5.808   3.733   7.190 -0.0704 -0.7691  0.1694
  131OSM   H14S14135   5.903   3.789   7.181  0.4093 -1.0994  2.6435
  131OSM   H14T14136   5.832   3.625   7.201  3.1263  0.1738  3.5637
  131OSM   C15S14137   5.762   3.770   7.332 -0.1496 -0.8815 -0.3192
  131OSM   H15S14138   5.678   3.717   7.381 -0.9204  0.8879  0.3123
  131OSM   H15T14139   5.732   3.877   7.332  1.3983 -0.4327 -0.3057
  131OSM   C16S14140   5.880   3.760   7.434  0.1791 -0.2548 -0.5627
  131OSM   H16S14141   5.976   3.780   7.383  0.9953 -2.9978 -0.1836
  131OSM   H16T14142   5.888   3.656   7.471  0.3576  0.1619  0.6148
  131OSM   C17S14143   5.863   3.852   7.561 -0.3296 -0.4419  0.7735
  131OSM   H17S14144   5.781   3.797   7.612 -0.3570 -1.7502 -0.6167
  131OSM   H17T14145   5.833   3.955   7.531  0.2812 -0.7640 -1.0266
  131OSM   C18S14146   5.978   3.859   7.656  0.3035  0.1182 -0.6725
  131OSM   H18S14147   5.964   3.902   7.757 -1.3019  3.1398 -2.1231
  131OSM   H18T14148   6.055   3.920   7.604  0.7916 -0.1423 -0.2591
  131OSM   H18U14149   6.018   3.756   7.666  1.7519  0.7756  0.4248
  131OSM    C1F14150   5.343   4.023   6.592 -0.5630 -0.1296  0.0582
  131OSM     OF14151   5.283   4.111   6.532 -0.2602 -0.0681 -0.2151
  131OSM    C2F14152   5.382   4.030   6.738  0.3053  0.0535  0.8656
  131OSM    H2F14153   5.483   4.075   6.747 -0.2905  1.8938 -1.3195
  131OSM    H2G14154   5.378   3.927   6.780 -1.5445  0.4974  1.8381
  131OSM    C3F14155   5.273   4.117   6.814 -0.1993 -0.9100 -0.2477
  131OSM    H3F14156   5.174   4.069   6.800 -2.2054  3.5066 -2.2069
  131OSM    H3G14157   5.274   4.219   6.770 -0.9540 -0.7063  0.1972
  131OSM    C4F14158   5.304   4.121   6.960  0.5232  0.4323 -0.4661
  131OSM    H4F14159   5.295   4.018   7.002 -3.1976  0.5051 -0.9266
  131OSM    H4G14160   5.214   4.170   7.003  1.4599 -0.3084  2.4538
  131OSM    C5F14161   5.423   4.217   7.003  0.1231  0.0753 -0.6790
  131OSM    H5F14162   5.410   4.313   6.949 -1.6305  1.0731  1.4216
  131OSM    H5G14163   5.523   4.173   6.986 -0.7451 -2.4298  0.3917
  131OSM    C6F14164   5.409   4.268   7.146 -0.5772 -0.7332 -0.1902
  131OSM    H6F14165   5.338   4.353   7.159  1.7442  1.0324  1.2755
  131OSM    H6G14166   5.504   4.314   7.180 -2.4581  4.1229 -1.1109
  131OSM    C7F14167   5.380   4.165   7.259  0.7107  0.1346 -0.6142
  131OSM    H7F14168   5.288   4.106   7.238 -0.0740  1.6639 -1.5971
  131OSM    H7G14169   5.352   4.217   7.353  0.4714 -0.1076 -0.5514
  131OSM    C8F14170   5.487   4.062   7.283 -0.0548 -0.1662 -1.2232
  131OSM    H8F14171   5.533   4.010   7.196 -2.7222 -0.4038 -2.5377
  131OSM    H8G14172   5.456   3.978   7.350 -1.2090  0.4483 -0.9902
  131OSM    C9F14173   5.600   4.143   7.346 -0.2078 -0.3781 -0.0008
  131OSM    H9F14174   5.658   4.211   7.283 -0.4139 -0.5518 -0.3801
  131OSM   C10F14175   5.620   4.146   7.478 -0.0005  0.4741 -0.4624
  131OSM   H10F14176   5.695   4.216   7.519  0.4570 -0.4929  0.3545
  131OSM   C11F14177   5.540   4.078   7.592  0.1190 -0.3296 -0.7464
  131OSM   H11F14178   5.598   4.002   7.649 -1.3578  0.1564  1.4737
  131OSM   H11G14179   5.444   4.033   7.559  0.7686 -1.4464 -1.1542
  131OSM   C12F14180   5.507   4.196   7.697  0.3087  0.5886 -0.2960
  131OSM   H12F14181   5.491   4.291   7.641  0.5324 -0.0499 -1.4703
  131OSM   H12G14182   5.596   4.211   7.761  0.5951  2.1380 -1.0348
  131OSM   C13F14183   5.404   4.169   7.802 -0.3468  0.7087 -0.2097
  131OSM   H13F14184   5.308   4.164   7.747 -0.3062  0.6952 -0.2798
  131OSM   H13G14185   5.391   4.266   7.855  1.1459  1.8058 -1.7617
  131OSM   C14F14186   5.427   4.045   7.893  0.2682 -0.4502  0.4683
  131OSM   H14F14187   5.467   3.954   7.842 -0.7104 -0.2757 -0.6480
  131OSM   H14G14188   5.325   4.014   7.924  0.4225 -0.0629  1.3770
  131OSM   C15F14189   5.497   4.069   8.022  0.1156  0.0802  0.0380
  131OSM   H15F14190   5.594   4.117   7.997 -0.5634 -0.1458 -3.2294
  131OSM   H15G14191   5.518   3.972   8.072  2.2386 -0.5656 -2.0202
  131OSM   C16F14192   5.415   4.148   8.130 -0.1725 -0.7549 -0.4216
  131OSM   H16F14193   5.320   4.090   8.135 -0.6194  0.1256  2.2794
  131OSM   H16G14194   5.405   4.249   8.083  0.7585 -0.6786 -0.4719
  131OSM   C17F14195   5.481   4.166   8.269 -1.0995  0.0292 -0.1596
  131OSM   H17F14196   5.499   4.062   8.305 -0.9756  0.4507  1.0413
  131OSM   H17G14197   5.399   4.206   8.333  0.3209  1.1435  1.0178
  131OSM   C18F14198   5.602   4.265   8.286 -0.4087  0.7982  0.1901
  131OSM   H18F14199   5.581   4.374   8.279  0.6048  1.0563  1.0443
  131OSM   H18G14200   5.674   4.241   8.205  0.9522  0.2853  1.5080
  131OSM   H18H14201   5.651   4.259   8.386  2.6437  1.3088 -1.2060
  132OSM      N14202   0.152   5.070   6.422  0.1224  0.0056 -0.1413
  132OSM    C1514203   0.084   5.191   6.363  0.9173  0.1340 -0.2928
  132OSM   H15A14204   0.024   5.173   6.275  0.2761 -0.7554  0.3187
  132OSM   H15B14205   0.154   5.264   6.325  2.6009 -1.2035  0.2077
  132OSM   H15C14206   0.021   5.246   6.431  2.6288 -0.0709  1.4904
  132OSM    C1414207   0.230   5.127   6.532 -0.1143 -0.2265  0.2195
  132OSM   H14A14208   0.308   5.189   6.490 -0.6592 -0.1394 -0.6660
  132OSM   H14B14209   0.282   5.054   6.593  1.0937  0.7823  0.4178
  132OSM   H14C14210   0.175   5.193   6.597 -0.2616  1.5834 -1.6815
  132OSM    C1314211   0.046   4.983   6.483 -0.2540  0.0891 -0.4686
  132OSM   H13A14212  -0.031   5.043   6.529  0.0128  0.7201 -0.8296
  132OSM   H13B14213   0.089   4.904   6.543  0.2924  1.2650  0.7114
  132OSM   H13C14214  -0.002   4.937   6.398  1.0419 -0.7690 -0.7483
  132OSM    C1214215   0.233   4.996   6.319 -0.1174  0.3001  0.3157
  132OSM   H12A14216   0.308   5.061   6.276  0.6712 -1.1410 -0.5315
  132OSM   H12B14217   0.163   4.968   6.242  0.2410 -0.4877  0.2735
  132OSM    C1114218   0.302   4.862   6.357  0.1533 -0.4528 -0.0619
  132OSM   H11A14219   0.337   4.805   6.269  0.6407 -1.4883  0.7863
  132OSM   H11B14220   0.225   4.796   6.403 -1.1785 -0.7658 -2.6708
  132OSM      P14221   0.555   4.890   6.417  0.7690  0.2773 -0.2340
  132OSM    O1314222   0.610   4.763   6.372 -0.3403  0.4063 -0.5066
  132OSM    O1414223   0.562   4.999   6.316  0.2971  0.5733  0.1306
  132OSM    O1114224   0.637   4.947   6.542 -0.3233  0.1042 -0.3723
  132OSM    O1214225   0.405   4.877   6.454 -0.0922  0.1088 -0.3170
  132OSM    C1S14226   0.633   4.871   6.662  0.1612  0.2111 -0.6190
  132OSM    H1S14227   0.702   4.786   6.646 -0.5171 -0.2035 -1.3798
  132OSM    H1T14228   0.530   4.834   6.682  0.6327 -1.8099 -1.8150
  132OSM     NF14229   0.730   4.874   6.895  0.2418 -0.4026  0.2616
  132OSM    HNF14230   0.656   4.853   6.959 -1.6118  2.0262 -0.9690
  132OSM    C2S14231   0.681   4.960   6.783  0.0752  0.2651  0.5479
  132OSM    H2S14232   0.767   5.027   6.760 -0.6197  0.3653 -1.8069
  132OSM    C3S14233   0.557   5.039   6.837 -0.0409  0.0514  0.3831
  132OSM    H3S14234   0.479   4.969   6.872 -1.9254  2.0142  0.2425
  132OSM     O314235   0.487   5.104   6.732  0.2406  0.3137  0.1475
  132OSM    HO314236   0.520   5.068   6.649 -0.8431  1.2592 -0.7263
  132OSM    C4S14237   0.589   5.141   6.946 -0.3002  0.0141 -0.2699
  132OSM    H4S14238   0.633   5.235   6.907  0.9127 -0.0678  0.8748
  132OSM    C5S14239   0.564   5.132   7.074  0.4260 -0.3966 -0.0778
  132OSM    H5S14240   0.514   5.044   7.118  0.2308 -1.1397 -1.7278
  132OSM    C6S14241   0.616   5.240   7.164 -0.4050  0.1150  0.2642
  132OSM    H6S14242   0.550   5.312   7.218 -1.0898 -1.1073  1.0764
  132OSM    H6T14243   0.678   5.312   7.106 -0.6484  0.0627 -0.0609
  132OSM    C7S14244   0.697   5.173   7.280  0.2492  0.0939 -0.2384
  132OSM    H7S14245   0.787   5.127   7.235  0.8605  0.6593  0.3877
  132OSM    H7T14246   0.639   5.096   7.335 -1.2127  2.3880  1.5259
  132OSM    C8S14247   0.738   5.270   7.387 -0.2156 -0.2267  0.2221
  132OSM    H8S14248   0.656   5.323   7.440 -0.0334 -1.0767  1.3900
  132OSM    H8T14249   0.805   5.343   7.337 -0.9181 -0.6643 -1.3715
  132OSM    C9S14250   0.825   5.209   7.503 -0.0199 -0.1411 -0.2650
  132OSM    H9S14251   0.903   5.147   7.454  0.2311 -1.1522  1.3612
  132OSM    H9T14252   0.769   5.142   7.572  1.6454 -1.2670  0.0251
  132OSM   C10S14253   0.892   5.313   7.590  0.6467  0.3752  0.3680
  132OSM   H10S14254   0.813   5.380   7.630  0.6816  1.0341 -0.6296
  132OSM   H10T14255   0.967   5.374   7.536  1.4600  0.1347  1.2215
  132OSM   C11S14256   0.969   5.239   7.708 -0.1723 -0.5448 -0.1291
  132OSM   H11S14257   1.056   5.190   7.661  0.1986  0.6240 -0.6783
  132OSM   H11T14258   0.898   5.162   7.744  0.1209  0.1490  2.0219
  132OSM   C12S14259   1.001   5.329   7.826 -0.7496 -0.3160  0.4961
  132OSM   H12S14260   0.913   5.393   7.848 -0.6580 -0.2001  0.5195
  132OSM   H12T14261   1.092   5.386   7.797 -0.1822 -1.9948 -1.1233
  132OSM   C13S14262   1.041   5.255   7.955  0.2573 -0.7701 -0.3023
  132OSM   H13S14263   1.095   5.332   8.015 -3.7661 -0.1335  2.6670
  132OSM   H13T14264   1.124   5.182   7.940  1.0021  0.0416 -0.1957
  132OSM   C14S14265   0.927   5.192   8.033  0.6386  0.6590 -0.9816
  132OSM   H14S14266   0.877   5.110   7.978  1.8584 -1.3074  0.7503
  132OSM   H14T14267   0.843   5.261   8.057  1.2639  0.2914  2.5707
  132OSM   C15S14268   0.968   5.120   8.164  0.0723 -0.5007  0.4864
  132OSM   H15S14269   1.057   5.173   8.204  0.6952 -1.5128  0.4642
  132OSM   H15T14270   1.003   5.017   8.141 -0.2026 -0.2479 -1.0988
  132OSM   C16S14271   0.854   5.123   8.267  0.0293  0.4847 -0.1114
  132OSM   H16S14272   0.763   5.078   8.223  1.4623 -3.0908  0.4063
  132OSM   H16T14273   0.845   5.231   8.293  1.6529  0.7086 -0.4353
  132OSM   C17S14274   0.888   5.053   8.396 -0.2782  0.0212 -0.1636
  132OSM   H17S14275   0.808   5.071   8.471  1.0054 -0.1605  1.2507
  132OSM   H17T14276   0.978   5.095   8.445  0.0804  0.0368 -0.8204
  132OSM   C18S14277   0.918   4.902   8.387 -0.0149 -0.5184 -0.2505
  132OSM   H18S14278   0.902   4.854   8.486  1.2820  1.2685  0.8533
  132OSM   H18T14279   1.026   4.896   8.363  0.0341 -0.1357 -0.1300
  132OSM   H18U14280   0.847   4.849   8.320 -1.7631 -1.0163  1.9225
  132OSM    C1F14281   0.860   4.842   6.902 -0.1228 -0.0881  0.7886
  132OSM     OF14282   0.934   4.874   6.809  0.1407 -0.0512 -0.1089
  132OSM    C2F14283   0.906   4.768   7.028  0.4318 -1.2060  0.4170
  132OSM    H2F14284   1.017   4.773   7.032  0.3854  2.3000 -0.9397
  132OSM    H2G14285   0.863   4.666   7.013  0.0132 -1.0083  0.2505
  132OSM    C3F14286   0.861   4.839   7.157  0.2113 -0.5734 -0.2357
  132OSM    H3F14287   0.752   4.826   7.175 -0.2043  1.9137 -0.8011
  132OSM    H3G14288   0.879   4.949   7.151 -0.6378 -0.3563  1.1060
  132OSM    C4F14289   0.938   4.786   7.280 -0.5082 -0.2988  0.4619
  132OSM    H4F14290   1.044   4.816   7.269 -0.5517 -0.2448  0.1717
  132OSM    H4G14291   0.939   4.676   7.261  0.7451  0.2925 -3.4179
  132OSM    C5F14292   0.867   4.823   7.413 -0.3116 -0.3671  0.1053
  132OSM    H5F14293   0.778   4.758   7.431 -0.0009 -1.4058 -1.9451
  132OSM    H5G14294   0.844   4.931   7.403 -0.1387 -0.1434  1.9826
  132OSM    C6F14295   0.954   4.796   7.535 -0.3606  0.4181  0.3890
  132OSM    H6F14296   1.044   4.861   7.528  0.8612 -1.2427  0.1526
  132OSM    H6G14297   1.001   4.696   7.522  2.4234  1.7987 -0.5617
  132OSM    C7F14298   0.876   4.824   7.668  0.2068 -0.3271  0.2048
  132OSM    H7F14299   0.782   4.766   7.657 -0.0374  0.0958  0.0548
  132OSM    H7G14300   0.835   4.927   7.661 -2.2029 -1.2463  0.1810
  132OSM    C8F14301   0.941   4.794   7.802 -0.4263 -0.3414 -0.0313
  132OSM    H8F14302   1.022   4.869   7.815 -0.5184  0.3467 -2.9802
  132OSM    H8G14303   0.992   4.696   7.786 -2.1518 -0.8603 -2.9608
  132OSM    C9F14304   0.846   4.794   7.922 -0.3633 -0.9401  0.2270
  132OSM    H9F14305   0.819   4.892   7.963  0.1348 -0.8631  0.3622
  132OSM   C10F14306   0.787   4.687   7.975  0.4734  0.5553  0.1535
  132OSM   H10F14307   0.721   4.709   8.059 -0.6348 -0.9795 -0.2808
  132OSM   C11F14308   0.801   4.540   7.931 -0.5237 -0.2963  0.0256
  132OSM   H11F14309   0.888   4.500   7.987 -0.8974 -2.8975 -1.2030
  132OSM   H11G14310   0.837   4.535   7.826  1.5723  1.8682  0.5764
  132OSM   C12F14311   0.679   4.457   7.974 -0.1123 -0.2900 -0.2795
  132OSM   H12F14312   0.591   4.489   7.916 -0.6064 -0.5076  0.3464
  132OSM   H12G14313   0.658   4.477   8.082 -1.2306 -0.7230 -0.4117
  132OSM   C13F14314   0.686   4.307   7.938 -0.6109  0.5514  0.6381
  132OSM   H13F14315   0.582   4.273   7.958 -0.4032 -0.3901  0.1817
  132OSM   H13G14316   0.753   4.264   8.015 -0.9658  0.2946  0.8066
  132OSM   C14F14317   0.714   4.281   7.791 -0.4064  0.7218 -0.5549
  132OSM   H14F14318   0.730   4.173   7.772 -1.1151  0.2338  1.4757
  132OSM   H14G14319   0.815   4.327   7.782  0.4814 -0.6378  2.0538
  132OSM   C15F14320   0.608   4.325   7.683 -0.1528  0.8684 -0.1657
  132OSM   H15F14321   0.593   4.435   7.685 -1.7875  0.6719 -1.2314
  132OSM   H15G14322   0.507   4.279   7.689  1.4279 -2.8219 -0.3527
  132OSM   C16F14323   0.658   4.296   7.539 -0.2203 -0.4623  0.2281
  132OSM   H16F14324   0.679   4.187   7.533 -1.2597 -0.6256 -0.5020
  132OSM   H16G14325   0.750   4.355   7.520 -2.6307  3.3723  0.0587
  132OSM   C17F14326   0.540   4.333   7.437 -0.5298 -0.5886  0.3318
  132OSM   H17F14327   0.521   4.436   7.471  0.6723 -0.0277 -0.6367
  132OSM   H17G14328   0.455   4.265   7.458 -1.9595  1.2287  0.4810
  132OSM   C18F14329   0.575   4.342   7.290 -0.3234  0.1571  0.0226
  132OSM   H18F14330   0.666   4.406   7.294 -0.8240  0.7743  2.0530
  132OSM   H18G14331   0.496   4.388   7.228  1.4066  1.8451 -0.9635
  132OSM   H18H14332   0.589   4.243   7.242  3.0442 -0.1456  1.4653
  133OSM      N14333   2.186   4.819   6.062 -0.3987  0.2391 -0.6160
  133OSM    C1514334   2.279   4.707   6.099 -0.2148  0.4506 -0.5303
  133OSM   H15A14335   2.224   4.620   6.130 -0.7993  0.5592 -1.2573
  133OSM   H15B14336   2.349   4.745   6.172 -1.0707  0.2445  0.4007
  133OSM   H15C14337   2.342   4.674   6.017  0.0947 -0.6747  0.1525
  133OSM    C1414338   2.254   4.933   5.991 -0.5203 -0.5842  0.6523
  133OSM   H14A14339   2.311   4.890   5.910  2.3982  2.0545  1.2088
  133OSM   H14B14340   2.324   4.984   6.055  0.6677 -0.6166 -0.5969
  133OSM   H14C14341   2.190   5.013   5.957 -0.8692 -1.1403 -0.0115
  133OSM    C1314342   2.087   4.763   5.969  0.6483 -0.0702  0.9921
  133OSM   H13A14343   2.128   4.711   5.883  3.1926  0.2975  1.9392
  133OSM   H13B14344   2.014   4.833   5.932 -0.1583 -1.2239  0.3519
  133OSM   H13C14345   2.030   4.689   6.023  1.6212 -1.3502  0.3153
  133OSM    C1214346   2.120   4.866   6.188 -0.1313  0.2614  0.4903
  133OSM   H12A14347   2.040   4.936   6.168  0.4099  0.6099 -0.4717
  133OSM   H12B14348   2.193   4.928   6.238  0.4941 -0.2842  0.2573
  133OSM    C1114349   2.064   4.769   6.297 -0.0517  0.3008 -0.1078
  133OSM   H11A14350   2.023   4.820   6.386  0.8688 -0.2250  0.6279
  133OSM   H11B14351   2.157   4.730   6.344  0.6185  0.0530 -1.6024
  133OSM      P14352   1.825   4.690   6.231 -0.4911 -0.4230  0.5570
  133OSM    O1314353   1.804   4.811   6.145  0.3920  0.2178 -0.2757
  133OSM    O1414354   1.765   4.560   6.201 -0.0764 -0.4170 -0.7509
  133OSM    O1114355   1.791   4.742   6.375 -0.3238 -0.3514  0.0827
  133OSM    O1214356   1.982   4.669   6.238  0.2817 -0.3439  0.3809
  133OSM    C1S14357   1.739   4.643   6.467 -0.0421  0.2715  0.9248
  133OSM    H1S14358   1.800   4.550   6.472  1.0166  0.7842 -1.7951
  133OSM    H1T14359   1.638   4.609   6.435  0.7732  0.6677 -2.3007
  133OSM     NF14360   1.649   4.590   6.693  0.1860 -0.5496  0.1598
  133OSM    HNF14361   1.552   4.600   6.711 -0.5033 -1.3120 -2.9253
  133OSM    C2S14362   1.711   4.698   6.611 -0.0782 -0.6460 -0.7969
  133OSM    H2S14363   1.802   4.738   6.661 -0.6656  0.3780 -0.5304
  133OSM    C3S14364   1.619   4.829   6.601 -0.2483 -0.0181 -0.3895
  133OSM    H3S14365   1.523   4.803   6.552 -2.1494  0.9226  2.6935
  133OSM     O314366   1.670   4.928   6.517  0.2465  0.1795 -0.3098
  133OSM    HO314367   1.726   4.869   6.467  0.0190  0.0854 -0.4581
  133OSM    C4S14368   1.578   4.882   6.740 -0.0611  0.0216 -0.2944
  133OSM    H4S14369   1.655   4.932   6.801  0.1723  0.1298 -0.6798
  133OSM    C5S14370   1.451   4.878   6.788 -0.1677  0.3218  0.3851
  133OSM    H5S14371   1.362   4.837   6.738  1.0513 -1.2554 -0.5382
  133OSM    C6S14372   1.420   4.937   6.924 -0.4579 -0.4021 -0.0213
  133OSM    H6S14373   1.389   5.043   6.906 -0.3991 -0.5086 -0.7695
  133OSM    H6T14374   1.514   4.942   6.983  0.6909  2.1037 -1.9346
  133OSM    C7S14375   1.320   4.845   6.998 -0.2396  0.1909 -1.0334
  133OSM    H7S14376   1.228   4.809   6.947 -0.5962 -2.7410  1.5028
  133OSM    H7T14377   1.289   4.922   7.071  2.4374  0.6249 -0.2898
  133OSM    C8S14378   1.390   4.727   7.074 -0.1447 -0.0188  0.0454
  133OSM    H8S14379   1.484   4.773   7.110  1.4076 -0.6982 -3.0106
  133OSM    H8T14380   1.426   4.648   7.005 -1.3934 -0.8544  0.3319
  133OSM    C9S14381   1.319   4.676   7.205 -0.1515  0.4017 -0.0466
  133OSM    H9S14382   1.353   4.573   7.225  0.0977  0.5407  0.2458
  133OSM    H9T14383   1.208   4.682   7.192 -0.3817 -0.7104  1.3273
  133OSM   C10S14384   1.350   4.750   7.328 -0.1226 -0.5297 -0.2798
  133OSM   H10S14385   1.311   4.853   7.314 -0.4483 -0.4312  1.2988
  133OSM   H10T14386   1.461   4.753   7.338 -0.0262 -1.7241 -0.8834
  133OSM   C11S14387   1.311   4.671   7.459 -0.3768  0.1293 -0.2486
  133OSM   H11S14388   1.333   4.563   7.443 -3.3172 -0.3851 -1.1231
  133OSM   H11T14389   1.203   4.692   7.473 -0.1695 -0.7015  3.0945
  133OSM   C12S14390   1.376   4.717   7.588  0.0264  0.6329 -0.6435
  133OSM   H12S14391   1.350   4.824   7.602 -2.5880 -0.1936  1.2083
  133OSM   H12T14392   1.485   4.697   7.574 -0.0848 -0.5453  0.0835
  133OSM   C13S14393   1.324   4.636   7.705 -0.6194  0.7320 -0.9369
  133OSM   H13S14394   1.359   4.531   7.700  1.0276  1.0315  2.6984
  133OSM   H13T14395   1.214   4.643   7.719 -0.3192 -0.6026  2.5428
  133OSM   C14S14396   1.393   4.685   7.836 -0.3334 -1.0266  0.4994
  133OSM   H14S14397   1.381   4.795   7.839 -0.9568 -1.0774 -0.1262
  133OSM   H14T14398   1.503   4.666   7.835 -0.3571 -1.1513  0.1898
  133OSM   C15S14399   1.348   4.617   7.967  0.3760  0.1200  0.3431
  133OSM   H15S14400   1.409   4.525   7.965  1.9576  1.1398  0.3361
  133OSM   H15T14401   1.242   4.589   7.951  0.5495  0.8105 -2.1746
  133OSM   C16S14402   1.369   4.707   8.091  0.0065  0.3441 -0.2286
  133OSM   H16S14403   1.348   4.809   8.052 -0.2440  0.2406 -0.3630
  133OSM   H16T14404   1.475   4.711   8.122 -0.0059  1.9913 -0.3204
  133OSM   C17S14405   1.270   4.677   8.199 -0.8194  0.6064 -0.8557
  133OSM   H17S14406   1.175   4.640   8.154 -1.1263 -0.3135  0.4922
  133OSM   H17T14407   1.255   4.771   8.256  2.4093  0.3377  0.5597
  133OSM   C18S14408   1.311   4.562   8.285  0.8276 -0.1032  0.0856
  133OSM   H18S14409   1.349   4.474   8.229  2.3010  2.1266 -2.5621
  133OSM   H18T14410   1.224   4.535   8.348  1.1530 -1.1781  0.0788
  133OSM   H18U14411   1.387   4.597   8.359  1.3307 -0.6246 -0.1733
  133OSM    C1F14412   1.711   4.469   6.715  0.2286 -0.2620 -0.1201
  133OSM     OF14413   1.830   4.454   6.677  0.0061  0.3686 -0.1153
  133OSM    C2F14414   1.630   4.367   6.776 -0.3892 -0.6012 -0.1581
  133OSM    H2F14415   1.603   4.292   6.698  0.3377 -0.6797 -0.3401
  133OSM    H2G14416   1.530   4.401   6.810 -0.0251  1.2701 -0.8699
  133OSM    C3F14417   1.703   4.298   6.903  0.2029 -0.5780  0.5569
  133OSM    H3F14418   1.683   4.373   6.983 -1.2867  0.7741 -1.0376
  133OSM    H3G14419   1.812   4.283   6.895  0.3056 -0.0552  0.9323
  133OSM    C4F14420   1.631   4.165   6.949  0.3995 -0.6260 -0.3130
  133OSM    H4F14421   1.697   4.106   7.015  0.6101 -0.0952 -0.0470
  133OSM    H4G14422   1.607   4.100   6.861  2.9972 -2.6186  0.3961
  133OSM    C5F14423   1.506   4.195   7.034  0.6639 -0.0837 -0.1132
  133OSM    H5F14424   1.447   4.101   7.030 -0.3979  0.4453  2.5233
  133OSM    H5G14425   1.455   4.275   6.976  1.4607 -0.1145 -0.8808
  133OSM    C6F14426   1.528   4.233   7.178  0.1827  0.2950  0.2556
  133OSM    H6F14427   1.424   4.238   7.216 -0.0354 -0.5195 -0.2290
  133OSM    H6G14428   1.561   4.337   7.203  2.9471 -0.1111 -1.4749
  133OSM    C7F14429   1.608   4.133   7.262  0.3091  0.2285 -0.0009
  133OSM    H7F14430   1.716   4.154   7.244  0.0425 -0.8996 -3.2872
  133OSM    H7G14431   1.597   4.026   7.234 -2.3104  0.4765 -0.0780
  133OSM    C8F14432   1.571   4.140   7.410  0.7637 -0.8366  0.2494
  133OSM    H8F14433   1.603   4.044   7.457 -0.7499 -2.0163 -1.0718
  133OSM    H8G14434   1.460   4.143   7.413  0.6320  2.4377 -3.1741
  133OSM    C9F14435   1.631   4.259   7.469  0.2573 -0.8212 -1.0082
  133OSM    H9F14436   1.669   4.338   7.403  1.0719  0.6901  1.2041
  133OSM   C10F14437   1.655   4.270   7.604 -0.0895 -0.6299  0.5698
  133OSM   H10F14438   1.711   4.362   7.629  1.5062 -0.8260 -2.0629
  133OSM   C11F14439   1.626   4.168   7.712  0.1707  0.3556 -0.0570
  133OSM   H11F14440   1.710   4.096   7.725 -1.6294 -1.4674  2.0678
  133OSM   H11G14441   1.547   4.103   7.667 -0.4228  0.6979  0.4691
  133OSM   C12F14442   1.591   4.217   7.860 -0.8322  0.2915  0.0319
  133OSM   H12F14443   1.541   4.143   7.926 -1.1232  0.3547 -0.1208
  133OSM   H12G14444   1.510   4.292   7.849 -0.5583  0.8121  1.4023
  133OSM   C13F14445   1.704   4.286   7.934  0.3516  0.3232 -0.2896
  133OSM   H13F14446   1.743   4.368   7.871 -1.3234 -1.0689 -3.2645
  133OSM   H13G14447   1.782   4.207   7.945 -1.0529 -1.1922 -0.9834
  133OSM   C14F14448   1.651   4.333   8.064 -0.3875  0.8702  0.0323
  133OSM   H14F14449   1.575   4.260   8.097  0.1208 -0.2054 -1.1222
  133OSM   H14G14450   1.606   4.431   8.038  0.5826  1.2398 -0.3116
  133OSM   C15F14451   1.766   4.335   8.175 -0.4229 -0.2824 -0.2958
  133OSM   H15F14452   1.854   4.395   8.143  0.0531 -0.1071  1.3069
  133OSM   H15G14453   1.787   4.230   8.204  1.0987  0.6270  2.0220
  133OSM   C16F14454   1.729   4.398   8.313 -0.6602 -0.6965 -0.8508
  133OSM   H16F14455   1.640   4.338   8.344 -1.5704  1.8954  1.7197
  133OSM   H16G14456   1.705   4.506   8.313 -1.6999 -0.9065  0.7547
  133OSM   C17F14457   1.836   4.367   8.421  0.1331  0.1083  0.1579
  133OSM   H17F14458   1.851   4.257   8.418  2.2415  0.3543  0.7467
  133OSM   H17G14459   1.789   4.376   8.521 -0.8504  1.1090 -0.3811
  133OSM   C18F14460   1.978   4.426   8.408 -0.5023 -1.2185 -0.4733
  133OSM   H18F14461   1.990   4.532   8.440  0.2656 -0.5598 -2.8750
  133OSM   H18G14462   2.017   4.416   8.304 -0.7162 -2.5145 -0.4311
  133OSM   H18H14463   2.041   4.360   8.471  1.2591 -0.7306 -1.6942
  134OSM      N14464   1.806   1.708   6.285  0.0973  0.1925  0.4833
  134OSM    C1514465   1.921   1.728   6.377  0.3252  0.1333 -0.2643
  134OSM   H15A14466   1.990   1.786   6.317  1.4841  0.3636  1.2623
  134OSM   H15B14467   1.967   1.634   6.405  1.4355  0.9769  0.8557
  134OSM   H15C14468   1.903   1.796   6.460  0.4898 -0.3096  0.1353
  134OSM    C1414469   1.766   1.840   6.237 -0.3965  0.3672  0.2188
  134OSM   H14A14470   1.855   1.897   6.215 -0.4606  1.1683  1.9712
  134OSM   H14B14471   1.722   1.896   6.318  1.8995  2.0993  0.3438
  134OSM   H14C14472   1.704   1.847   6.149 -2.2641  1.0667  1.5599
  134OSM    C1314473   1.849   1.626   6.176  0.3139 -0.2624 -0.1094
  134OSM   H13A14474   1.858   1.525   6.213  0.4525 -0.2886 -0.2142
  134OSM   H13B14475   1.954   1.650   6.161  0.6442 -2.0465 -0.7208
  134OSM   H13C14476   1.782   1.642   6.093 -0.6604  2.9391  1.2146
  134OSM    C1214477   1.688   1.642   6.359 -0.3501 -0.7394 -0.2763
  134OSM   H12A14478   1.594   1.668   6.311  1.3585  0.5454 -3.0058
  134OSM   H12B14479   1.680   1.676   6.462 -1.9591 -2.6386  0.2665
  134OSM    C1114480   1.682   1.482   6.380  0.7648 -0.4707  0.9457
  134OSM   H11A14481   1.677   1.435   6.279 -0.4346 -0.5360  1.0337
  134OSM   H11B14482   1.589   1.465   6.437 -0.6610  2.3472 -0.4399
  134OSM      P14483   1.881   1.301   6.411 -0.2824 -0.3652 -0.1729
  134OSM    O1314484   1.870   1.292   6.265 -0.3358 -0.0287 -0.2642
  134OSM    O1414485   2.022   1.299   6.473  0.2982 -0.3388  0.1381
  134OSM    O1114486   1.814   1.180   6.487  0.1510  0.4752 -0.0578
  134OSM    O1214487   1.793   1.434   6.460 -0.4175 -0.0306  0.6477
  134OSM    C1S14488   1.807   1.166   6.631 -0.2260  0.0417  0.2287
  134OSM    H1S14489   1.726   1.231   6.670 -0.4105  0.3691 -0.7101
  134OSM    H1T14490   1.898   1.215   6.673 -0.8999  0.1712  1.5643
  134OSM     NF14491   1.817   1.002   6.827  0.5943  0.6119  0.2297
  134OSM    HNF14492   1.891   0.940   6.852  0.3127 -0.3515 -1.2402
  134OSM    C2S14493   1.793   1.016   6.685 -0.4750 -0.6210 -1.1064
  134OSM    H2S14494   1.685   0.993   6.679 -0.4502 -1.2313  0.4855
  134OSM    C3S14495   1.879   0.915   6.603 -0.3891 -0.0351 -0.0419
  134OSM    H3S14496   1.985   0.937   6.627 -0.2017 -2.8464  1.9795
  134OSM     O314497   1.876   0.926   6.465 -0.3572 -0.7866 -0.1864
  134OSM    HO314498   1.860   1.021   6.466  0.2782 -0.6495  3.1939
  134OSM    C4S14499   1.834   0.783   6.647  0.1012  0.4427  0.1433
  134OSM    H4S14500   1.725   0.777   6.657 -0.0257  0.4575 -1.1290
  134OSM    C5S14501   1.908   0.671   6.659  0.0774 -0.5872  0.3729
  134OSM    H5S14502   2.011   0.671   6.621 -0.5117 -2.3656 -1.3461
  134OSM    C6S14503   1.852   0.533   6.693 -0.4374  0.1792  0.3960
  134OSM    H6S14504   1.872   0.457   6.615 -1.6593 -0.4316  0.6591
  134OSM    H6T14505   1.743   0.531   6.715 -0.2340 -1.1671  1.3993
  134OSM    C7S14506   1.929   0.463   6.811 -0.4021  0.3508 -0.2563
  134OSM    H7S14507   2.034   0.471   6.775  0.0670  1.7056  1.3406
  134OSM    H7T14508   1.901   0.356   6.812  4.1190 -0.9675  2.2929
  134OSM    C8S14509   1.903   0.524   6.947  0.2767  0.0474 -0.7110
  134OSM    H8S14510   1.795   0.543   6.965  0.0551 -2.2615  0.6383
  134OSM    H8T14511   1.964   0.615   6.961 -0.7104  0.4676  1.0780
  134OSM    C9S14512   1.934   0.438   7.068  0.1934  0.3418  0.7296
  134OSM    H9S14513   2.043   0.430   7.088  0.5507 -0.7532 -1.4674
  134OSM    H9T14514   1.901   0.334   7.046 -0.3264  0.8718 -1.0458
  134OSM   C10S14515   1.871   0.484   7.203 -0.0533 -0.0443  0.5215
  134OSM   H10S14516   1.889   0.406   7.280 -1.5568 -2.3850 -1.4316
  134OSM   H10T14517   1.760   0.489   7.197 -0.0688 -0.9544 -0.0110
  134OSM   C11S14518   1.916   0.625   7.252 -0.2345 -0.0414 -0.1570
  134OSM   H11S14519   1.877   0.695   7.175 -1.3519 -0.3828  0.0832
  134OSM   H11T14520   2.025   0.648   7.252 -0.2296 -0.0616 -0.0642
  134OSM   C12S14521   1.857   0.662   7.392 -0.0417 -0.8745  0.5472
  134OSM   H12S14522   1.761   0.607   7.403  1.1762 -2.8523  1.5151
  134OSM   H12T14523   1.841   0.772   7.395  0.8092 -0.7633  1.0683
  134OSM   C13S14524   1.933   0.611   7.513  0.5193 -0.1701 -0.8172
  134OSM   H13S14525   2.042   0.621   7.492  1.0850  0.0588  2.0179
  134OSM   H13T14526   1.926   0.501   7.527 -1.0599 -0.1978 -1.7295
  134OSM   C14S14527   1.895   0.689   7.641 -0.4880  0.0663 -0.6928
  134OSM   H14S14528   1.786   0.687   7.664 -0.3682 -0.2582 -0.1372
  134OSM   H14T14529   1.938   0.791   7.632 -0.7704  0.2339 -0.1547
  134OSM   C15S14530   1.955   0.615   7.757 -0.4572  0.2163  0.5053
  134OSM   H15S14531   2.064   0.600   7.744 -0.8824 -2.5028 -0.2372
  134OSM   H15T14532   1.910   0.514   7.752  0.7795 -0.2660 -1.3183
  134OSM   C16S14533   1.920   0.673   7.895  0.7359  0.6246 -0.0578
  134OSM   H16S14534   1.810   0.686   7.900  0.5147 -1.4568  1.2210
  134OSM   H16T14535   1.981   0.765   7.902  3.6547 -1.2617  0.2593
  134OSM   C17S14536   1.958   0.579   8.012  0.5496 -0.2591 -0.2120
  134OSM   H17S14537   2.063   0.541   8.013  0.8430  0.5175  3.0183
  134OSM   H17T14538   1.892   0.490   8.015 -0.0151  0.1936  1.2216
  134OSM   C18S14539   1.920   0.640   8.152 -0.5046 -1.0984 -0.4621
  134OSM   H18S14540   1.941   0.571   8.237  0.5975 -0.1273  0.0672
  134OSM   H18T14541   1.812   0.662   8.152  0.3137  3.4247 -3.4354
  134OSM   H18U14542   1.985   0.730   8.162  0.0949 -1.1706 -3.4479
  134OSM    C1F14543   1.732   1.047   6.922 -0.2248  0.0107 -0.2975
  134OSM     OF14544   1.620   1.091   6.889  0.0379  0.1913 -0.3393
  134OSM    C2F14545   1.783   1.044   7.069  0.0507 -0.5473  0.1187
  134OSM    H2F14546   1.859   1.125   7.081 -1.2117  0.4709  1.5160
  134OSM    H2G14547   1.821   0.942   7.088 -1.3933 -0.8677  1.3699
  134OSM    C3F14548   1.666   1.071   7.167 -0.1999 -0.0636 -1.0628
  134OSM    H3F14549   1.575   1.028   7.120 -1.8595  2.0639  0.1117
  134OSM    H3G14550   1.643   1.180   7.165 -0.3648  0.1375  3.9868
  134OSM    C4F14551   1.685   1.024   7.313 -0.7380 -0.3368  1.3393
  134OSM    H4F14552   1.720   0.919   7.312  0.3227  0.0148  1.6085
  134OSM    H4G14553   1.585   1.020   7.362 -0.5783 -1.2053  1.6071
  134OSM    C5F14554   1.765   1.116   7.408  0.0213 -0.3236 -0.1346
  134OSM    H5F14555   1.710   1.211   7.393 -2.8338 -1.7502  0.7890
  134OSM    H5G14556   1.871   1.138   7.384 -0.0015  0.3524  0.3688
  134OSM    C6F14557   1.769   1.062   7.547 -0.6119 -0.3560  0.3889
  134OSM    H6F14558   1.816   0.962   7.559  0.3523  0.3830  3.2280
  134OSM    H6G14559   1.660   1.063   7.569 -0.6719 -0.3340  0.0926
  134OSM    C7F14560   1.851   1.148   7.642  0.8718  1.3344 -0.0283
  134OSM    H7F14561   1.836   1.255   7.614  1.1056  1.4530  0.2985
  134OSM    H7G14562   1.959   1.126   7.632  0.4533 -2.6452  3.0508
  134OSM    C8F14563   1.799   1.142   7.789  0.3542  0.6128  0.6142
  134OSM    H8F14564   1.694   1.178   7.786  0.3763  0.6550  0.3224
  134OSM    H8G14565   1.863   1.219   7.837 -2.1379  2.4656  1.0518
  134OSM    C9F14566   1.802   1.010   7.856 -0.4116  0.2352 -0.4029
  134OSM    H9F14567   1.827   0.924   7.792  1.8268 -0.1921  0.9719
  134OSM   C10F14568   1.781   0.988   7.987  0.0077  0.4414  0.0396
  134OSM   H10F14569   1.800   0.886   8.025  1.1343 -0.5403 -2.9810
  134OSM   C11F14570   1.722   1.089   8.072 -0.5617 -0.5314 -0.2886
  134OSM   H11F14571   1.620   1.051   8.093 -0.9255  0.2744 -0.5886
  134OSM   H11G14572   1.711   1.190   8.028 -0.4561 -0.6057 -0.4834
  134OSM   C12F14573   1.788   1.103   8.212  0.2043  0.1320  0.4391
  134OSM   H12F14574   1.894   1.133   8.200  0.4230 -1.6294 -2.5724
  134OSM   H12G14575   1.783   1.009   8.272  2.7189  1.1354  2.3349
  134OSM   C13F14576   1.717   1.213   8.289  0.3812  0.0152  0.2501
  134OSM   H13F14577   1.608   1.198   8.302  0.2780  0.0971 -0.4905
  134OSM   H13G14578   1.724   1.303   8.224  2.9896  0.1953  0.7136
  134OSM   C14F14579   1.780   1.255   8.421  0.0634 -0.8263  0.3479
  134OSM   H14F14580   1.784   1.366   8.428 -1.3937 -0.4428 -3.7636
  134OSM   H14G14581   1.884   1.218   8.429  0.7323  1.4939  3.4567
  134OSM   C15F14582   1.706   1.191   8.535  0.4232 -0.3538  0.0550
  134OSM   H15F14583   1.672   1.088   8.513 -0.6114  0.5062 -2.6287
  134OSM   H15G14584   1.605   1.235   8.549  0.5745 -0.1211  0.4232
  134OSM   C16F14585   1.788   1.203   8.663  0.3633 -0.2988 -0.0051
  134OSM   H16F14586   1.885   1.152   8.646  0.5386  0.0358 -0.0058
  134OSM   H16G14587   1.725   1.151   8.739 -3.3338  1.5525 -1.6579
  134OSM   C17F14588   1.820   1.341   8.721 -0.7751  0.2653 -0.0862
  134OSM   H17F14589   1.727   1.400   8.705 -0.3469  0.7518 -0.7929
  134OSM   H17G14590   1.896   1.384   8.653  0.4441 -1.0292  0.4387
  134OSM   C18F14591   1.830   1.353   8.875 -0.3705  0.2680 -0.2194
  134OSM   H18F14592   1.741   1.311   8.926 -0.6487 -2.8840 -3.0880
  134OSM   H18G14593   1.829   1.461   8.901 -1.0163  0.6110 -1.6310
  134OSM   H18H14594   1.925   1.316   8.918  0.4917  0.0364 -2.2681
  135OSM      N14595   1.533   1.050   6.258  0.3224 -0.1437 -0.7947
  135OSM    C1514596   1.602   0.919   6.221  0.6539 -0.2813 -0.1757
  135OSM   H15A14597   1.618   0.911   6.115  2.5564  1.4211 -0.0629
  135OSM   H15B14598   1.537   0.839   6.253 -0.7569  0.9096 -0.0287
  135OSM   H15C14599   1.691   0.919   6.283 -1.3153 -0.0595  2.7477
  135OSM    C1414600   1.544   1.067   6.406  0.3364  0.6618  0.5744
  135OSM   H14A14601   1.644   1.104   6.422  0.4436  0.8222 -0.4221
  135OSM   H14B14602   1.523   0.973   6.455  1.3402 -0.6581 -1.4377
  135OSM   H14C14603   1.478   1.141   6.447 -0.0971  0.0902  0.9115
  135OSM    C1314604   1.597   1.159   6.181 -0.4190  0.5693 -0.0580
  135OSM   H13A14605   1.529   1.243   6.186 -0.7457  0.3541 -0.8165
  135OSM   H13B14606   1.619   1.140   6.077  2.7102  0.0051  0.6555
  135OSM   H13C14607   1.691   1.193   6.221  0.2838 -1.9047  0.4497
  135OSM    C1214608   1.385   1.032   6.225  0.9122 -0.4396 -0.1712
  135OSM   H12A14609   1.351   0.944   6.279  1.3543  0.0602  0.9499
  135OSM   H12B14610   1.379   1.014   6.119 -0.6625  2.8382 -0.6927
  135OSM    C1114611   1.285   1.145   6.257  0.5565 -0.3894 -0.5998
  135OSM   H11A14612   1.192   1.109   6.208 -1.3979 -0.5316  3.0576
  135OSM   H11B14613   1.305   1.242   6.207 -0.5202  1.7864  3.0564
  135OSM      P14614   1.144   1.256   6.452  0.3081 -0.0167  0.1919
  135OSM    O1314615   1.149   1.393   6.410 -0.2556  0.1118  0.1482
  135OSM    O1414616   1.019   1.186   6.425  0.4860  0.3785  0.1621
  135OSM    O1114617   1.174   1.247   6.606 -0.3228  0.5230 -0.2734
  135OSM    O1214618   1.266   1.179   6.392  0.9524  0.8914 -0.3878
  135OSM    C1S14619   1.307   1.264   6.650 -0.0998 -0.6370 -0.7263
  135OSM    H1S14620   1.358   1.352   6.603 -0.9058 -0.7589 -1.8432
  135OSM    H1T14621   1.354   1.169   6.618 -2.0582 -1.6332 -0.6979
  135OSM     NF14622   1.461   1.314   6.844  0.1527  0.3929  0.5129
  135OSM    HNF14623   1.525   1.238   6.854 -2.1296 -1.4457  1.8223
  135OSM    C2S14624   1.317   1.269   6.807 -0.4549 -0.0304  0.7766
  135OSM    H2S14625   1.252   1.352   6.842 -1.5370  0.0853 -1.3895
  135OSM    C3S14626   1.268   1.131   6.865  0.8287  0.2811  0.2481
  135OSM    H3S14627   1.343   1.054   6.838  1.3328  1.5790 -2.2172
  135OSM     O314628   1.144   1.084   6.819 -0.1399 -0.9651 -0.8724
  135OSM    HO314629   1.131   1.148   6.748 -0.7470  1.1292  1.0798
  135OSM    C4S14630   1.270   1.141   7.016  0.3782  0.4554 -0.4225
  135OSM    H4S14631   1.370   1.132   7.060  0.2503 -0.0331 -0.2335
  135OSM    C5S14632   1.165   1.178   7.095 -0.6100 -0.8896  0.3325
  135OSM    H5S14633   1.078   1.209   7.035  0.5517  0.6988 -0.5502
  135OSM    C6S14634   1.176   1.190   7.251  0.1362 -0.3576  0.1352
  135OSM    H6S14635   1.148   1.095   7.302  0.6057 -0.6801 -0.1969
  135OSM    H6T14636   1.101   1.265   7.285 -1.4588 -0.7674 -2.3934
  135OSM    C7S14637   1.319   1.232   7.302  0.7941  0.1107  0.0051
  135OSM    H7S14638   1.353   1.319   7.242  0.7639 -0.1932 -0.4509
  135OSM    H7T14639   1.388   1.149   7.276  1.0280  0.0336  0.8343
  135OSM    C8S14640   1.328   1.246   7.456 -0.2604  0.4819 -0.6269
  135OSM    H8S14641   1.237   1.298   7.491  0.1534  0.3785  0.6197
  135OSM    H8T14642   1.397   1.331   7.471 -1.9278  2.0254 -1.5735
  135OSM    C9S14643   1.365   1.117   7.531 -0.1591  0.1037  0.7073
  135OSM    H9S14644   1.475   1.116   7.513 -0.6774 -0.6909 -2.7514
  135OSM    H9T14645   1.322   1.033   7.473  0.3577  0.1615  0.2319
  135OSM   C10S14646   1.317   1.120   7.671 -0.4067  0.3839  0.8016
  135OSM   H10S14647   1.350   1.025   7.717 -0.0260  0.6140  1.0059
  135OSM   H10T14648   1.206   1.117   7.664 -0.3217 -1.0103 -0.2075
  135OSM   C11S14649   1.366   1.234   7.754  0.5894 -0.0370 -0.2672
  135OSM   H11S14650   1.312   1.331   7.743  0.7622 -0.1539 -2.2975
  135OSM   H11T14651   1.462   1.276   7.717  0.4696 -1.2087 -1.9661
  135OSM   C12S14652   1.348   1.186   7.905 -0.4113 -0.7989  1.0015
  135OSM   H12S14653   1.428   1.110   7.921  1.0523  1.5628  5.7963
  135OSM   H12T14654   1.247   1.142   7.898 -0.4169 -0.6161 -0.1549
  135OSM   C13S14655   1.363   1.297   8.010 -0.5876 -0.0097 -0.1266
  135OSM   H13S14656   1.292   1.381   7.994  1.4873  1.0677 -4.5967
  135OSM   H13T14657   1.466   1.337   8.015 -0.8038  0.4282  0.8495
  135OSM   C14S14658   1.340   1.236   8.149  0.0242 -0.0367  0.1589
  135OSM   H14S14659   1.415   1.156   8.168  0.5488  0.7499  1.4665
  135OSM   H14T14660   1.239   1.190   8.145  0.2153 -0.7670  2.6034
  135OSM   C15S14661   1.349   1.341   8.256 -0.2376  0.1903 -0.0582
  135OSM   H15S14662   1.287   1.426   8.221  0.8523  0.8167 -0.4831
  135OSM   H15T14663   1.452   1.383   8.255 -0.3028  0.3564  0.1155
  135OSM   C16S14664   1.311   1.275   8.387  0.2177 -0.1660 -0.6094
  135OSM   H16S14665   1.376   1.187   8.406  0.1716 -0.8980 -3.6776
  135OSM   H16T14666   1.209   1.236   8.366  0.0696 -0.4843  0.6437
  135OSM   C17S14667   1.307   1.369   8.504  0.1973 -0.1565 -0.5694
  135OSM   H17S14668   1.395   1.437   8.500  0.0182  0.1652  0.8511
  135OSM   H17T14669   1.323   1.313   8.599  0.4733 -1.3891 -1.3248
  135OSM   C18S14670   1.183   1.459   8.516 -0.3479 -0.1720  0.1850
  135OSM   H18S14671   1.104   1.396   8.562  0.4686 -0.5007  1.1585
  135OSM   H18T14672   1.138   1.483   8.417  0.7448 -1.1241 -0.5564
  135OSM   H18U14673   1.178   1.552   8.577 -1.7311  0.2814 -0.5871
  135OSM    C1F14674   1.494   1.438   6.845 -0.1905 -0.3512  0.1759
  135OSM     OF14675   1.416   1.525   6.815 -0.2936 -0.2435 -0.2736
  135OSM    C2F14676   1.635   1.470   6.883  0.7110  0.2462  0.1601
  135OSM    H2F14677   1.684   1.517   6.795 -0.6853  0.3184 -0.5916
  135OSM    H2G14678   1.694   1.380   6.912 -0.0742 -1.0013 -2.0098
  135OSM    C3F14679   1.652   1.574   6.997 -0.0859  0.2748  0.0706
  135OSM    H3F14680   1.594   1.668   6.985 -1.6873 -0.8022 -0.7972
  135OSM    H3G14681   1.758   1.606   7.007 -0.4287  0.8864  2.1174
  135OSM    C4F14682   1.614   1.515   7.132  0.2357 -0.1003 -0.4989
  135OSM    H4F14683   1.652   1.414   7.159  1.1537  0.1867 -0.6920
  135OSM    H4G14684   1.506   1.491   7.141  0.5762 -2.4129 -2.0403
  135OSM    C5F14685   1.637   1.613   7.251  0.0925  0.6618 -0.0937
  135OSM    H5F14686   1.599   1.713   7.222 -0.0991  0.3157 -1.0433
  135OSM    H5G14687   1.747   1.617   7.268  0.2817 -0.3289 -1.0451
  135OSM    C6F14688   1.580   1.554   7.383 -0.0309  0.1422 -0.0642
  135OSM    H6F14689   1.599   1.445   7.393  3.5012  0.8320  1.7175
  135OSM    H6G14690   1.472   1.575   7.373 -0.6311 -1.7329  2.0838
  135OSM    C7F14691   1.642   1.611   7.511  0.0192 -0.1710 -0.3509
  135OSM    H7F14692   1.613   1.718   7.519  0.0121  0.0371 -2.7919
  135OSM    H7G14693   1.752   1.602   7.515 -0.0069 -0.3614 -0.0083
  135OSM    C8F14694   1.589   1.534   7.638 -0.4658  0.1903 -0.0883
  135OSM    H8F14695   1.592   1.424   7.629  0.3448  0.2876 -0.9755
  135OSM    H8G14696   1.480   1.554   7.651 -0.6750 -1.1397  0.2607
  135OSM    C9F14697   1.649   1.576   7.761 -0.2305 -0.1826 -0.3569
  135OSM    H9F14698   1.735   1.511   7.783 -0.3113  0.1267  0.9113
  135OSM   C10F14699   1.613   1.677   7.843  0.5149  0.0672 -0.5497
  135OSM   H10F14700   1.671   1.699   7.934 -1.8397  0.0679  1.0070
  135OSM   C11F14701   1.493   1.766   7.814  0.0664  0.2146 -0.2936
  135OSM   H11F14702   1.456   1.761   7.710 -2.0474 -1.0348  0.4957
  135OSM   H11G14703   1.519   1.874   7.825 -0.9374  0.2525  1.9686
  135OSM   C12F14704   1.370   1.733   7.903 -0.1940  0.5260 -0.4883
  135OSM   H12F14705   1.346   1.626   7.887 -0.7706  0.8499 -1.7781
  135OSM   H12G14706   1.284   1.788   7.862  0.7502  1.1179 -1.6974
  135OSM   C13F14707   1.396   1.760   8.052 -0.0937 -0.0390 -0.1456
  135OSM   H13F14708   1.450   1.857   8.049  0.2645 -0.2671 -1.4975
  135OSM   H13G14709   1.478   1.690   8.081  0.3386  0.3303 -0.4647
  135OSM   C14F14710   1.270   1.750   8.139 -0.1680  0.3429 -0.3904
  135OSM   H14F14711   1.208   1.662   8.112 -0.4830 -0.0222  1.4527
  135OSM   H14G14712   1.200   1.836   8.136 -0.9675 -0.3229 -0.9979
  135OSM   C15F14713   1.301   1.740   8.293 -0.1103 -0.2531  0.4855
  135OSM   H15F14714   1.340   1.638   8.316 -1.3636 -0.4565  1.7889
  135OSM   H15G14715   1.207   1.762   8.348  1.0382  3.8699  0.9274
  135OSM   C16F14716   1.408   1.840   8.330 -0.3325 -0.0150  0.0514
  135OSM   H16F14717   1.381   1.932   8.273  2.8926  0.5635 -0.6241
  135OSM   H16G14718   1.508   1.802   8.300  0.8129  3.4491 -0.7730
  135OSM   C17F14719   1.418   1.874   8.481 -0.2454 -0.3976  0.2161
  135OSM   H17F14720   1.519   1.912   8.506 -1.0267  1.5237  0.5295
  135OSM   H17G14721   1.418   1.780   8.540  2.0624 -0.0470  0.8262
  135OSM   C18F14722   1.324   1.980   8.528 -0.3028 -0.1267 -0.7181
  135OSM   H18F14723   1.348   2.033   8.623 -0.7904  1.6497 -1.5838
  135OSM   H18G14724   1.222   1.935   8.526 -0.6076  0.5745 -1.1119
  135OSM   H18H14725   1.325   2.058   8.450 -0.9037 -0.8200 -1.4236
  136OSM      N14726   6.117   2.575   5.632  0.3845  0.0686 -0.3084
  136OSM    C1514727   6.156   2.441   5.584  0.4707  0.2051  0.7092
  136OSM   H15A14728   6.105   2.420   5.491  0.3242  1.5699  0.4749
  136OSM   H15B14729   6.124   2.364   5.652  0.2192  0.9463  1.4270
  136OSM   H15C14730   6.261   2.422   5.566  0.2821 -1.0672  0.8938
  136OSM    C1414731   6.159   2.659   5.519  0.3991 -0.4042 -0.7085
  136OSM   H14A14732   6.113   2.629   5.426 -1.4192 -0.3455  0.1526
  136OSM   H14B14733   6.264   2.669   5.494  0.9259 -1.6536  0.8769
  136OSM   H14C14734   6.137   2.763   5.539  1.1040 -0.1044 -1.4707
  136OSM    C1314735   5.967   2.583   5.643  0.4821  0.1215  0.7569
  136OSM   H13A14736   5.929   2.541   5.735 -1.6244  0.8311  0.2513
  136OSM   H13B14737   5.927   2.540   5.552  0.1545  1.1205  0.4122
  136OSM   H13C14738   5.944   2.689   5.648  1.0611  0.1452  3.3905
  136OSM    C1214739   6.192   2.618   5.761  0.0359 -0.5058  0.4724
  136OSM   H12A14740   6.172   2.723   5.774 -0.6151 -0.4514 -0.8894
  136OSM   H12B14741   6.297   2.599   5.745 -0.2575 -1.6326 -0.1819
  136OSM    C1114742   6.158   2.539   5.891  0.0087  0.3419  0.6892
  136OSM   H11A14743   6.229   2.568   5.971 -0.9828  1.0157  1.3260
  136OSM   H11B14744   6.172   2.430   5.876  0.1372  0.3202  0.9705
  136OSM      P14745   5.970   2.692   6.013 -0.2099 -0.0598  0.3608
  136OSM    O1314746   6.080   2.784   6.027  0.7774 -0.1828 -0.3583
  136OSM    O1414747   5.851   2.741   5.944  0.3160  0.5557 -0.4838
  136OSM    O1114748   5.929   2.627   6.153 -0.2164 -0.1137  0.2148
  136OSM    O1214749   6.025   2.567   5.930  0.7294 -0.1693  0.0300
  136OSM    C1S14750   6.018   2.549   6.230 -0.6363 -0.2327 -0.3464
  136OSM    H1S14751   6.112   2.605   6.252  0.7986 -2.7217  0.0819
  136OSM    H1T14752   6.048   2.464   6.166  1.0166  0.1702 -0.1348
  136OSM     NF14753   6.053   2.443   6.437 -0.8580 -0.3160  0.1026
  136OSM    HNF14754   6.041   2.346   6.456 -1.0790 -0.2663  0.2227
  136OSM    C2S14755   5.952   2.513   6.366 -0.1540 -0.9677  0.2695
  136OSM    H2S14756   5.934   2.608   6.420  1.8627 -0.1189 -0.4907
  136OSM    C3S14757   5.830   2.427   6.349 -0.1548  0.1912 -0.2226
  136OSM    H3S14758   5.863   2.334   6.300  1.9694 -0.7258  2.7907
  136OSM     O314759   5.720   2.487   6.278  0.0863 -0.5750 -0.4452
  136OSM    HO314760   5.755   2.569   6.244 -0.4109  0.7145  2.0380
  136OSM    C4S14761   5.774   2.386   6.489 -0.5445 -0.2468  0.3408
  136OSM    H4S14762   5.826   2.300   6.532 -1.5921  0.1236  2.4332
  136OSM    C5S14763   5.682   2.447   6.566 -0.8052 -0.2824 -0.2584
  136OSM    H5S14764   5.624   2.529   6.521  1.9224  0.3624 -2.7477
  136OSM    C6S14765   5.651   2.407   6.710  0.2108 -0.0907  0.5537
  136OSM    H6S14766   5.751   2.383   6.750  0.2725  0.3909  0.6952
  136OSM    H6T14767   5.583   2.320   6.714 -0.1778  0.2794  1.9699
  136OSM    C7S14768   5.594   2.528   6.794 -0.8009  0.6565 -0.3489
  136OSM    H7S14769   5.485   2.543   6.782 -0.5947  1.4154 -1.3213
  136OSM    H7T14770   5.634   2.622   6.751 -0.0734  1.4051  1.9323
  136OSM    C8S14771   5.625   2.510   6.942  0.6297  0.3632  0.1024
  136OSM    H8S14772   5.731   2.534   6.968  1.4780 -1.4106 -1.5589
  136OSM    H8T14773   5.608   2.405   6.974  2.4685 -0.4765 -1.5409
  136OSM    C9S14774   5.541   2.612   7.030 -0.6469 -0.0404  0.3582
  136OSM    H9S14775   5.433   2.587   7.027 -0.5824 -0.1162 -1.4633
  136OSM    H9T14776   5.550   2.715   6.990  0.4576 -0.4376 -0.4131
  136OSM   C10S14777   5.585   2.635   7.172  0.1923  0.7053  0.1621
  136OSM   H10S14778   5.691   2.668   7.175  0.3652  0.0430  2.9047
  136OSM   H10T14779   5.576   2.541   7.231 -0.9147 -1.3989 -3.1524
  136OSM   C11S14780   5.508   2.749   7.239 -0.6729  0.1551  0.0707
  136OSM   H11S14781   5.401   2.721   7.227  0.0937 -2.1937 -1.6175
  136OSM   H11T14782   5.528   2.837   7.174 -1.3699  1.5280  1.6666
  136OSM   C12S14783   5.556   2.782   7.385  0.3156 -0.3769 -0.1346
  136OSM   H12S14784   5.661   2.817   7.389  0.0424  0.4851 -0.4819
  136OSM   H12T14785   5.564   2.686   7.441  4.0684 -1.8432 -3.0326
  136OSM   C13S14786   5.469   2.889   7.447 -0.0723  0.1827 -0.1569
  136OSM   H13S14787   5.368   2.853   7.478  0.1054  0.2990  0.5741
  136OSM   H13T14788   5.441   2.972   7.379  0.5229 -1.8774 -3.0186
  136OSM   C14S14789   5.534   2.958   7.569 -0.3635  0.2477 -0.3839
  136OSM   H14S14790   5.630   3.007   7.543 -0.5658  1.7727  1.7139
  136OSM   H14T14791   5.571   2.875   7.633 -0.5866 -0.2777 -0.9285
  136OSM   C15S14792   5.443   3.054   7.637 -0.0741  0.0932 -0.6065
  136OSM   H15S14793   5.358   3.002   7.685  0.1740 -1.0135 -1.3538
  136OSM   H15T14794   5.408   3.125   7.559 -0.2114  0.6398 -0.0499
  136OSM   C16S14795   5.512   3.141   7.740 -0.3182 -0.3293  0.0076
  136OSM   H16S14796   5.434   3.215   7.766 -0.0080 -0.4442  1.2594
  136OSM   H16T14797   5.602   3.191   7.699 -0.8768 -0.6422 -1.6880
  136OSM   C17S14798   5.533   3.072   7.877 -0.2901 -0.0992  0.0978
  136OSM   H17S14799   5.618   3.001   7.868 -0.4111 -0.1198 -0.8924
  136OSM   H17T14800   5.443   3.016   7.910  1.6365 -3.5276 -0.1608
  136OSM   C18S14801   5.582   3.178   7.972  0.0533  0.6157  0.6393
  136OSM   H18S14802   5.610   3.276   7.927 -2.3403  0.0086 -2.3257
  136OSM   H18T14803   5.668   3.134   8.025  0.1128  0.5780  0.5112
  136OSM   H18U14804   5.506   3.191   8.053 -0.0017  0.0585  0.6775
  136OSM    C1F14805   6.153   2.500   6.499  0.0558 -0.2977 -0.0707
  136OSM     OF14806   6.176   2.618   6.488  0.4975  0.3040  0.5932
  136OSM    C2F14807   6.234   2.420   6.601 -0.0062 -0.2816 -0.1075
  136OSM    H2F14808   6.340   2.453   6.589 -0.6774  2.4245  0.9680
  136OSM    H2G14809   6.228   2.311   6.582  1.0163 -0.2069 -0.9518
  136OSM    C3F14810   6.201   2.453   6.746 -1.0446 -0.2370  0.7186
  136OSM    H3F14811   6.227   2.559   6.765  1.1751 -0.0948 -2.6742
  136OSM    H3G14812   6.278   2.405   6.808 -0.4501  0.4197  0.4956
  136OSM    C4F14813   6.058   2.414   6.779  0.2384 -1.0032 -0.1276
  136OSM    H4F14814   6.042   2.307   6.753  2.8857 -1.6174  0.7018
  136OSM    H4G14815   5.975   2.459   6.720  0.4718 -1.5750 -0.9080
  136OSM    C5F14816   6.025   2.424   6.926  0.0777 -0.2230 -0.3211
  136OSM    H5F14817   6.087   2.356   6.988  1.1960  2.0832  1.1735
  136OSM    H5G14818   5.923   2.383   6.942 -0.2044  0.9911  1.0515
  136OSM    C6F14819   6.042   2.568   6.986 -0.3077 -0.4829 -0.0251
  136OSM    H6F14820   5.975   2.638   6.932  0.3761 -0.1269 -0.4136
  136OSM    H6G14821   6.150   2.592   6.978 -0.2588 -0.8043 -0.3449
  136OSM    C7F14822   5.996   2.579   7.130 -0.0318 -0.7612  0.1903
  136OSM    H7F14823   6.070   2.525   7.193  1.0128  0.3637 -0.0631
  136OSM    H7G14824   5.894   2.534   7.138 -0.7646  0.7770 -0.4213
  136OSM    C8F14825   5.984   2.722   7.186  0.1960  0.5025  0.0289
  136OSM    H8F14826   5.918   2.764   7.107  0.0170 -2.6517 -1.5850
  136OSM    H8G14827   6.082   2.772   7.174  0.2800  0.5378  0.8248
  136OSM    C9F14828   5.931   2.732   7.326 -0.2535 -0.0607 -0.1825
  136OSM    H9F14829   5.884   2.645   7.374  3.4679 -1.8303  0.5043
  136OSM   C10F14830   5.925   2.833   7.411 -0.1972 -0.4005 -0.1595
  136OSM   H10F14831   5.886   2.814   7.512  1.8931  0.9290  0.9312
  136OSM   C11F14832   5.967   2.976   7.388 -0.1926 -0.2868  0.2689
  136OSM   H11F14833   5.875   3.028   7.354 -1.1095 -1.2437  1.2322
  136OSM   H11G14834   6.044   2.982   7.308 -0.6630 -1.7221 -0.3200
  136OSM   C12F14835   6.036   3.046   7.500 -0.5568 -0.1545  0.4994
  136OSM   H12F14836   6.076   3.147   7.476 -2.6659  0.3913 -0.7629
  136OSM   H12G14837   6.127   2.992   7.537  0.7479  1.5543 -0.1682
  136OSM   C13F14838   5.942   3.057   7.622  0.1297  0.4281  0.4749
  136OSM   H13F14839   5.925   2.957   7.666  0.6271 -0.0288 -0.3494
  136OSM   H13G14840   5.848   3.103   7.585  0.3731 -0.0600 -0.7879
  136OSM   C14F14841   6.004   3.131   7.743  0.1689 -0.3564  0.7991
  136OSM   H14F14842   6.053   3.228   7.722 -0.6137 -0.5847 -2.2640
  136OSM   H14G14843   6.094   3.072   7.771 -0.3259 -0.5244  2.1036
  136OSM   C15F14844   5.901   3.140   7.857 -0.3338 -0.1600  0.6407
  136OSM   H15F14845   5.858   3.041   7.884 -0.0266 -1.0441 -1.9463
  136OSM   H15G14846   5.814   3.202   7.826  0.5342  0.6232 -0.2740
  136OSM   C16F14847   5.968   3.214   7.984 -0.9286 -0.4569  0.1154
  136OSM   H16F14848   5.883   3.226   8.053 -0.9355  0.9402 -0.1180
  136OSM   H16G14849   6.000   3.315   7.948  0.7290 -0.5670  1.2159
  136OSM   C17F14850   6.091   3.145   8.036  0.6233  0.0312  0.4230
  136OSM   H17F14851   6.178   3.138   7.967  0.0295  2.8029 -0.6825
  136OSM   H17G14852   6.055   3.043   8.057  0.7686 -0.1099 -0.0039
  136OSM   C18F14853   6.152   3.219   8.153  0.4739 -0.3105 -0.2645
  136OSM   H18F14854   6.182   3.325   8.146  1.4832 -0.6537 -1.3672
  136OSM   H18G14855   6.248   3.175   8.186  0.2252  0.7627  2.0143
  136OSM   H18H14856   6.083   3.194   8.237  0.9911 -2.3586 -0.4267
  137OSM      N14857   2.692   0.489   6.404  0.4393  0.7337  0.0143
  137OSM    C1514858   2.646   0.621   6.344  0.0604 -0.4899  0.3772
  137OSM   H15A14859   2.573   0.672   6.405  0.3110  1.1308 -0.6489
  137OSM   H15B14860   2.601   0.607   6.247  1.6230  0.7858 -0.5690
  137OSM   H15C14861   2.731   0.686   6.333  0.6412 -1.1169  1.1056
  137OSM    C1414862   2.800   0.453   6.319 -0.0818  0.6737 -1.5561
  137OSM   H14A14863   2.877   0.524   6.345 -0.5261  0.3132  0.9026
  137OSM   H14B14864   2.784   0.461   6.213  3.2338 -1.5929 -2.3178
  137OSM   H14C14865   2.832   0.353   6.347 -1.3389 -0.2545 -3.3254
  137OSM    C1314866   2.745   0.511   6.547 -0.4512  0.0921 -0.3389
  137OSM   H13A14867   2.759   0.418   6.601  1.2803 -0.3934 -1.5921
  137OSM   H13B14868   2.681   0.579   6.602  1.5097  2.3986 -0.7997
  137OSM   H13C14869   2.840   0.562   6.543  0.3103 -0.9388  2.7707
  137OSM    C1214870   2.572   0.396   6.402 -0.2107 -0.0990  0.5844
  137OSM   H12A14871   2.531   0.390   6.302 -2.6620  0.9146  1.4848
  137OSM   H12B14872   2.498   0.440   6.468 -0.3727  1.1365 -0.4136
  137OSM    C1114873   2.581   0.254   6.463 -0.4007 -0.2755  1.0457
  137OSM   H11A14874   2.476   0.217   6.462 -0.0004 -1.4332 -0.9816
  137OSM   H11B14875   2.600   0.254   6.572  0.0438  3.1755  1.0304
  137OSM      P14876   2.786   0.086   6.450 -0.2912  0.1662 -0.1916
  137OSM    O1314877   2.814  -0.026   6.356  0.6512 -0.2407 -0.2655
  137OSM    O1414878   2.903   0.169   6.485 -0.2771 -0.4993  0.4343
  137OSM    O1114879   2.717   0.030   6.579  0.8701 -0.0261  0.3564
  137OSM    O1214880   2.670   0.169   6.386  0.2970  0.5246  0.7189
  137OSM    C1S14881   2.803  -0.044   6.667 -0.7248  0.0092 -0.6831
  137OSM    H1S14882   2.902   0.005   6.677  0.4842 -2.0026 -2.5969
  137OSM    H1T14883   2.814  -0.151   6.642  2.2809  0.2068 -0.3816
  137OSM     NF14884   2.841  -0.090   6.911 -1.1411  0.1865  0.0470
  137OSM    HNF14885   2.803  -0.177   6.942  0.1363  0.4205  2.3190
  137OSM    C2S14886   2.750  -0.032   6.819 -0.5427 -0.1979  0.0354
  137OSM    H2S14887   2.738   0.074   6.849 -0.2001  0.0673 -0.7389
  137OSM    C3S14888   2.604  -0.087   6.828  0.1110  0.0981 -0.1070
  137OSM    H3S14889   2.612  -0.189   6.783  0.0240 -0.6641  1.5759
  137OSM     O314890   2.520  -0.008   6.741 -0.0028  0.3230 -0.2393
  137OSM    HO314891   2.573   0.021   6.666 -3.1042 -0.1096 -2.7024
  137OSM    C4S14892   2.538  -0.100   6.969 -0.1748 -0.0319  0.1044
  137OSM    H4S14893   2.538  -0.006   7.027  1.2731  0.5726 -0.8413
  137OSM    C5S14894   2.476  -0.214   7.009  0.4686 -0.2493 -0.4431
  137OSM    H5S14895   2.479  -0.308   6.951 -3.5925 -1.6870  1.5154
  137OSM    C6S14896   2.408  -0.227   7.142  1.0823 -0.2731 -0.0978
  137OSM    H6S14897   2.471  -0.300   7.197 -0.7610 -2.5197 -0.8952
  137OSM    H6T14898   2.304  -0.265   7.131  0.6849  0.4063  1.2178
  137OSM    C7S14899   2.410  -0.092   7.230  0.0577 -0.1899 -0.4655
  137OSM    H7S14900   2.357  -0.027   7.158 -0.7384  1.7973  1.8407
  137OSM    H7T14901   2.515  -0.057   7.239 -0.0184  0.0050 -0.3581
  137OSM    C8S14902   2.348  -0.086   7.377  0.3249  0.3404  0.1121
  137OSM    H8S14903   2.240  -0.115   7.374 -0.3916  2.4457  3.0083
  137OSM    H8T14904   2.359   0.022   7.397  0.4613  0.5253 -0.9645
  137OSM    C9S14905   2.421  -0.166   7.484  0.2513 -0.2889  0.0461
  137OSM    H9S14906   2.527  -0.136   7.498  0.8876 -1.8392 -1.2356
  137OSM    H9T14907   2.431  -0.273   7.456 -1.0056  0.1222 -2.0119
  137OSM   C10S14908   2.339  -0.164   7.618  0.3100 -0.5375 -0.1680
  137OSM   H10S14909   2.362  -0.250   7.683 -2.3223 -0.0284  1.4977
  137OSM   H10T14910   2.231  -0.180   7.597 -0.0230  1.2219  0.1255
  137OSM   C11S14911   2.349  -0.034   7.699 -0.2364 -0.5505  0.1085
  137OSM   H11S14912   2.297   0.044   7.640  1.3349 -0.3044 -1.0078
  137OSM   H11T14913   2.458  -0.013   7.709 -0.0683 -1.6027  0.6248
  137OSM   C12S14914   2.284  -0.058   7.837 -0.1322  1.0878  0.4959
  137OSM   H12S14915   2.333  -0.136   7.899  0.9466  3.5923  2.9299
  137OSM   H12T14916   2.183  -0.094   7.809  1.3903 -2.5351 -0.6078
  137OSM   C13S14917   2.282   0.074   7.911  0.2672 -0.0055 -0.3088
  137OSM   H13S14918   2.274   0.156   7.837  0.7514 -1.1335 -1.6272
  137OSM   H13T14919   2.379   0.091   7.964  0.4836 -1.4912 -0.1929
  137OSM   C14S14920   2.174   0.076   8.016 -0.6112  0.8298 -0.6262
  137OSM   H14S14921   2.175  -0.008   8.089 -0.1467  1.5421  0.2027
  137OSM   H14T14922   2.073   0.086   7.971  0.1511  0.8998 -2.3661
  137OSM   C15S14923   2.197   0.206   8.099 -0.4628  0.2786  0.1755
  137OSM   H15S14924   2.185   0.291   8.029 -0.7076  0.4216  0.3868
  137OSM   H15T14925   2.293   0.203   8.155 -0.0247 -1.1496 -0.6080
  137OSM   C16S14926   2.088   0.210   8.208  0.2162  0.4943  0.3537
  137OSM   H16S14927   2.064   0.111   8.252 -1.4134 -0.5510 -2.7003
  137OSM   H16T14928   2.003   0.251   8.148 -1.5758  1.2894  3.3329
  137OSM   C17S14929   2.112   0.315   8.320 -0.0956  0.4593  0.4728
  137OSM   H17S14930   2.124   0.404   8.255 -1.1601 -0.3614 -0.8919
  137OSM   H17T14931   2.213   0.299   8.363 -0.5536  1.2154  1.8481
  137OSM   C18S14932   2.002   0.327   8.418 -0.4096  0.4325  0.2837
  137OSM   H18S14933   1.990   0.236   8.481 -1.2960 -0.8498 -1.6683
  137OSM   H18T14934   1.908   0.336   8.358 -0.9023  0.2859  1.0302
  137OSM   H18U14935   2.025   0.411   8.486  0.8463 -1.6345  2.4934
  137OSM    C1F14936   2.960  -0.034   6.947 -0.5096 -0.1118  0.3014
  137OSM     OF14937   3.007   0.067   6.890  0.5675 -0.0077  0.4811
  137OSM    C2F14938   3.038  -0.110   7.058  0.3361  0.0062 -0.9053
  137OSM    H2F14939   3.103  -0.033   7.104 -0.4550  0.4046 -0.4298
  137OSM    H2G14940   3.090  -0.194   7.008  0.6621  0.6266 -1.6375
  137OSM    C3F14941   2.942  -0.172   7.160 -0.4831  0.2147  0.6969
  137OSM    H3F14942   3.003  -0.234   7.228  0.5877  0.9645  0.4314
  137OSM    H3G14943   2.871  -0.243   7.112  1.3185 -0.0417 -1.6747
  137OSM    C4F14944   2.860  -0.064   7.234  0.2571  0.1973  0.7164
  137OSM    H4F14945   2.801  -0.119   7.311  0.6184 -0.5949  0.4351
  137OSM    H4G14946   2.786  -0.005   7.177  0.7999 -3.7352 -4.4269
  137OSM    C5F14947   2.941   0.037   7.321  0.1207 -0.0801 -0.2728
  137OSM    H5F14948   2.989   0.113   7.255  2.4932 -0.8316  0.5608
  137OSM    H5G14949   3.023  -0.021   7.368  1.1052 -0.4792 -2.4022
  137OSM    C6F14950   2.866   0.102   7.435 -0.1663  0.0426 -0.0228
  137OSM    H6F14951   2.940   0.149   7.504  0.0830  1.7389 -1.3951
  137OSM    H6G14952   2.802   0.030   7.490 -0.1298 -0.3522 -0.4996
  137OSM    C7F14953   2.780   0.213   7.394  0.1459  0.2399  0.2856
  137OSM    H7F14954   2.705   0.162   7.329  0.3168 -0.5651  0.7161
  137OSM    H7G14955   2.823   0.296   7.335  0.0167 -0.1179 -0.3124
  137OSM    C8F14956   2.699   0.274   7.511  0.0908  0.3926  0.3120
  137OSM    H8F14957   2.647   0.184   7.552  0.2127  1.0090  1.8433
  137OSM    H8G14958   2.614   0.335   7.474 -1.0823 -0.7825  1.0242
  137OSM    C9F14959   2.789   0.348   7.605  0.2007 -0.1061  0.4501
  137OSM    H9F14960   2.853   0.425   7.559  0.0854 -0.2966 -0.0306
  137OSM   C10F14961   2.799   0.314   7.735 -0.0381  0.4911 -0.0493
  137OSM   H10F14962   2.870   0.366   7.801 -0.6945  0.8786  0.3544
  137OSM   C11F14963   2.726   0.204   7.795  0.4143  0.1133 -0.0647
  137OSM   H11F14964   2.719   0.113   7.732  0.8556  0.4291 -0.5688
  137OSM   H11G14965   2.624   0.239   7.818  0.5547  0.2437  0.3668
  137OSM   C12F14966   2.794   0.153   7.925 -0.4797 -0.0665  0.4204
  137OSM   H12F14967   2.902   0.127   7.925 -0.8003 -1.4395  0.8152
  137OSM   H12G14968   2.740   0.057   7.941 -0.3853 -0.1898  0.0116
  137OSM   C13F14969   2.756   0.245   8.043 -0.0600  0.5864  1.1003
  137OSM   H13F14970   2.646   0.247   8.058 -0.4764  0.6773 -1.7831
  137OSM   H13G14971   2.795   0.347   8.022 -0.5857  0.2076 -2.0125
  137OSM   C14F14972   2.814   0.191   8.173  0.3916  0.3140  0.1983
  137OSM   H14F14973   2.925   0.194   8.164  0.2951  0.4965 -1.0464
  137OSM   H14G14974   2.781   0.085   8.168  0.5683  0.2560  0.2627
  137OSM   C15F14975   2.758   0.242   8.303  0.4841 -0.1546  0.4803
  137OSM   H15F14976   2.647   0.235   8.297  0.4609  0.5813 -0.0095
  137OSM   H15G14977   2.801   0.344   8.305 -1.2012  0.5581  1.2830
  137OSM   C16F14978   2.802   0.164   8.426  0.1062  0.0020  0.3662
  137OSM   H16F14979   2.912   0.159   8.436  0.1918 -2.5242 -1.5154
  137OSM   H16G14980   2.757   0.062   8.426 -0.9008  0.4296 -0.4942
  137OSM   C17F14981   2.763   0.226   8.566  0.5545  0.0399  0.8068
  137OSM   H17F14982   2.802   0.330   8.569 -0.5259  0.4604  0.2264
  137OSM   H17G14983   2.814   0.169   8.647 -0.8690 -1.4117  0.7226
  137OSM   C18F14984   2.612   0.220   8.586  0.3354 -0.8819 -0.6778
  137OSM   H18F14985   2.595   0.166   8.682 -0.5293  0.4365 -0.0740
  137OSM   H18G14986   2.552   0.172   8.506 -2.2752  1.4046 -0.1628
  137OSM   H18H14987   2.571   0.322   8.602 -2.1173 -1.6654 -1.6700
  138OSM      N14988   3.337   2.750   5.812 -0.2257 -0.1197 -0.7176
  138OSM    C1514989   3.266   2.614   5.803  0.8453 -0.3891  0.7187
  138OSM   H15A14990   3.200   2.613   5.718  0.6579 -2.0181  0.8613
  138OSM   H15B14991   3.203   2.604   5.890 -0.4366 -1.0319 -0.2639
  138OSM   H15C14992   3.332   2.529   5.788  2.2299  0.8591 -0.4159
  138OSM    C1414993   3.424   2.758   5.692 -0.4723  0.7764  0.0077
  138OSM   H14A14994   3.361   2.760   5.604 -0.0644 -0.0734 -0.3134
  138OSM   H14B14995   3.494   2.677   5.680 -2.2208 -0.8962  0.7947
  138OSM   H14C14996   3.474   2.854   5.688 -1.5608  1.2867 -2.5073
  138OSM    C1314997   3.229   2.851   5.797  0.1548 -0.4689  0.5597
  138OSM   H13A14998   3.155   2.828   5.722  0.4741 -2.3056  0.7797
  138OSM   H13B14999   3.268   2.944   5.760  1.9787 -1.7932 -0.9258
  138OSM   H13C15000   3.180   2.880   5.889 -1.9433  0.1715 -0.7335
  138OSM    C1215001   3.417   2.773   5.937  0.3855  0.7855 -0.2437
  138OSM   H12A15002   3.451   2.876   5.929 -0.7896  1.0361 -2.5402
  138OSM   H12B15003   3.492   2.696   5.930 -2.0300 -1.7930  1.0820
  138OSM    C1115004   3.337   2.754   6.064 -0.1626 -0.4298  0.3720
  138OSM   H11A15005   3.259   2.832   6.072  0.4952  0.2431  0.3054
  138OSM   H11B15006   3.408   2.791   6.142  2.4861 -1.3929 -1.4999
  138OSM      P15007   3.379   2.493   6.126  0.5499 -0.0547  0.3622
  138OSM    O1315008   3.296   2.371   6.135 -0.4246 -0.6490 -0.8761
  138OSM    O1415009   3.493   2.487   6.032 -1.1235 -0.1127 -0.3263
  138OSM    O1115010   3.436   2.536   6.269  0.2155  0.7854 -0.2287
  138OSM    O1215011   3.290   2.621   6.080  0.5471  0.2945  0.2407
  138OSM    C1S15012   3.373   2.476   6.389  0.0354  0.1385 -0.0662
  138OSM    H1S15013   3.407   2.370   6.386 -1.9068 -0.4624 -1.5892
  138OSM    H1T15014   3.263   2.469   6.380 -0.1313  1.7310  0.5433
  138OSM     NF15015   3.351   2.462   6.626  0.1199  0.7237 -0.6672
  138OSM    HNF15016   3.278   2.490   6.687  2.0520  0.6692  1.7546
  138OSM    C2S15017   3.411   2.547   6.520 -0.4985  0.1140 -0.4931
  138OSM    H2S15018   3.521   2.552   6.530 -0.6120  0.3936  0.7342
  138OSM    C3S15019   3.369   2.696   6.519  0.0228  0.0265  0.5207
  138OSM    H3S15020   3.268   2.699   6.472  1.3082  1.3885 -2.2703
  138OSM     O315021   3.443   2.767   6.424 -0.0091 -0.0992 -0.2804
  138OSM    HO315022   3.460   2.694   6.364  2.1178 -0.5552  0.8136
  138OSM    C4S15023   3.366   2.771   6.652 -0.3877  0.2026 -0.4926
  138OSM    H4S15024   3.270   2.759   6.706 -0.1296 -4.0136 -0.8111
  138OSM    C5S15025   3.464   2.850   6.708 -0.4238  0.2702  0.7708
  138OSM    H5S15026   3.555   2.872   6.651 -1.1576  1.9125  0.2105
  138OSM    C6S15027   3.449   2.922   6.843  0.4385 -0.2412 -0.0253
  138OSM    H6S15028   3.450   3.030   6.818  3.6863 -0.0195  0.9135
  138OSM    H6T15029   3.534   2.894   6.909 -0.1983 -0.3395  0.7611
  138OSM    C7S15030   3.328   2.875   6.932  0.3069 -0.2163  0.2372
  138OSM    H7S15031   3.335   2.767   6.956  3.0996 -0.1677 -0.2072
  138OSM    H7T15032   3.241   2.888   6.864  0.5856 -2.1444 -0.5252
  138OSM    C8S15033   3.315   2.952   7.057  0.0628  0.0073 -0.9034
  138OSM    H8S15034   3.225   2.930   7.118 -0.1246 -0.2395 -1.2693
  138OSM    H8T15035   3.308   3.060   7.031 -1.2900 -0.3173 -1.9119
  138OSM    C9S15036   3.428   2.928   7.166  0.4069  0.9001  0.5922
  138OSM    H9S15037   3.519   2.980   7.127 -0.0348 -0.7814 -2.8681
  138OSM    H9T15038   3.459   2.822   7.170 -0.0728  0.7143 -0.4697
  138OSM   C10S15039   3.395   2.992   7.292 -0.0201 -0.0614 -0.4864
  138OSM   H10S15040   3.294   2.949   7.310  0.1758  0.7425  2.8078
  138OSM   H10T15041   3.395   3.103   7.295  0.0242 -0.0611 -0.4819
  138OSM   C11S15042   3.478   2.951   7.413 -0.8097  0.1068  0.6380
  138OSM   H11S15043   3.572   3.007   7.397  0.1667 -1.0602  2.1612
  138OSM   H11T15044   3.503   2.843   7.408 -1.2514  0.1150 -2.7002
  138OSM   C12S15045   3.414   2.974   7.552 -0.9751  0.3937 -0.6065
  138OSM   H12S15046   3.328   2.903   7.549  0.0731 -0.8776 -0.9543
  138OSM   H12T15047   3.381   3.079   7.559 -1.6285  0.2949 -1.9416
  138OSM   C13S15048   3.510   2.953   7.673 -0.6448  0.7663  0.4868
  138OSM   H13S15049   3.593   3.027   7.675 -0.8096  0.9419  1.1138
  138OSM   H13T15050   3.555   2.852   7.664  0.5879  1.3667 -0.1673
  138OSM   C14S15051   3.435   2.961   7.806 -0.5651 -0.2327  0.2643
  138OSM   H14S15052   3.362   2.880   7.828  1.0168 -1.8153 -0.1797
  138OSM   H14T15053   3.393   3.063   7.801  2.2055  0.9516  0.3566
  138OSM   C15S15054   3.539   2.959   7.925  0.9299  0.2060 -0.9300
  138OSM   H15S15055   3.610   3.044   7.929  1.0726  0.0399  0.3000
  138OSM   H15T15056   3.601   2.867   7.917 -0.3983 -0.8827  0.8399
  138OSM   C16S15057   3.473   2.939   8.063  0.1380  0.4644  0.0073
  138OSM   H16S15058   3.385   2.871   8.062  0.3256  0.2211  0.1864
  138OSM   H16T15059   3.433   3.037   8.099 -0.8154 -0.6930  2.1623
  138OSM   C17S15060   3.570   2.897   8.167 -0.3851  0.2986  0.1433
  138OSM   H17S15061   3.654   2.968   8.165  1.6106 -1.9998  0.2289
  138OSM   H17T15062   3.615   2.798   8.144  1.9517  1.0540  1.3024
  138OSM   C18S15063   3.515   2.893   8.309  0.1479 -0.7828 -0.1620
  138OSM   H18S15064   3.564   2.816   8.372  1.0505  0.3721  0.5779
  138OSM   H18T15065   3.408   2.866   8.298  0.1140 -0.5943 -0.3152
  138OSM   H18U15066   3.518   2.995   8.354 -1.5847 -0.0566 -1.6392
  138OSM    C1F15067   3.397   2.338   6.658  0.4684 -0.2004  0.3686
  138OSM     OF15068   3.513   2.297   6.628  0.0591 -0.4478  0.5670
  138OSM    C2F15069   3.304   2.242   6.731  0.7433 -0.4945  0.7154
  138OSM    H2F15070   3.324   2.144   6.682 -2.3967 -0.6057 -0.4630
  138OSM    H2G15071   3.199   2.276   6.717  0.3175 -1.7707  0.6938
  138OSM    C3F15072   3.345   2.222   6.884  0.1279 -0.2389  0.0446
  138OSM    H3F15073   3.448   2.183   6.890  0.5412  0.7238 -0.7118
  138OSM    H3G15074   3.277   2.145   6.927 -0.2576  0.0324 -0.0756
  138OSM    C4F15075   3.335   2.352   6.965  0.3552 -0.5025  0.0216
  138OSM    H4F15076   3.234   2.394   6.950  0.6535  0.5388  0.8685
  138OSM    H4G15077   3.413   2.424   6.934  2.0109 -1.7822  1.1087
  138OSM    C5F15078   3.340   2.337   7.122 -0.7118 -0.5314  0.7261
  138OSM    H5F15079   3.264   2.263   7.152 -3.2298  1.7191  0.1567
  138OSM    H5G15080   3.315   2.433   7.173 -0.2394  0.5843 -1.0913
  138OSM    C6F15081   3.473   2.291   7.184 -0.1010  0.4628 -0.7037
  138OSM    H6F15082   3.548   2.372   7.170  1.1065 -0.3704  0.8171
  138OSM    H6G15083   3.517   2.213   7.119  0.5499 -1.2265  1.7035
  138OSM    C7F15084   3.472   2.252   7.337 -0.3154  0.1678  0.0834
  138OSM    H7F15085   3.573   2.219   7.369 -0.6424 -0.4229  0.5151
  138OSM    H7G15086   3.400   2.169   7.353 -0.5130  0.6172  1.6944
  138OSM    C8F15087   3.440   2.379   7.427 -0.0658 -0.0158  0.6546
  138OSM    H8F15088   3.341   2.419   7.396 -0.5048 -1.1253  0.6134
  138OSM    H8G15089   3.522   2.452   7.413 -0.2189 -0.0567 -0.4623
  138OSM    C9F15090   3.427   2.338   7.573  0.1760  0.0200  0.0234
  138OSM    H9F15091   3.324   2.300   7.584 -0.5521  1.8373 -0.3518
  138OSM   C10F15092   3.500   2.366   7.683  0.2504 -0.0707 -0.5363
  138OSM   H10F15093   3.471   2.337   7.785  0.6459 -0.6793 -0.5909
  138OSM   C11F15094   3.619   2.453   7.675  0.2687  0.3436  0.4652
  138OSM   H11F15095   3.607   2.550   7.730 -0.8841 -0.4137  1.5853
  138OSM   H11G15096   3.633   2.480   7.568 -1.7945  0.0235  0.1001
  138OSM   C12F15097   3.742   2.387   7.728 -0.4132  0.5314 -0.3761
  138OSM   H12F15098   3.770   2.295   7.673  0.9797  0.9984 -0.4871
  138OSM   H12G15099   3.740   2.360   7.836  3.6430 -1.6303 -0.7417
  138OSM   C13F15100   3.870   2.473   7.717 -0.1331 -0.4471 -0.2342
  138OSM   H13F15101   3.868   2.568   7.775 -2.9082 -1.7523  1.9189
  138OSM   H13G15102   3.895   2.487   7.610 -1.1735 -3.1188 -0.8524
  138OSM   C14F15103   3.984   2.382   7.768 -0.6726 -0.0372 -0.1312
  138OSM   H14F15104   4.080   2.427   7.733 -0.0063 -1.2959  0.0463
  138OSM   H14G15105   3.978   2.284   7.716 -0.9852 -0.4960  0.7597
  138OSM   C15F15106   3.985   2.354   7.924  0.0465  0.1624  0.7136
  138OSM   H15F15107   3.911   2.274   7.946  0.2311 -0.0313  0.6311
  138OSM   H15G15108   3.947   2.442   7.980  1.0384  0.3953  1.0185
  138OSM   C16F15109   4.129   2.319   7.956  0.4827 -0.2475  0.0001
  138OSM   H16F15110   4.141   2.310   8.066  0.9386 -0.3964 -0.0597
  138OSM   H16G15111   4.192   2.409   7.936 -0.2930  0.2256 -0.3069
  138OSM   C17F15112   4.172   2.193   7.877  0.3586 -0.0287 -0.6339
  138OSM   H17F15113   4.176   2.200   7.766  0.4319  0.2015 -0.6179
  138OSM   H17G15114   4.108   2.106   7.904  1.2146  0.1847  2.2219
  138OSM   C18F15115   4.316   2.153   7.918  0.4743 -0.3692  0.5633
  138OSM   H18F15116   4.385   2.233   7.882  1.0757 -0.1257  2.1884
  138OSM   H18G15117   4.355   2.065   7.864 -0.0793 -0.7158  0.7258
  138OSM   H18H15118   4.328   2.143   8.028 -2.4375 -0.8815  0.8602
  139OSM      N15119   2.258   3.372   6.114 -0.1890 -0.1185 -0.3594
  139OSM    C1515120   2.152   3.461   6.068 -0.0764  0.4263 -0.0566
  139OSM   H15A15121   2.100   3.505   6.152  2.7805  2.5500  0.6858
  139OSM   H15B15122   2.078   3.420   6.001 -1.5553 -0.7678  2.2560
  139OSM   H15C15123   2.185   3.552   6.020  0.1425  0.2067 -0.3248
  139OSM    C1415124   2.196   3.252   6.178  0.0736 -0.0165  0.0424
  139OSM   H14A15125   2.137   3.289   6.260  0.5351  1.8279 -0.4340
  139OSM   H14B15126   2.263   3.181   6.224  0.2022 -0.0997 -0.2744
  139OSM   H14C15127   2.134   3.200   6.107 -1.7906  1.6146  0.4109
  139OSM    C1315128   2.336   3.324   5.995  0.3267 -0.1672 -0.2823
  139OSM   H13A15129   2.420   3.263   6.024 -0.5241 -0.7730  0.9585
  139OSM   H13B15130   2.359   3.412   5.937 -0.1245  1.2629  1.6505
  139OSM   H13C15131   2.278   3.261   5.929  1.3520  1.0926 -2.4380
  139OSM    C1215132   2.349   3.449   6.206  0.2263  0.1826  0.5220
  139OSM   H12A15133   2.280   3.483   6.282 -2.0719  1.3993 -2.0088
  139OSM   H12B15134   2.385   3.540   6.159 -1.0991  1.6128  2.2234
  139OSM    C1115135   2.472   3.382   6.266 -0.2865 -0.2303  0.0346
  139OSM   H11A15136   2.435   3.299   6.329 -1.0863  0.8479  1.0132
  139OSM   H11B15137   2.526   3.456   6.329  1.6136 -1.0624 -0.5751
  139OSM      P15138   2.657   3.219   6.204 -0.7467  0.4749  0.5197
  139OSM    O1315139   2.607   3.107   6.130  0.4633 -0.5189  0.0764
  139OSM    O1415140   2.805   3.256   6.188  0.5295 -0.5915 -0.4030
  139OSM    O1115141   2.638   3.186   6.361 -0.1660  0.0022  0.1764
  139OSM    O1215142   2.565   3.340   6.170 -0.3768  0.7815 -0.3157
  139OSM    C1S15143   2.738   3.225   6.449 -0.0697  0.1395 -0.9800
  139OSM    H1S15144   2.759   3.333   6.434  0.8647 -0.3288 -3.1861
  139OSM    H1T15145   2.829   3.162   6.448  1.2631  2.0175 -0.2801
  139OSM     NF15146   2.772   3.260   6.696  0.3116 -0.2423 -0.2260
  139OSM    HNF15147   2.839   3.200   6.740 -0.4852 -0.7780  0.2894
  139OSM    C2S15148   2.689   3.208   6.595  0.7214 -0.8510  0.0660
  139OSM    H2S15149   2.594   3.266   6.596  0.8422 -0.6552  0.2439
  139OSM    C3S15150   2.643   3.061   6.625 -0.4165  0.2545 -0.0391
  139OSM    H3S15151   2.728   2.991   6.629 -0.3984  0.0972 -2.3791
  139OSM     O315152   2.560   3.005   6.521  0.4170 -0.3304  0.2101
  139OSM    HO315153   2.577   3.064   6.448 -1.9676 -1.5649 -1.3951
  139OSM    C4S15154   2.571   3.042   6.759 -0.4839  0.5652  0.0035
  139OSM    H4S15155   2.633   2.986   6.830  0.4446  2.9085  1.1062
  139OSM    C5S15156   2.441   3.064   6.792 -0.4349 -0.4911  0.4450
  139OSM    H5S15157   2.378   3.115   6.717  2.6513  1.2470 -1.0373
  139OSM    C6S15158   2.395   3.033   6.932 -0.0454 -0.0329 -0.8734
  139OSM    H6S15159   2.464   2.961   6.983  0.7080  2.7192  2.1543
  139OSM    H6T15160   2.295   2.986   6.935 -0.1364  0.1552 -1.0141
  139OSM    C7S15161   2.398   3.158   7.018  0.1376 -0.0374 -1.1839
  139OSM    H7S15162   2.494   3.211   7.004  0.3229 -0.2579 -0.7768
  139OSM    H7T15163   2.415   3.112   7.118 -1.7036 -0.4075 -1.0085
  139OSM    C8S15164   2.280   3.250   7.009 -0.2320 -0.1355 -0.0442
  139OSM    H8S15165   2.245   3.263   6.905 -1.1383  1.4219  0.4459
  139OSM    H8T15166   2.314   3.347   7.052  0.4240  0.6206 -2.2432
  139OSM    C9S15167   2.165   3.193   7.094 -0.3810  1.1701 -0.2485
  139OSM    H9S15168   2.145   3.086   7.069 -0.3737  0.5195  2.4338
  139OSM    H9T15169   2.079   3.257   7.064 -1.8305 -1.0106 -0.9118
  139OSM   C10S15170   2.193   3.204   7.243  0.1556 -0.0051 -0.2040
  139OSM   H10S15171   2.206   3.313   7.263 -0.8014 -0.3150  2.2501
  139OSM   H10T15172   2.292   3.159   7.267  0.7327  0.8770 -0.8376
  139OSM   C11S15173   2.085   3.138   7.336 -0.0350 -0.1459  0.4600
  139OSM   H11S15174   2.082   3.029   7.318 -0.8134 -0.3488  1.7772
  139OSM   H11T15175   1.982   3.173   7.313  0.8888  2.0088 -0.5831
  139OSM   C12S15176   2.109   3.150   7.486  0.0538 -0.1429 -0.5016
  139OSM   H12S15177   2.115   3.255   7.520 -1.0588 -0.3070  0.2247
  139OSM   H12T15178   2.208   3.102   7.504 -0.0955  0.0406  0.8997
  139OSM   C13S15179   2.007   3.067   7.566  0.0733  0.4542  0.1309
  139OSM   H13S15180   2.008   2.972   7.508 -0.3399 -0.5924  1.8189
  139OSM   H13T15181   1.902   3.104   7.562  0.2933  1.0628 -0.0438
  139OSM   C14S15182   2.041   3.042   7.711  0.1221 -0.4502 -0.5672
  139OSM   H14S15183   2.010   3.127   7.775 -1.8649 -1.0840 -0.6419
  139OSM   H14T15184   2.151   3.030   7.713 -0.0796 -2.6306 -0.6955
  139OSM   C15S15185   1.967   2.919   7.774 -0.4694 -0.2117  0.4202
  139OSM   H15S15186   2.006   2.836   7.711 -3.3761 -2.5385  1.5809
  139OSM   H15T15187   1.858   2.927   7.754 -0.1559  1.1985 -0.8136
  139OSM   C16S15188   1.992   2.887   7.922  0.3392 -0.6971 -0.5034
  139OSM   H16S15189   1.920   2.952   7.977  0.9696 -0.5464  0.1506
  139OSM   H16T15190   2.098   2.904   7.952  0.7838 -0.0652 -2.3754
  139OSM   C17S15191   1.972   2.740   7.961  0.3643 -0.1208 -0.3407
  139OSM   H17S15192   1.867   2.716   7.937  0.6423  0.1373 -1.9153
  139OSM   H17T15193   1.987   2.703   8.064  0.0843 -2.9390 -1.2699
  139OSM   C18S15194   2.065   2.648   7.887  0.0728 -0.4143  0.3121
  139OSM   H18S15195   2.071   2.546   7.930  0.3347 -0.0359  1.1800
  139OSM   H18T15196   2.170   2.686   7.882 -0.2920  0.5459 -0.2851
  139OSM   H18U15197   2.036   2.648   7.780  1.0540  1.9797  0.0114
  139OSM    C1F15198   2.776   3.394   6.710  0.0201 -0.3037  0.2929
  139OSM     OF15199   2.709   3.459   6.630  0.1731 -0.2684 -0.1003
  139OSM    C2F15200   2.864   3.449   6.831  0.2531 -0.4329  0.4908
  139OSM    H2F15201   2.956   3.387   6.833  0.4656 -0.1274  0.2899
  139OSM    H2G15202   2.807   3.443   6.926  0.8342  1.7366  1.0171
  139OSM    C3F15203   2.917   3.595   6.790 -0.6138  0.0753 -0.1912
  139OSM    H3F15204   2.833   3.666   6.774  0.4978  0.9715 -2.1978
  139OSM    H3G15205   2.974   3.578   6.696 -1.8734  1.6421 -1.2593
  139OSM    C4F15206   3.003   3.665   6.906  0.1840  0.1685 -0.0593
  139OSM    H4F15207   3.074   3.739   6.862  0.7936 -0.9964 -1.0610
  139OSM    H4G15208   3.073   3.587   6.943 -0.8456 -0.6905  0.0784
  139OSM    C5F15209   2.919   3.714   7.022  0.9156  0.1238  0.2445
  139OSM    H5F15210   2.852   3.629   7.047  0.1215  0.1448 -1.7458
  139OSM    H5G15211   2.854   3.795   6.982 -0.8663  0.0939  2.9653
  139OSM    C6F15212   2.995   3.768   7.145 -0.3036 -0.5628  1.2527
  139OSM    H6F15213   3.080   3.835   7.118  0.1421 -1.0532  1.4118
  139OSM    H6G15214   3.044   3.677   7.186 -1.7878 -1.8067  0.2691
  139OSM    C7F15215   2.908   3.851   7.241 -0.1480  1.2844 -0.6566
  139OSM    H7F15216   2.832   3.786   7.290  1.5661 -0.4968 -0.2867
  139OSM    H7G15217   2.853   3.935   7.192 -1.3368  1.1344  0.3901
  139OSM    C8F15218   2.995   3.908   7.357 -0.7347  0.2043 -0.3301
  139OSM    H8F15219   3.081   3.969   7.321 -1.2186  0.6202 -0.7844
  139OSM    H8G15220   3.044   3.823   7.409 -0.5268  0.3040 -0.3620
  139OSM    C9F15221   2.920   3.984   7.452  0.3834 -0.0415 -0.1237
  139OSM    H9F15222   2.847   3.927   7.511 -2.2287 -0.5461 -3.7401
  139OSM   C10F15223   2.935   4.115   7.489 -0.5979  0.6763 -0.0195
  139OSM   H10F15224   2.867   4.155   7.565 -0.2149  2.1450 -0.4472
  139OSM   C11F15225   3.032   4.216   7.423  0.0034  0.1960  0.7027
  139OSM   H11F15226   2.972   4.299   7.379  0.4303 -0.0830 -0.4222
  139OSM   H11G15227   3.087   4.171   7.338 -1.7385  2.6038 -1.8114
  139OSM   C12F15228   3.138   4.272   7.518  0.3794 -0.8218 -0.0059
  139OSM   H12F15229   3.196   4.344   7.456 -0.0787  1.2977  1.9462
  139OSM   H12G15230   3.212   4.192   7.539 -2.1198 -2.7972  1.6245
  139OSM   C13F15231   3.089   4.335   7.653  0.2095 -0.7401 -0.6026
  139OSM   H13F15232   3.034   4.263   7.717 -3.1290  2.4111  0.2106
  139OSM   H13G15233   3.013   4.415   7.644 -1.9749 -2.4949  1.6719
  139OSM   C14F15234   3.209   4.378   7.738 -0.5757 -0.5954  0.1216
  139OSM   H14F15235   3.266   4.450   7.676  0.7503 -0.5418  1.3770
  139OSM   H14G15236   3.271   4.288   7.757  1.0088 -0.4951 -4.0189
  139OSM   C15F15237   3.177   4.453   7.871  0.1177  0.2031  0.1446
  139OSM   H15F15238   3.094   4.524   7.852 -0.3765 -0.4733 -0.2513
  139OSM   H15G15239   3.270   4.510   7.891  1.2692 -1.2471 -0.9285
  139OSM   C16F15240   3.156   4.369   8.000 -0.0310 -0.0140 -0.7639
  139OSM   H16F15241   3.136   4.434   8.087  0.5313  0.0198 -0.6599
  139OSM   H16G15242   3.237   4.299   8.029 -0.4750 -0.3524 -0.3276
  139OSM   C17F15243   3.039   4.275   7.996  0.6653  0.3233 -0.8983
  139OSM   H17F15244   3.081   4.191   7.937  0.5528 -0.3772  0.0097
  139OSM   H17G15245   2.946   4.319   7.954  1.4978  1.1424 -1.9293
  139OSM   C18F15246   3.007   4.203   8.130 -0.2398  0.0131 -0.0085
  139OSM   H18F15247   2.971   4.293   8.185  1.5574 -0.0421  1.3003
  139OSM   H18G15248   3.098   4.158   8.175 -1.0162 -0.5089  1.0681
  139OSM   H18H15249   2.919   4.137   8.112  0.1681 -1.0671  1.8328
  140OSM      N15250   3.115   4.855   6.282  0.0359  0.4951 -0.1201
  140OSM    C1515251   3.164   4.732   6.348  0.5471 -0.1464 -0.0887
  140OSM   H15A15252   3.167   4.746   6.454  0.3985 -0.5451 -0.0302
  140OSM   H15B15253   3.267   4.709   6.324  0.2749 -1.0072 -0.4598
  140OSM   H15C15254   3.101   4.646   6.327  0.3111 -0.0324  0.1559
  140OSM    C1415255   3.093   4.833   6.135 -0.7499 -0.1673  0.0179
  140OSM   H14A15256   3.189   4.797   6.102 -0.2989  0.6764  0.4260
  140OSM   H14B15257   3.061   4.920   6.080  0.5153  0.6200  0.5387
  140OSM   H14C15258   3.016   4.759   6.114  0.4694 -1.0991 -1.2449
  140OSM    C1315259   2.978   4.884   6.334  0.1769 -0.4220 -0.0301
  140OSM   H13A15260   2.917   4.928   6.256  2.4318  0.5666 -1.2915
  140OSM   H13B15261   2.970   4.943   6.424  0.2971  0.3462 -0.5227
  140OSM   H13C15262   2.924   4.792   6.355  0.3956 -1.0028 -1.8712
  140OSM    C1215263   3.209   4.973   6.304 -0.0416  0.4890  0.8971
  140OSM   H12A15264   3.170   5.054   6.245 -0.1745 -0.1364  0.1125
  140OSM   H12B15265   3.305   4.945   6.261 -0.5068 -0.2627  0.3343
  140OSM    C1115266   3.225   5.000   6.456  0.4910 -0.0123  0.2377
  140OSM   H11A15267   3.321   5.055   6.458  0.5445  0.0280 -2.1928
  140OSM   H11B15268   3.257   4.913   6.518  0.9672 -2.8536 -3.8028
  140OSM      P15269   3.111   5.227   6.535 -0.2643  0.1423  0.4036
  140OSM    O1315270   3.111   5.298   6.405  0.0984 -0.2002  0.6040
  140OSM    O1415271   3.006   5.261   6.630 -0.4025  0.1338  0.3242
  140OSM    O1115272   3.253   5.241   6.597 -0.1550 -0.6195 -0.5176
  140OSM    O1215273   3.117   5.072   6.515  0.0073  0.3448  0.0730
  140OSM    C1S15274   3.301   5.360   6.668  0.4952  0.5977  0.4241
  140OSM    H1S15275   3.231   5.445   6.656  1.8180  1.8260  1.3382
  140OSM    H1T15276   3.402   5.385   6.628  0.0755  2.2463  0.3710
  140OSM     NF15277   3.347   5.447   6.902 -0.3461  0.4129  0.7360
  140OSM    HNF15278   3.436   5.446   6.948  0.4876  1.0416 -0.8249
  140OSM    C2S15279   3.307   5.329   6.819 -0.6861 -0.5020  0.1848
  140OSM    H2S15280   3.203   5.307   6.850 -0.9210 -0.8867 -0.8640
  140OSM    C3S15281   3.403   5.199   6.843 -1.0414 -0.5231 -0.2152
  140OSM    H3S15282   3.509   5.218   6.814 -0.5860 -2.9932 -0.2652
  140OSM     O315283   3.353   5.084   6.781 -0.2385  0.0873  0.8466
  140OSM    HO315284   3.297   5.121   6.713 -1.8676 -1.8093  1.0630
  140OSM    C4S15285   3.421   5.174   6.992  0.2465  0.5583  0.0434
  140OSM    H4S15286   3.516   5.213   7.030  1.6912 -1.7983 -1.0440
  140OSM    C5S15287   3.340   5.112   7.073  0.5595  0.3711 -0.2800
  140OSM    H5S15288   3.247   5.064   7.040 -0.4197  2.2701 -0.3716
  140OSM    C6S15289   3.380   5.092   7.221  0.2226  0.1781  0.2277
  140OSM    H6S15290   3.489   5.073   7.231  0.4126  1.5656  0.8514
  140OSM    H6T15291   3.328   5.005   7.266 -0.1276 -0.0618 -0.6200
  140OSM    C7S15292   3.350   5.216   7.298  1.0017 -0.0622  0.0659
  140OSM    H7S15293   3.251   5.261   7.275  0.6022 -0.3369  1.2147
  140OSM    H7T15294   3.428   5.282   7.255  0.1000  0.4328 -0.8616
  140OSM    C8S15295   3.378   5.212   7.444 -0.3433 -0.5185  0.4383
  140OSM    H8S15296   3.329   5.125   7.493  0.5074 -1.6797 -0.7450
  140OSM    H8T15297   3.324   5.298   7.489 -0.9547 -0.3770 -0.5484
  140OSM    C9S15298   3.530   5.213   7.472  0.0410 -0.2858  0.1795
  140OSM    H9S15299   3.587   5.271   7.396 -3.3015  1.3919 -1.1482
  140OSM    H9T15300   3.587   5.119   7.457 -0.0324 -0.5016  1.1878
  140OSM   C10S15301   3.550   5.282   7.611 -0.4158  0.0102  0.5532
  140OSM   H10S15302   3.471   5.272   7.688  2.2356 -0.9718  3.2599
  140OSM   H10T15303   3.570   5.391   7.608 -1.3899  0.2865  3.0732
  140OSM   C11S15304   3.676   5.223   7.693 -0.3192 -0.1016  0.0815
  140OSM   H11S15305   3.769   5.248   7.638  0.2937 -1.0614  0.6498
  140OSM   H11T15306   3.672   5.112   7.687  0.1732 -0.2739  2.2968
  140OSM   C12S15307   3.691   5.289   7.832 -0.9075 -0.2171  0.1698
  140OSM   H12S15308   3.679   5.400   7.830  2.5069  0.1913  0.4338
  140OSM   H12T15309   3.796   5.273   7.864  0.0375  0.0602 -2.6010
  140OSM   C13S15310   3.603   5.233   7.943  0.1790 -0.0060 -0.1087
  140OSM   H13S15311   3.624   5.125   7.959  0.2617 -0.0489 -0.5026
  140OSM   H13T15312   3.499   5.244   7.906 -0.3723  0.1460  1.4400
  140OSM   C14S15313   3.625   5.316   8.068  0.0177 -0.3242  0.7115
  140OSM   H14S15314   3.612   5.425   8.051 -0.0185 -0.4138  0.1549
  140OSM   H14T15315   3.731   5.298   8.098  0.3835  1.3082  0.4349
  140OSM   C15S15316   3.540   5.273   8.187 -0.8748  0.4190  0.1547
  140OSM   H15S15317   3.570   5.170   8.218  0.1334  0.9717  1.0429
  140OSM   H15T15318   3.435   5.250   8.157 -1.1619  2.5669 -0.5911
  140OSM   C16S15319   3.547   5.378   8.293 -0.9621  0.6431  0.2176
  140OSM   H16S15320   3.531   5.479   8.250 -0.5110  0.1716 -1.0845
  140OSM   H16T15321   3.646   5.373   8.343 -0.6154 -2.3515 -0.6796
  140OSM   C17S15322   3.439   5.362   8.406  0.0703 -0.2409  0.0960
  140OSM   H17S15323   3.343   5.367   8.350  0.1836  0.7509 -0.0275
  140OSM   H17T15324   3.434   5.452   8.471  2.7623  0.9111 -1.1742
  140OSM   C18S15325   3.451   5.226   8.477  0.1525 -0.2248  0.0118
  140OSM   H18S15326   3.548   5.211   8.530 -0.8839  0.1293  2.0671
  140OSM   H18T15327   3.436   5.151   8.396 -0.7948  0.8841 -0.8510
  140OSM   H18U15328   3.362   5.215   8.543 -0.2021 -1.2970 -0.6314
  140OSM    C1F15329   3.272   5.557   6.897 -0.7947 -0.1638 -0.3349
  140OSM     OF15330   3.163   5.564   6.852  0.0732  0.0005 -0.3662
  140OSM    C2F15331   3.345   5.685   6.937 -0.3215 -0.1916 -0.3750
  140OSM    H2F15332   3.327   5.754   6.852  2.0285  1.7843  0.6540
  140OSM    H2G15333   3.452   5.656   6.931  0.0679  0.3039  2.9609
  140OSM    C3F15334   3.305   5.743   7.072  0.1093 -0.6314  0.3215
  140OSM    H3F15335   3.194   5.743   7.084 -0.2451  0.0032 -2.7162
  140OSM    H3G15336   3.325   5.852   7.083 -2.0718 -0.4840  3.8313
  140OSM    C4F15337   3.380   5.681   7.193  0.6264 -0.5102 -0.1003
  140OSM    H4F15338   3.491   5.688   7.190  0.6555 -0.3182  1.1651
  140OSM    H4G15339   3.359   5.572   7.191 -0.1771 -0.3421 -1.2356
  140OSM    C5F15340   3.332   5.746   7.316 -0.4969 -0.2648  0.3483
  140OSM    H5F15341   3.222   5.739   7.328 -0.3187 -2.7844  0.7498
  140OSM    H5G15342   3.361   5.853   7.312  1.6474 -0.7472  2.0165
  140OSM    C6F15343   3.391   5.682   7.451 -0.4341 -0.7537  0.2428
  140OSM    H6F15344   3.501   5.696   7.440 -0.7423  2.2155  0.6996
  140OSM    H6G15345   3.369   5.573   7.460  1.4287 -1.3074 -1.3260
  140OSM    C7F15346   3.359   5.761   7.575  0.5274  0.1935  0.1534
  140OSM    H7F15347   3.256   5.758   7.617  0.4369  0.9793  0.0006
  140OSM    H7G15348   3.365   5.867   7.542  0.8145  0.4139  0.8930
  140OSM    C8F15349   3.461   5.736   7.693  0.1076 -0.3493 -0.3036
  140OSM    H8F15350   3.457   5.820   7.765 -1.0238 -1.0742  0.4735
  140OSM    H8G15351   3.567   5.739   7.657  0.1199 -1.8877 -0.4276
  140OSM    C9F15352   3.426   5.607   7.762  0.7701  0.1791 -0.3513
  140OSM    H9F15353   3.419   5.520   7.695 -3.0647 -0.7617  1.1634
  140OSM   C10F15354   3.390   5.590   7.892 -0.2194  0.4935 -0.9945
  140OSM   H10F15355   3.362   5.492   7.933 -0.8664  1.8478  1.9273
  140OSM   C11F15356   3.380   5.702   7.991 -0.2765  0.5092  0.0350
  140OSM   H11F15357   3.457   5.779   7.973 -0.6706  0.6859 -0.9144
  140OSM   H11G15358   3.410   5.653   8.087 -0.7185  2.8521  1.4092
  140OSM   C12F15359   3.243   5.782   7.982  0.4979 -0.6057  0.3187
  140OSM   H12F15360   3.231   5.822   7.879 -2.3868  3.0091  1.9767
  140OSM   H12G15361   3.254   5.861   8.059  1.3000 -0.2328 -0.1710
  140OSM   C13F15362   3.125   5.706   8.026 -0.9698  0.2842 -1.1503
  140OSM   H13F15363   3.107   5.617   7.962  1.7110 -0.6903 -0.6074
  140OSM   H13G15364   3.036   5.773   8.026 -0.6058  0.7944  0.5837
  140OSM   C14F15365   3.151   5.665   8.172  0.0496  0.0506 -0.1627
  140OSM   H14F15366   3.214   5.742   8.223 -0.7380  0.9692 -0.5534
  140OSM   H14G15367   3.204   5.568   8.172  0.7693  0.4332 -1.3037
  140OSM   C15F15368   3.018   5.636   8.243 -0.4753  0.2558  0.0687
  140OSM   H15F15369   2.977   5.550   8.186 -0.5005 -1.2260  2.2654
  140OSM   H15G15370   2.955   5.726   8.234  0.7748  1.4383  2.5976
  140OSM   C16F15371   3.035   5.596   8.391  0.8771 -0.0869 -0.1626
  140OSM   H16F15372   3.076   5.685   8.445 -0.6029 -1.1534  2.8613
  140OSM   H16G15373   3.105   5.511   8.408  1.3509  0.2461 -0.4400
  140OSM   C17F15374   2.908   5.568   8.466  0.1065 -0.0933  0.3863
  140OSM   H17F15375   2.888   5.461   8.444  2.5113 -0.5224  0.0822
  140OSM   H17G15376   2.820   5.632   8.443  0.3700  0.0999 -0.0970
  140OSM   C18F15377   2.919   5.577   8.620 -0.8157  0.3504 -0.2306
  140OSM   H18F15378   3.015   5.539   8.661 -2.1395 -0.4038  2.2719
  140OSM   H18G15379   2.843   5.520   8.676  0.4964  0.5225  1.8133
  140OSM   H18H15380   2.921   5.682   8.657 -1.7167  0.5015 -0.6159
  141OSM      N15381   2.169   0.268   5.884 -0.5080  0.4822  0.1445
  141OSM    C1515382   2.053   0.313   5.802 -0.0975  0.0238  0.0420
  141OSM   H15A15383   2.086   0.365   5.714 -1.7722  1.2987  0.1458
  141OSM   H15B15384   1.990   0.370   5.869 -0.6365 -2.2570  1.5783
  141OSM   H15C15385   1.990   0.229   5.777  0.3141 -0.2220 -0.1764
  141OSM    C1415386   2.274   0.210   5.797 -0.5844 -0.0704 -0.0522
  141OSM   H14A15387   2.335   0.138   5.848 -2.6242 -1.4111  0.5627
  141OSM   H14B15388   2.324   0.285   5.737  0.0910 -0.6982 -0.2683
  141OSM   H14C15389   2.229   0.148   5.721 -1.3654  1.0567 -0.5342
  141OSM    C1315390   2.232   0.376   5.959 -0.1987 -0.6352  0.0472
  141OSM   H13A15391   2.327   0.336   5.992  0.0531  0.8957  1.2605
  141OSM   H13B15392   2.167   0.415   6.036  1.8771 -0.2487  1.6823
  141OSM   H13C15393   2.253   0.461   5.896  1.9475 -0.9378  0.3215
  141OSM    C1215394   2.120   0.157   5.972  0.1677  0.0592 -0.1715
  141OSM   H12A15395   2.200   0.120   6.035  0.9530  0.5214 -0.8743
  141OSM   H12B15396   2.083   0.077   5.909 -2.4969  0.9945  0.1355
  141OSM    C1115397   2.016   0.188   6.080  0.4552 -0.7516  0.1167
  141OSM   H11A15398   1.921   0.222   6.033  0.8720  0.5439  0.2100
  141OSM   H11B15399   2.036   0.267   6.156 -0.5368 -2.8174  2.6182
  141OSM      P15400   1.871   0.005   6.212 -0.0192 -0.3426 -0.2531
  141OSM    O1315401   1.761   0.043   6.124  0.1574 -0.4584 -0.2052
  141OSM    O1415402   1.894  -0.137   6.250  0.0842 -0.2065  0.2603
  141OSM    O1115403   1.848   0.086   6.346  0.1548 -0.1403 -0.4595
  141OSM    O1215404   1.998   0.067   6.156 -0.0654  0.3243  1.1801
  141OSM    C1S15405   1.955   0.087   6.446  0.2022  0.2862  0.2275
  141OSM    H1S15406   2.032   0.156   6.406  1.4088 -0.6831  0.8674
  141OSM    H1T15407   2.000  -0.012   6.465 -0.1803  0.2436  0.9189
  141OSM     NF15408   2.031   0.137   6.672 -0.1519  0.0273 -0.5594
  141OSM    HNF15409   2.042   0.071   6.746 -1.2603 -0.9287 -1.2179
  141OSM    C2S15410   1.912   0.133   6.584 -0.1708  0.8596  0.6078
  141OSM    H2S15411   1.871   0.236   6.579 -0.6495  0.6958  1.2063
  141OSM    C3S15412   1.801   0.041   6.645  0.7792  0.6073  0.3689
  141OSM    H3S15413   1.842  -0.059   6.669  0.8671  0.2532 -1.1648
  141OSM     O315414   1.702   0.014   6.543 -0.0679  0.3937 -0.1266
  141OSM    HO315415   1.745   0.051   6.465 -1.0344  0.2192 -0.7407
  141OSM    C4S15416   1.733   0.105   6.762 -0.0567  0.0033  0.5120
  141OSM    H4S15417   1.759   0.068   6.862 -2.2286  0.1468  1.1602
  141OSM    C5S15418   1.638   0.203   6.755 -0.2484 -0.4742  0.6498
  141OSM    H5S15419   1.611   0.241   6.655  1.4870  1.0880  0.7385
  141OSM    C6S15420   1.579   0.265   6.880 -0.1684 -0.0536 -0.3720
  141OSM    H6S15421   1.525   0.359   6.856 -4.1310 -2.1308 -0.0671
  141OSM    H6T15422   1.655   0.292   6.956  1.0178 -1.0128 -1.2023
  141OSM    C7S15423   1.475   0.177   6.948  0.4974  0.1457 -0.0320
  141OSM    H7S15424   1.516   0.077   6.973 -1.4977 -0.0999  2.4715
  141OSM    H7T15425   1.391   0.172   6.875  1.7067  1.4278 -1.5344
  141OSM    C8S15426   1.431   0.236   7.083  0.2233 -0.4039 -1.0452
  141OSM    H8S15427   1.376   0.152   7.129  1.6485 -0.0181  1.4579
  141OSM    H8T15428   1.367   0.324   7.060  0.0280 -0.1080  0.5954
  141OSM    C9S15429   1.551   0.270   7.176  0.4000  0.3578  0.1915
  141OSM    H9S15430   1.588   0.372   7.150 -0.6380  0.6413 -0.1945
  141OSM    H9T15431   1.635   0.198   7.172  0.4794  0.4815 -0.3586
  141OSM   C10S15432   1.491   0.278   7.318 -0.2960  0.0007 -0.1190
  141OSM   H10S15433   1.437   0.185   7.346  1.0873 -0.8670 -0.3259
  141OSM   H10T15434   1.412   0.357   7.326 -0.0068  0.1962  0.8975
  141OSM   C11S15435   1.600   0.296   7.432  0.5432 -0.0316  0.3925
  141OSM   H11S15436   1.616   0.406   7.441 -1.9796  0.4250 -0.1907
  141OSM   H11T15437   1.691   0.255   7.385  0.7671 -0.4179  1.1674
  141OSM   C12S15438   1.552   0.239   7.566 -0.1407  0.0443 -0.3097
  141OSM   H12S15439   1.612   0.280   7.651  0.5844  0.0772 -0.8340
  141OSM   H12T15440   1.575   0.131   7.552  1.5377  0.4745 -1.1039
  141OSM   C13S15441   1.398   0.250   7.596  0.0758  0.0552  0.1036
  141OSM   H13S15442   1.334   0.201   7.519  0.3762  2.1188 -1.5471
  141OSM   H13T15443   1.371   0.358   7.597  1.9162  0.5416 -0.6592
  141OSM   C14S15444   1.351   0.196   7.731 -0.8253  0.0017  0.0028
  141OSM   H14S15445   1.372   0.088   7.721  0.8271  0.2779  0.3680
  141OSM   H14T15446   1.247   0.215   7.765 -0.8723 -1.5831  0.7956
  141OSM   C15S15447   1.436   0.239   7.855  0.0894  0.7175 -0.2904
  141OSM   H15S15448   1.451   0.349   7.863 -1.2054  0.9816 -1.3188
  141OSM   H15T15449   1.537   0.194   7.845  0.6400  1.8495  0.0295
  141OSM   C16S15450   1.375   0.197   7.986 -0.0579  0.0051  0.8405
  141OSM   H16S15451   1.395   0.088   7.993  3.0595  0.6170  2.2455
  141OSM   H16T15452   1.265   0.213   7.986  0.0872  1.2658 -1.1233
  141OSM   C17S15453   1.446   0.261   8.103  0.4657  0.0437  0.5764
  141OSM   H17S15454   1.449   0.370   8.086 -1.7150  0.2215  1.2642
  141OSM   H17T15455   1.552   0.227   8.093  0.6526  0.5745  0.7255
  141OSM   C18S15456   1.385   0.235   8.239 -0.1611 -0.9388  0.0125
  141OSM   H18S15457   1.448   0.294   8.309  1.2156 -0.0153 -1.9806
  141OSM   H18T15458   1.396   0.130   8.275  0.6058 -0.3948  1.3898
  141OSM   H18U15459   1.277   0.260   8.247  0.1615 -0.1696  2.2666
  141OSM    C1F15460   2.125   0.223   6.650 -0.2306 -0.2490  0.2903
  141OSM     OF15461   2.123   0.311   6.563  0.2113  0.2124 -0.1795
  141OSM    C2F15462   2.254   0.208   6.723  0.0038  0.1884 -0.1263
  141OSM    H2F15463   2.332   0.214   6.645 -1.1774 -0.0711 -1.3491
  141OSM    H2G15464   2.260   0.105   6.764 -1.8362 -0.5715 -1.6773
  141OSM    C3F15465   2.278   0.329   6.823  0.4592 -0.8303 -0.3088
  141OSM    H3F15466   2.226   0.296   6.915 -0.2520 -2.0015 -1.1236
  141OSM    H3G15467   2.231   0.424   6.792  0.6622 -1.2163 -1.8800
  141OSM    C4F15468   2.424   0.346   6.860  0.0724  0.1615 -0.1605
  141OSM    H4F15469   2.435   0.443   6.914  2.0285  0.5442 -1.2325
  141OSM    H4G15470   2.473   0.355   6.761  2.2474 -1.3226  0.7460
  141OSM    C5F15471   2.475   0.242   6.955 -0.2816 -0.0362 -0.0070
  141OSM    H5F15472   2.579   0.219   6.924 -0.6251 -0.3494 -0.9211
  141OSM    H5G15473   2.415   0.148   6.954  0.6721 -0.6772  1.3794
  141OSM    C6F15474   2.483   0.280   7.105 -0.7481  0.7673 -0.4197
  141OSM    H6F15475   2.526   0.383   7.102 -2.2103  1.3956 -0.0533
  141OSM    H6G15476   2.560   0.224   7.162 -0.8682  2.0471  1.0406
  141OSM    C7F15477   2.348   0.278   7.174  0.4073 -0.1162 -0.1226
  141OSM    H7F15478   2.313   0.173   7.176  0.4489 -0.1138  1.3371
  141OSM    H7G15479   2.279   0.345   7.117  1.8872  1.0979 -0.5059
  141OSM    C8F15480   2.343   0.340   7.320 -0.7120  0.2186 -0.0830
  141OSM    H8F15481   2.387   0.441   7.308  1.4597 -0.7473 -0.4139
  141OSM    H8G15482   2.419   0.279   7.373 -1.0789 -0.8360 -0.7463
  141OSM    C9F15483   2.202   0.335   7.380  0.1398 -0.5808  0.1402
  141OSM    H9F15484   2.115   0.343   7.313 -0.8030  0.4659  1.4615
  141OSM   C10F15485   2.184   0.337   7.511 -0.4022 -0.0563 -0.4578
  141OSM   H10F15486   2.085   0.324   7.558 -0.1313 -0.1589  0.0986
  141OSM   C11F15487   2.295   0.345   7.616  0.5687  0.3664  0.3174
  141OSM   H11F15488   2.379   0.278   7.586 -1.8607 -2.9396  0.5419
  141OSM   H11G15489   2.256   0.300   7.711  0.2291 -0.5003 -0.2216
  141OSM   C12F15490   2.339   0.489   7.638  0.0322  0.1061 -0.2868
  141OSM   H12F15491   2.251   0.556   7.653  0.6268  0.4475  1.8242
  141OSM   H12G15492   2.390   0.534   7.550 -0.9096  0.5376 -0.6151
  141OSM   C13F15493   2.424   0.516   7.766  0.2563 -0.2548  0.2517
  141OSM   H13F15494   2.483   0.608   7.744  0.0679 -0.1020  0.3862
  141OSM   H13G15495   2.495   0.430   7.768  0.7038  0.1175  0.4292
  141OSM   C14F15496   2.349   0.516   7.897 -0.2389 -0.0011  0.4730
  141OSM   H14F15497   2.305   0.414   7.906 -0.4470 -0.0121 -0.5734
  141OSM   H14G15498   2.261   0.584   7.898 -0.2855 -0.0420 -0.5541
  141OSM   C15F15499   2.445   0.556   8.011  0.6252 -0.2526  0.3591
  141OSM   H15F15500   2.472   0.662   7.995  0.5187 -0.4950 -1.4464
  141OSM   H15G15501   2.536   0.492   8.008  0.7236 -0.4187  3.8616
  141OSM   C16F15502   2.383   0.538   8.148  0.0454  0.0187  0.5753
  141OSM   H16F15503   2.320   0.447   8.145  1.5242 -1.0287  0.9648
  141OSM   H16G15504   2.319   0.626   8.171 -0.3936  0.2693 -1.4808
  141OSM   C17F15505   2.485   0.518   8.265 -0.0442  0.6453  0.4467
  141OSM   H17F15506   2.564   0.596   8.257 -1.4900  2.4817  3.3582
  141OSM   H17G15507   2.537   0.422   8.243  0.3475  1.5403 -2.8126
  141OSM   C18F15508   2.431   0.527   8.404  0.1636  0.1344 -0.0993
  141OSM   H18F15509   2.342   0.593   8.411 -0.3605 -0.7665  2.1601
  141OSM   H18G15510   2.511   0.560   8.474  0.2359 -1.7306  0.7338
  141OSM   H18H15511   2.399   0.426   8.437 -0.5786  0.6996  0.9292
  142OSM      N15512   2.374   2.269   6.073 -0.6146 -0.3299  0.0874
  142OSM    C1515513   2.374   2.276   5.927  0.0872 -0.6921 -0.2853
  142OSM   H15A15514   2.364   2.378   5.893 -2.9193 -1.6835 -2.5914
  142OSM   H15B15515   2.287   2.239   5.875  0.0141  1.5251 -1.7903
  142OSM   H15C15516   2.461   2.235   5.879 -0.7138  1.0539 -3.3033
  142OSM    C1415517   2.505   2.329   6.126 -0.4200  0.0933  0.0796
  142OSM   H14A15518   2.597   2.277   6.100 -0.2121  0.4383  0.1278
  142OSM   H14B15519   2.502   2.338   6.233  2.2773  1.3639  0.1055
  142OSM   H14C15520   2.515   2.430   6.090 -0.8080  0.5160  1.1586
  142OSM    C1315521   2.262   2.347   6.124  0.0267 -0.3624 -1.0363
  142OSM   H13A15522   2.177   2.339   6.057  1.0315  0.7827 -2.4767
  142OSM   H13B15523   2.289   2.451   6.115  0.2747 -0.4628 -1.4252
  142OSM   H13C15524   2.245   2.306   6.223  0.3954 -1.4034 -1.3976
  142OSM    C1215525   2.356   2.122   6.116  0.5456  0.3183  0.2038
  142OSM   H12A15526   2.425   2.057   6.065  0.6651  2.0054 -1.8404
  142OSM   H12B15527   2.255   2.095   6.090  0.8468  1.7887 -2.7110
  142OSM    C1115528   2.368   2.098   6.274  0.6272  0.4468  0.6585
  142OSM   H11A15529   2.458   2.142   6.322  0.1406 -0.8026  2.7815
  142OSM   H11B15530   2.385   1.990   6.293  0.5061  0.4454  0.7651
  142OSM      P15531   2.136   2.052   6.384  0.1953 -0.2660  0.0002
  142OSM    O1315532   2.046   2.131   6.469 -0.0884  0.0932  0.0294
  142OSM    O1415533   2.068   1.988   6.263 -0.2339 -0.1349  0.0477
  142OSM    O1115534   2.201   1.948   6.472  0.0833 -0.1174 -0.0385
  142OSM    O1215535   2.251   2.149   6.343  0.1932  0.1841  0.7817
  142OSM    C1S15536   2.305   1.971   6.571 -0.1272  0.0481 -1.0954
  142OSM    H1S15537   2.354   2.070   6.561 -0.9189  0.3694 -1.8698
  142OSM    H1T15538   2.380   1.890   6.560  1.1695  1.3015 -1.6463
  142OSM     NF15539   2.349   2.007   6.824  0.7260 -0.0629 -0.0635
  142OSM    HNF15540   2.397   1.943   6.884 -1.3354 -1.7062 -0.1100
  142OSM    C2S15541   2.248   1.968   6.723  0.4035 -0.4557 -0.5676
  142OSM    H2S15542   2.161   2.037   6.725 -2.6252 -4.1040  1.6299
  142OSM    C3S15543   2.194   1.830   6.757 -0.1723 -0.3631  0.2783
  142OSM    H3S15544   2.285   1.766   6.754  0.4972  0.5036  1.5838
  142OSM     O315545   2.112   1.776   6.652 -0.4266 -0.5718  0.2362
  142OSM    HO315546   2.125   1.833   6.575 -0.0710  0.1408  0.8076
  142OSM    C4S15547   2.128   1.822   6.888  0.3900 -0.1287 -0.2809
  142OSM    H4S15548   2.181   1.776   6.973 -2.0359 -0.8393  0.9002
  142OSM    C5S15549   1.999   1.857   6.914  0.2385 -0.6254  0.1617
  142OSM    H5S15550   1.934   1.898   6.836 -0.9949  0.1404  1.5508
  142OSM    C6S15551   1.934   1.856   7.050 -0.8685  0.4351  0.2140
  142OSM    H6S15552   1.891   1.755   7.065  0.0493  0.0086 -0.0005
  142OSM    H6T15553   1.844   1.919   7.033 -1.3798  0.2589  2.1334
  142OSM    C7S15554   2.007   1.912   7.175  0.0046  0.2604  0.2797
  142OSM    H7S15555   2.016   2.021   7.161 -0.8211  0.4331  1.0248
  142OSM    H7T15556   2.104   1.860   7.189 -0.7083 -2.0461 -2.7126
  142OSM    C8S15557   1.923   1.899   7.305  0.8354 -0.3853 -0.2001
  142OSM    H8S15558   1.899   1.793   7.328  1.2510 -0.4786 -0.1913
  142OSM    H8T15559   1.833   1.963   7.296 -0.6469 -2.4973 -0.7693
  142OSM    C9S15560   2.006   1.942   7.428  0.7873  0.2793  0.3268
  142OSM    H9S15561   2.042   2.047   7.424  1.1296  0.1303 -0.4774
  142OSM    H9T15562   2.098   1.887   7.457 -0.0566 -0.8828  0.8712
  142OSM   C10S15563   1.915   1.930   7.549 -0.0632 -0.9059  0.1311
  142OSM   H10S15564   1.894   1.822   7.559  0.8553 -0.9445  1.9399
  142OSM   H10T15565   1.818   1.981   7.532 -0.1601 -1.3859 -0.7636
  142OSM   C11S15566   1.973   1.974   7.680 -0.0890  0.0105 -0.0285
  142OSM   H11S15567   1.985   2.084   7.677 -1.8238  0.1948 -0.8189
  142OSM   H11T15568   2.069   1.923   7.701 -0.6241 -0.6724  0.8195
  142OSM   C12S15569   1.878   1.963   7.796 -0.2476  0.5700  0.4460
  142OSM   H12S15570   1.847   1.857   7.800 -0.0868  0.5494  1.1331
  142OSM   H12T15571   1.797   2.036   7.775 -1.2150  0.1212  2.5389
  142OSM   C13S15572   1.937   1.992   7.929  0.1903 -0.1269 -0.0072
  142OSM   H13S15573   1.949   2.102   7.925  2.0407 -0.3583 -1.2658
  142OSM   H13T15574   2.035   1.945   7.953  0.7943  0.0270 -2.0645
  142OSM   C14S15575   1.829   1.959   8.031 -0.1722 -0.5871  0.1972
  142OSM   H14S15576   1.790   1.858   8.005  1.7552 -1.4801  0.7313
  142OSM   H14T15577   1.746   2.029   8.007  0.4296 -0.4597 -1.5114
  142OSM   C15S15578   1.880   1.971   8.182  0.5103  0.4940 -0.1953
  142OSM   H15S15579   1.915   2.076   8.197 -0.2346  0.7439 -0.1717
  142OSM   H15T15580   1.965   1.902   8.200  1.0605  0.4909 -2.6350
  142OSM   C16S15581   1.771   1.952   8.288  0.5477  0.0194 -1.0232
  142OSM   H16S15582   1.734   1.848   8.277 -0.5811  0.4220 -1.0905
  142OSM   H16T15583   1.690   2.026   8.270  0.3886  0.4373  1.1691
  142OSM   C17S15584   1.808   1.966   8.442  0.2289 -0.6034 -0.1018
  142OSM   H17S15585   1.883   1.899   8.490 -0.6478 -2.0111 -0.6756
  142OSM   H17T15586   1.716   1.940   8.498 -0.7926  1.1536 -0.9346
  142OSM   C18S15587   1.846   2.114   8.478 -0.0234  0.4449 -0.5651
  142OSM   H18S15588   1.855   2.136   8.587  0.8194 -1.0874 -0.3103
  142OSM   H18T15589   1.776   2.188   8.434 -1.0749 -0.6045 -0.6949
  142OSM   H18U15590   1.942   2.144   8.432  0.2457  0.8826  0.2733
  142OSM    C1F15591   2.401   2.130   6.827 -0.5581  0.3561  0.4992
  142OSM     OF15592   2.369   2.217   6.745  0.2469  0.1747  0.1104
  142OSM    C2F15593   2.515   2.154   6.921 -0.3754  1.0449 -0.1365
  142OSM    H2F15594   2.539   2.262   6.917  0.5306  0.8089 -1.1070
  142OSM    H2G15595   2.602   2.107   6.871  1.1221  1.7387  1.7913
  142OSM    C3F15596   2.488   2.100   7.058  0.6762 -0.0237  0.2943
  142OSM    H3F15597   2.572   2.123   7.126  1.1981  0.7598 -0.6089
  142OSM    H3G15598   2.499   1.990   7.047  0.0983  0.0837 -1.6302
  142OSM    C4F15599   2.351   2.129   7.126 -0.3324  0.1127 -0.4492
  142OSM    H4F15600   2.262   2.090   7.073  0.9107 -3.9046  0.2346
  142OSM    H4G15601   2.346   2.240   7.128  2.8834  0.3641 -2.6879
  142OSM    C5F15602   2.341   2.073   7.271  0.4845  1.1579 -0.1494
  142OSM    H5F15603   2.371   1.966   7.259 -0.5812  0.9327 -0.9272
  142OSM    H5G15604   2.233   2.074   7.296  0.8447  1.0432  1.4588
  142OSM    C6F15605   2.440   2.129   7.376 -0.4655 -0.1248  0.1509
  142OSM    H6F15606   2.432   2.238   7.393  1.8107 -0.1760  1.8434
  142OSM    H6G15607   2.543   2.111   7.337  0.2536 -0.2622  2.0250
  142OSM    C7F15608   2.419   2.070   7.516 -0.4917 -0.4235  0.4774
  142OSM    H7F15609   2.508   2.087   7.580 -0.6298  1.5082  0.1670
  142OSM    H7G15610   2.421   1.960   7.497 -2.5298 -0.1626 -1.4793
  142OSM    C8F15611   2.295   2.122   7.582  0.8931  0.2414 -0.3617
  142OSM    H8F15612   2.210   2.074   7.528  0.0576  2.8735 -1.4982
  142OSM    H8G15613   2.279   2.231   7.567 -1.1320 -0.1849 -1.5515
  142OSM    C9F15614   2.310   2.080   7.725 -0.2997  0.5192  0.1724
  142OSM    H9F15615   2.305   1.972   7.746 -2.2528  0.7758  1.1678
  142OSM   C10F15616   2.335   2.165   7.823  0.4907  0.1405 -0.0218
  142OSM   H10F15617   2.366   2.127   7.922 -0.5540  1.3555  0.7832
  142OSM   C11F15618   2.343   2.313   7.813 -0.5713 -0.5337  0.8845
  142OSM   H11F15619   2.238   2.346   7.801 -0.9422 -1.6282  1.0287
  142OSM   H11G15620   2.407   2.345   7.728 -1.5435  1.3275  0.8402
  142OSM   C12F15621   2.397   2.371   7.941 -0.0498  0.1254 -0.5995
  142OSM   H12F15622   2.491   2.315   7.963  0.4322  1.0936 -0.1734
  142OSM   H12G15623   2.324   2.338   8.018  2.9591 -1.2082  1.8303
  142OSM   C13F15624   2.428   2.518   7.947 -0.0174 -0.1449  0.2143
  142OSM   H13F15625   2.338   2.583   7.939 -0.5770 -0.7134  1.6339
  142OSM   H13G15626   2.489   2.541   7.857 -0.4651  0.1447 -0.0159
  142OSM   C14F15627   2.502   2.563   8.067 -0.0610  0.5561  0.6411
  142OSM   H14F15628   2.599   2.510   8.072 -0.4438 -0.6743 -3.2561
  142OSM   H14G15629   2.433   2.527   8.147 -1.7222  0.8923 -0.6007
  142OSM   C15F15630   2.539   2.713   8.082 -0.3188  0.3886  0.4366
  142OSM   H15F15631   2.443   2.769   8.073  0.0787  0.6568 -2.7285
  142OSM   H15G15632   2.599   2.742   7.993  1.1598 -5.0167 -0.5276
  142OSM   C16F15633   2.605   2.752   8.215 -0.4065  0.2198 -0.6010
  142OSM   H16F15634   2.697   2.692   8.233 -0.2519  1.2235  2.1910
  142OSM   H16G15635   2.537   2.730   8.301 -0.2593 -2.1673 -1.0450
  142OSM   C17F15636   2.643   2.905   8.225 -0.2512 -0.9468  0.4354
  142OSM   H17F15637   2.561   2.977   8.204  1.7747  1.2954  0.0464
  142OSM   H17G15638   2.703   2.934   8.135 -1.9775  1.8012  0.1021
  142OSM   C18F15639   2.713   2.944   8.355  0.4237 -0.4543 -0.3356
  142OSM   H18F15640   2.762   3.043   8.341 -0.3173 -0.1604 -0.8800
  142OSM   H18G15641   2.792   2.869   8.376 -1.2737 -1.8241  1.3602
  142OSM   H18H15642   2.636   2.944   8.435 -0.0588 -1.9710 -0.7981
  143OSM      N15643   4.182   4.466   6.207 -0.1241 -0.3285 -0.1340
  143OSM    C1515644   4.191   4.561   6.327 -0.6522 -0.2096 -0.3414
  143OSM   H15A15645   4.294   4.572   6.359 -0.9808 -0.3637  0.7934
  143OSM   H15B15646   4.144   4.526   6.418 -0.9014  1.8887  0.3601
  143OSM   H15C15647   4.148   4.654   6.295  2.4087  1.4341  0.1040
  143OSM    C1415648   4.053   4.498   6.140 -0.0052 -0.6691 -0.0791
  143OSM   H14A15649   3.963   4.466   6.190  1.3985 -0.4284  2.6796
  143OSM   H14B15650   4.060   4.455   6.041 -3.1729 -2.3424  0.3701
  143OSM   H14C15651   4.050   4.602   6.110 -2.6763 -0.7613 -0.2673
  143OSM    C1315652   4.302   4.501   6.126  0.2638 -0.4270  0.2227
  143OSM   H13A15653   4.302   4.609   6.124 -2.0901 -0.3614  1.5454
  143OSM   H13B15654   4.281   4.468   6.025 -2.3138 -0.3289  0.6788
  143OSM   H13C15655   4.385   4.448   6.170  1.1347  1.4913  0.9407
  143OSM    C1215656   4.175   4.327   6.261 -0.4741  0.4461 -0.5444
  143OSM   H12A15657   4.074   4.303   6.290 -0.5472  1.2315 -0.1505
  143OSM   H12B15658   4.239   4.328   6.349  0.2815  2.2445 -1.0765
  143OSM    C1115659   4.224   4.211   6.161  0.2207  0.4966  0.1563
  143OSM   H11A15660   4.170   4.214   6.064 -0.0392  2.5952  0.3507
  143OSM   H11B15661   4.208   4.108   6.199  1.0693 -0.1754 -1.2259
  143OSM      P15662   4.472   4.200   6.233 -0.2876  0.3222  0.3079
  143OSM    O1315663   4.551   4.080   6.194 -0.7975  0.3670 -0.6918
  143OSM    O1415664   4.550   4.321   6.258 -0.0137  0.3093  0.1161
  143OSM    O1115665   4.398   4.161   6.365  0.3955  0.2000 -0.5018
  143OSM    O1215666   4.360   4.224   6.127  0.0691  0.1560  0.1288
  143OSM    C1S15667   4.474   4.145   6.481  0.0952 -0.3384  0.2439
  143OSM    H1S15668   4.521   4.238   6.520  0.1176  0.0192 -0.6457
  143OSM    H1T15669   4.546   4.060   6.477  0.3668 -0.0127 -2.8364
  143OSM     NF15670   4.471   4.106   6.745 -0.2947 -0.5244  0.1415
  143OSM    HNF15671   4.482   4.019   6.793  0.5374  0.7112  2.2656
  143OSM    C2S15672   4.398   4.115   6.620 -0.1324  0.0689  0.0316
  143OSM    H2S15673   4.320   4.191   6.645 -0.9081 -0.9717  0.8110
  143OSM    C3S15674   4.321   3.986   6.600 -0.6006 -0.0220  0.0166
  143OSM    H3S15675   4.396   3.906   6.616 -1.0998  0.0936  3.3658
  143OSM     O315676   4.271   3.970   6.466  0.7007  1.0195  0.1901
  143OSM    HO315677   4.308   4.044   6.416  1.4913 -0.1633 -1.0250
  143OSM    C4S15678   4.210   3.978   6.695  0.7004 -0.2645  0.0956
  143OSM    H4S15679   4.245   3.938   6.792  1.0800 -0.1667 -0.0013
  143OSM    C5S15680   4.078   4.021   6.676 -0.0775  0.7486  0.1164
  143OSM    H5S15681   4.046   4.065   6.581 -1.1121 -0.2773 -0.0261
  143OSM    C6S15682   3.965   4.014   6.780 -0.1972 -0.0411 -0.3336
  143OSM    H6S15683   3.901   3.927   6.754  0.5934 -1.0968  1.1931
  143OSM    H6T15684   3.895   4.099   6.763 -2.1147 -1.0238  2.3282
  143OSM    C7S15685   4.009   4.005   6.930  0.0914  0.4923 -0.1387
  143OSM    H7S15686   4.082   4.085   6.953  0.4335 -0.2232  1.3283
  143OSM    H7T15687   4.066   3.911   6.946 -0.2340  0.5353  1.3888
  143OSM    C8S15688   3.884   4.008   7.025 -0.0059  0.9424 -0.1565
  143OSM    H8S15689   3.809   3.946   6.971  2.0010 -2.7067  0.9938
  143OSM    H8T15690   3.839   4.108   7.040  1.4904  1.5472  0.3837
  143OSM    C9S15691   3.905   3.949   7.165 -0.4587  0.3970  0.8157
  143OSM    H9S15692   3.978   4.016   7.216 -0.0289  1.4047 -1.0899
  143OSM    H9T15693   3.953   3.849   7.153 -3.1389 -0.9091  0.5862
  143OSM   C10S15694   3.773   3.931   7.239  0.3058 -0.3383  0.0334
  143OSM   H10S15695   3.695   3.868   7.189 -1.2280  0.6308  1.1723
  143OSM   H10T15696   3.729   4.032   7.252  0.8326  0.0428 -1.0338
  143OSM   C11S15697   3.796   3.864   7.373  0.2574 -0.1574  0.0879
  143OSM   H11S15698   3.879   3.791   7.367 -1.7393 -2.4352 -0.5855
  143OSM   H11T15699   3.704   3.804   7.393  1.1985 -1.6687 -0.0617
  143OSM   C12S15700   3.810   3.962   7.493 -0.2427  0.3207  1.0273
  143OSM   H12S15701   3.728   4.036   7.495 -0.0683  0.4956  1.8760
  143OSM   H12T15702   3.906   4.015   7.473  0.4870 -1.4557 -0.4729
  143OSM   C13S15703   3.818   3.895   7.624 -0.3083  0.0429 -0.3920
  143OSM   H13S15704   3.914   3.840   7.634 -0.1675  0.4714  0.7533
  143OSM   H13T15705   3.738   3.818   7.633 -0.2644  0.1539  1.1826
  143OSM   C14S15706   3.824   3.996   7.746 -0.0682 -0.1553  0.1718
  143OSM   H14S15707   3.731   4.056   7.752 -0.2718 -0.4608  0.1042
  143OSM   H14T15708   3.906   4.067   7.723 -0.6698 -0.1370 -2.0271
  143OSM   C15S15709   3.858   3.938   7.880 -0.0081 -0.4253  0.1774
  143OSM   H15S15710   3.967   3.914   7.885 -0.0774 -0.8819 -0.4323
  143OSM   H15T15711   3.798   3.846   7.893  0.3065 -0.5515  0.7488
  143OSM   C16S15712   3.821   4.034   7.998  0.3133  0.5239 -0.7150
  143OSM   H16S15713   3.714   4.062   7.999  0.6748  1.9773  2.2606
  143OSM   H16T15714   3.885   4.125   7.999  1.0346  0.0186  0.5663
  143OSM   C17S15715   3.841   3.954   8.128 -1.0777 -0.0398 -0.0863
  143OSM   H17S15716   3.789   3.857   8.110  0.2193 -0.8122  0.2767
  143OSM   H17T15717   3.776   4.007   8.201  0.6757  3.2767 -0.8411
  143OSM   C18S15718   3.979   3.951   8.190 -0.4198  0.2232 -0.6044
  143OSM   H18S15719   4.043   3.875   8.140  0.3846  1.3604 -1.3388
  143OSM   H18T15720   3.978   3.924   8.298  0.2921  0.4746 -0.5312
  143OSM   H18U15721   4.032   4.049   8.189 -0.0030  0.0174  0.5207
  143OSM    C1F15722   4.531   4.214   6.798  0.7800 -0.4304  0.2220
  143OSM     OF15723   4.537   4.324   6.745  0.4442 -0.3333  0.0125
  143OSM    C2F15724   4.593   4.197   6.934 -0.3837  0.1871  0.1550
  143OSM    H2F15725   4.704   4.200   6.939 -0.3332  2.6429 -1.9235
  143OSM    H2G15726   4.572   4.096   6.975 -1.1236 -0.1727 -1.0769
  143OSM    C3F15727   4.533   4.305   7.034  0.1033  0.8434  0.4968
  143OSM    H3F15728   4.426   4.278   7.047  0.5742 -1.5888 -0.3664
  143OSM    H3G15729   4.543   4.409   6.994 -0.7583  2.0432  3.2654
  143OSM    C4F15730   4.602   4.315   7.171 -0.7112  0.2507 -0.4182
  143OSM    H4F15731   4.711   4.330   7.160 -0.0743 -0.1933  4.1615
  143OSM    H4G15732   4.593   4.218   7.224 -0.3843  0.3470 -0.1865
  143OSM    C5F15733   4.538   4.418   7.257  0.0599  0.1328 -0.6793
  143OSM    H5F15734   4.432   4.390   7.278 -0.7581  1.6498 -2.5893
  143OSM    H5G15735   4.532   4.517   7.208 -0.8854  1.0817  1.3113
  143OSM    C6F15736   4.614   4.422   7.392  0.1282 -0.6298  0.1294
  143OSM    H6F15737   4.575   4.508   7.450 -2.1332  0.0569 -2.3371
  143OSM    H6G15738   4.724   4.429   7.377  0.1447  1.1611  0.9864
  143OSM    C7F15739   4.581   4.299   7.480  0.4148 -0.7409  0.5445
  143OSM    H7F15740   4.584   4.202   7.426 -0.0753  0.5458 -1.8626
  143OSM    H7G15741   4.476   4.316   7.514  0.0331 -0.9370 -0.5107
  143OSM    C8F15742   4.666   4.288   7.613  0.2067  0.0348  0.0589
  143OSM    H8F15743   4.768   4.264   7.575  1.0840  3.8131 -0.1461
  143OSM    H8G15744   4.646   4.195   7.670  0.0585 -1.0201 -1.6630
  143OSM    C9F15745   4.662   4.408   7.704  0.4466  0.7356  0.5196
  143OSM    H9F15746   4.741   4.475   7.668  3.2392 -0.6307  3.8256
  143OSM   C10F15747   4.593   4.430   7.817 -0.1794  0.4497 -0.0056
  143OSM   H10F15748   4.603   4.527   7.867 -0.3285  0.7941 -0.6487
  143OSM   C11F15749   4.495   4.331   7.877  0.2258  0.1470 -0.5514
  143OSM   H11F15750   4.448   4.261   7.805 -1.0565  0.8387 -0.4052
  143OSM   H11G15751   4.410   4.392   7.913 -0.1183 -1.0391  0.6601
  143OSM   C12F15752   4.556   4.244   7.986  0.1869  0.2118 -0.7032
  143OSM   H12F15753   4.667   4.257   7.984  0.1649  0.3935 -0.7659
  143OSM   H12G15754   4.529   4.142   7.952 -0.4599  0.8283 -2.0723
  143OSM   C13F15755   4.505   4.276   8.127  0.2116  0.2586 -0.3169
  143OSM   H13F15756   4.399   4.244   8.120  0.1273  0.2144  1.1262
  143OSM   H13G15757   4.511   4.385   8.145  0.2617  0.0046  1.2516
  143OSM   C14F15758   4.571   4.192   8.236  0.4211 -0.1617 -0.0602
  143OSM   H14F15759   4.677   4.226   8.246  0.1680  1.5390 -2.4932
  143OSM   H14G15760   4.574   4.090   8.193  0.1399  0.4605 -1.5959
  143OSM   C15F15761   4.505   4.213   8.370  0.3828 -0.3855  0.0718
  143OSM   H15F15762   4.400   4.179   8.371 -0.4117  1.9226 -0.4800
  143OSM   H15G15763   4.497   4.323   8.385  1.6386 -0.3177  0.3530
  143OSM   C16F15764   4.584   4.144   8.482  0.4089 -0.2714 -0.1735
  143OSM   H16F15765   4.612   4.042   8.448  0.6908 -0.6852  1.2740
  143OSM   H16G15766   4.529   4.142   8.579  1.6043 -0.5013  0.5105
  143OSM   C17F15767   4.708   4.227   8.517 -0.4727  0.4900 -0.4555
  143OSM   H17F15768   4.790   4.239   8.444  1.1867 -1.5006  1.0582
  143OSM   H17G15769   4.756   4.170   8.599 -0.0728  0.8717 -0.4228
  143OSM   C18F15770   4.679   4.362   8.575 -0.5440 -0.0346  0.2100
  143OSM   H18F15771   4.594   4.349   8.646  0.9550  1.1786  2.2644
  143OSM   H18G15772   4.657   4.428   8.489  0.5212  0.9702  0.7014
  143OSM   H18H15773   4.759   4.412   8.634 -1.5879  2.0274 -0.0576
  144OSM      N15774   3.555   3.652   5.810  0.1678 -0.8115 -0.1440
  144OSM    C1515775   3.558   3.552   5.703  0.2981 -0.5590 -0.6737
  144OSM   H15A15776   3.557   3.603   5.608  2.0682  1.3153  0.2925
  144OSM   H15B15777   3.467   3.493   5.709  0.3179 -0.6885 -1.6328
  144OSM   H15C15778   3.643   3.488   5.719  0.4712 -0.1869 -0.0782
  144OSM    C1415779   3.681   3.727   5.795 -0.6730 -0.0256  0.4343
  144OSM   H14A15780   3.671   3.795   5.712 -1.0867  1.5078  1.7168
  144OSM   H14B15781   3.764   3.662   5.773  0.3232  1.7680 -1.2243
  144OSM   H14C15782   3.698   3.784   5.885  2.2695 -0.7888  0.3875
  144OSM    C1315783   3.427   3.732   5.783 -0.5606 -0.6917 -0.1160
  144OSM   H13A15784   3.416   3.814   5.852 -0.6338 -0.6912 -0.1280
  144OSM   H13B15785   3.343   3.665   5.792 -0.9246  0.0415  2.1971
  144OSM   H13C15786   3.426   3.769   5.681 -2.2183 -2.0533 -0.6111
  144OSM    C1215787   3.541   3.602   5.952 -0.4618  0.9697  0.4842
  144OSM   H12A15788   3.535   3.684   6.021 -0.5133  2.0870 -0.8392
  144OSM   H12B15789   3.628   3.554   5.994 -1.0045  0.3914  0.9707
  144OSM    C1115790   3.418   3.511   5.983  0.0495 -0.0196 -0.3101
  144OSM   H11A15791   3.436   3.455   6.077 -0.8076  2.2079  1.2036
  144OSM   H11B15792   3.395   3.442   5.899  2.5055 -0.3670 -0.7400
  144OSM      P15793   3.179   3.560   6.080 -0.4554 -0.2291 -0.0438
  144OSM    O1315794   3.105   3.691   6.097 -0.2063 -0.3805  0.1347
  144OSM    O1415795   3.105   3.446   6.016  0.5260 -0.0141 -0.3575
  144OSM    O1115796   3.227   3.520   6.224  0.9773  0.4746 -0.6313
  144OSM    O1215797   3.309   3.598   5.998 -0.5691  0.0499 -0.1957
  144OSM    C1S15798   3.282   3.622   6.305  0.2290 -0.1526  0.1197
  144OSM    H1S15799   3.252   3.727   6.287  0.7140  0.0555  0.5259
  144OSM    H1T15800   3.392   3.615   6.298  0.2615  1.6535 -1.3603
  144OSM     NF15801   3.290   3.714   6.528 -0.1605 -0.2790  0.0509
  144OSM    HNF15802   3.374   3.718   6.581  0.3535  0.0408 -0.7685
  144OSM    C2S15803   3.259   3.597   6.456 -0.4036 -0.8182  0.5529
  144OSM    H2S15804   3.153   3.570   6.477 -0.4350 -0.8636  0.3347
  144OSM    C3S15805   3.346   3.481   6.510 -0.1984  0.2709 -0.3114
  144OSM    H3S15806   3.454   3.508   6.506  0.3141 -1.3576  1.8312
  144OSM     O315807   3.345   3.375   6.414 -1.0288  0.1299 -0.4650
  144OSM    HO315808   3.293   3.413   6.342 -0.5975 -0.8087 -1.2845
  144OSM    C4S15809   3.310   3.431   6.651  0.2757  0.6617  0.1488
  144OSM    H4S15810   3.337   3.511   6.722  1.1914 -0.2019  0.7821
  144OSM    C5S15811   3.257   3.314   6.698 -0.4119 -0.1248  0.1588
  144OSM    H5S15812   3.250   3.229   6.629  2.2634 -0.1469 -0.1263
  144OSM    C6S15813   3.236   3.265   6.843 -0.3731 -0.0148  0.1554
  144OSM    H6S15814   3.308   3.182   6.859 -0.4932 -0.3402 -0.9074
  144OSM    H6T15815   3.134   3.222   6.848 -0.2654 -0.7188 -2.6406
  144OSM    C7S15816   3.261   3.356   6.961 -0.1596  0.1426  0.6219
  144OSM    H7S15817   3.213   3.450   6.929  0.8289 -0.1603 -1.8747
  144OSM    H7T15818   3.368   3.387   6.954  0.1230 -1.0663 -0.6765
  144OSM    C8S15819   3.216   3.299   7.096 -0.1139 -0.5793 -0.1541
  144OSM    H8S15820   3.274   3.210   7.127 -0.5199  0.1129  2.7309
  144OSM    H8T15821   3.116   3.255   7.076  1.4048 -2.5961 -3.6829
  144OSM    C9S15822   3.207   3.404   7.205  0.2567 -0.2387  0.0686
  144OSM    H9S15823   3.165   3.499   7.165 -1.3841 -1.1833 -0.4980
  144OSM    H9T15824   3.306   3.436   7.245  0.8137 -0.1371 -1.3556
  144OSM   C10S15825   3.120   3.366   7.325  0.2040 -0.3562 -0.1223
  144OSM   H10S15826   3.187   3.293   7.377 -1.1515 -0.4021  1.6081
  144OSM   H10T15827   3.031   3.316   7.282 -1.4253  1.7814  0.6994
  144OSM   C11S15828   3.092   3.474   7.416  0.0125 -0.2289  0.1678
  144OSM   H11S15829   3.058   3.562   7.357 -1.0764  0.4200  1.7254
  144OSM   H11T15830   3.175   3.497   7.485 -1.8177 -1.3885  2.8291
  144OSM   C12S15831   2.981   3.439   7.516  0.1521 -0.1501  0.0985
  144OSM   H12S15832   2.895   3.396   7.461 -0.1916  0.1105  0.4262
  144OSM   H12T15833   2.953   3.536   7.563 -0.4764 -1.6375  2.9623
  144OSM   C13S15834   3.016   3.348   7.640 -0.2628  0.4788  0.4068
  144OSM   H13S15835   3.057   3.253   7.600 -3.0327 -1.0118  1.0113
  144OSM   H13T15836   2.925   3.316   7.694  0.1216  0.9399  1.3357
  144OSM   C14S15837   3.114   3.401   7.740  0.7662 -0.3775  0.2863
  144OSM   H14S15838   3.070   3.492   7.786  0.5982 -1.4745  2.3733
  144OSM   H14T15839   3.207   3.438   7.692 -0.6180  2.3714 -0.3317
  144OSM   C15S15840   3.125   3.289   7.848 -0.0728  0.2083 -0.2272
  144OSM   H15S15841   3.183   3.202   7.810  0.4176  1.5597 -2.7266
  144OSM   H15T15842   3.018   3.266   7.868 -0.5445  2.1019 -0.4727
  144OSM   C16S15843   3.190   3.342   7.978 -0.1969 -0.8751 -0.1540
  144OSM   H16S15844   3.124   3.423   8.015 -0.5940 -1.1015 -0.3567
  144OSM   H16T15845   3.292   3.380   7.959 -0.6239  0.5970  0.4653
  144OSM   C17S15846   3.216   3.240   8.087 -0.4108 -0.5130  0.6739
  144OSM   H17S15847   3.293   3.265   8.163  0.0119 -0.2626  0.1624
  144OSM   H17T15848   3.253   3.149   8.036  0.4786  1.1598 -1.7387
  144OSM   C18S15849   3.086   3.215   8.170 -0.1792  0.2552 -0.3709
  144OSM   H18S15850   2.996   3.224   8.105 -0.2601  1.0169 -0.1528
  144OSM   H18T15851   3.085   3.286   8.255  1.5720 -0.4218  0.2500
  144OSM   H18U15852   3.105   3.116   8.218  0.2165  0.4543 -0.1120
  144OSM    C1F15853   3.209   3.822   6.537  0.5066  0.3449  0.4508
  144OSM     OF15854   3.098   3.815   6.481 -0.1259 -0.4215 -0.4949
  144OSM    C2F15855   3.255   3.934   6.614  0.0375  0.6564 -0.1599
  144OSM    H2F15856   3.292   4.006   6.538  0.8270 -0.2493 -0.6499
  144OSM    H2G15857   3.340   3.894   6.673  1.0992  1.7608 -0.9276
  144OSM    C3F15858   3.137   3.995   6.697 -0.1190  0.1946  0.5048
  144OSM    H3F15859   3.083   3.914   6.749  0.3599 -0.0568  0.6134
  144OSM    H3G15860   3.057   4.042   6.636 -0.1451 -0.2324  0.2075
  144OSM    C4F15861   3.187   4.100   6.798  0.2015  0.1522  0.5812
  144OSM    H4F15862   3.237   4.181   6.741 -2.2269  1.2738  0.0207
  144OSM    H4G15863   3.260   4.060   6.873 -0.1532 -1.8271 -0.1071
  144OSM    C5F15864   3.071   4.174   6.859  0.3337  0.0316 -0.7172
  144OSM    H5F15865   3.018   4.100   6.922 -0.3926 -0.6389 -2.0999
  144OSM    H5G15866   3.009   4.210   6.774  0.1415 -0.0392 -0.6076
  144OSM    C6F15867   3.101   4.310   6.935  0.6091 -0.3131 -1.0521
  144OSM    H6F15868   3.172   4.377   6.882  0.4957  2.0355  1.6489
  144OSM    H6G15869   3.143   4.292   7.036 -1.1806 -1.0575 -0.4282
  144OSM    C7F15870   2.962   4.376   6.957  0.0357  0.6712  0.0980
  144OSM    H7F15871   2.902   4.292   6.999  0.6030  0.4981  0.5631
  144OSM    H7G15872   2.941   4.403   6.851 -1.5040  0.4874  0.3474
  144OSM    C8F15873   2.957   4.498   7.046  0.8575  0.3888 -1.1051
  144OSM    H8F15874   2.989   4.451   7.141 -1.1488  0.7149 -0.2326
  144OSM    H8G15875   2.854   4.538   7.056  1.2690  1.7791 -2.1869
  144OSM    C9F15876   3.043   4.614   7.014  0.5622  1.3280 -0.3389
  144OSM    H9F15877   3.009   4.677   6.931  3.5174  1.4077 -1.5713
  144OSM   C10F15878   3.141   4.674   7.086 -0.0826  1.1215 -0.0079
  144OSM   H10F15879   3.194   4.761   7.044  0.3742  0.8016 -0.0886
  144OSM   C11F15880   3.189   4.631   7.223 -0.2750 -0.0675  0.1628
  144OSM   H11F15881   3.278   4.566   7.209  0.2453  1.0955 -2.2693
  144OSM   H11G15882   3.120   4.582   7.295  2.4015  0.1068  2.9479
  144OSM   C12F15883   3.219   4.755   7.315  0.2378  0.0717  0.4541
  144OSM   H12F15884   3.123   4.808   7.325 -0.0512  0.2081 -2.5844
  144OSM   H12G15885   3.291   4.818   7.257  0.3611 -0.6809 -0.2205
  144OSM   C13F15886   3.282   4.729   7.455 -0.5524 -0.5130 -0.1837
  144OSM   H13F15887   3.371   4.666   7.433 -0.3799 -0.4683  0.3742
  144OSM   H13G15888   3.211   4.660   7.505 -0.5205 -1.1299 -0.9796
  144OSM   C14F15889   3.327   4.851   7.535 -0.2720  0.4379 -0.3980
  144OSM   H14F15890   3.239   4.918   7.523 -1.2347 -0.7075  0.1428
  144OSM   H14G15891   3.402   4.909   7.477  0.5356  0.1850  0.3856
  144OSM   C15F15892   3.351   4.815   7.686 -1.2517 -0.1967  0.0525
  144OSM   H15F15893   3.439   4.750   7.705  0.2395  1.2839 -1.5840
  144OSM   H15G15894   3.264   4.761   7.728 -1.7294 -1.3397 -2.2971
  144OSM   C16F15895   3.362   4.948   7.763 -0.0161 -0.5334  0.0943
  144OSM   H16F15896   3.279   5.017   7.735  0.2517 -0.1628  0.2038
  144OSM   H16G15897   3.454   4.993   7.719 -1.3812 -0.3864 -2.6987
  144OSM   C17F15898   3.363   4.920   7.914 -0.4018  0.6870  0.4431
  144OSM   H17F15899   3.413   5.002   7.968 -1.9686  3.7852 -2.6329
  144OSM   H17G15900   3.434   4.838   7.941 -0.1321  0.0406 -2.0495
  144OSM   C18F15901   3.227   4.908   7.977 -0.0655 -0.6497  0.0151
  144OSM   H18F15902   3.163   4.828   7.935 -0.7310  0.7595 -1.6974
  144OSM   H18G15903   3.180   5.008   7.960  3.1796  1.2140  1.5662
  144OSM   H18H15904   3.226   4.893   8.087 -0.0851 -1.5380 -0.1054
  145SAPE     N15905   1.459   5.028  10.830  0.6479  0.2888  0.2301
  145SAPE   HN115906   1.468   5.131  10.821 -1.6313  0.4739 -0.2313
  145SAPE   HN215907   1.474   4.998  10.929  2.3002 -0.2152 -0.1622
  145SAPE   HN315908   1.531   4.973  10.779  0.1384  0.0876 -0.2735
  145SAPE   C1215909   1.326   4.968  10.803  0.0871  0.2066  0.7031
  145SAPE  H12A15910   1.325   4.946  10.694 -0.7514 -0.6218  0.8684
  145SAPE  H12B15911   1.251   5.046  10.828  0.1886  0.1764  1.1040
  145SAPE   C1115912   1.299   4.837  10.883  0.0873  0.1974  0.4336
  145SAPE  H11A15913   1.311   4.860  10.992 -0.4862 -1.0390  0.7678
  145SAPE  H11B15914   1.375   4.763  10.851 -0.5536 -0.1200 -0.3698
  145SAPE     P15915   1.114   4.684  10.756  0.0440  0.1119 -0.2961
  145SAPE   O1315916   1.177   4.564  10.801 -0.8952  0.3922 -0.7252
  145SAPE   O1415917   0.963   4.688  10.760 -0.1064  0.2562  0.3145
  145SAPE   O1215918   1.166   4.802  10.846 -0.4890  0.1479  0.0687
  145SAPE   O1115919   1.161   4.720  10.613 -0.4479 -0.9770  0.0496
  145SAPE    C115920   1.105   4.822  10.538 -0.5165 -1.0473 -0.7229
  145SAPE    HA15921   1.009   4.859  10.579  0.1969  1.1867 -1.0049
  145SAPE    HB15922   1.178   4.906  10.537 -1.0691 -0.5548 -0.1810
  145SAPE    C215923   1.086   4.773  10.391 -0.4366 -0.1855 -0.5201
  145SAPE    HS15924   1.189   4.777  10.351 -0.7840 -1.2474 -1.5367
  145SAPE   O2115925   1.006   4.864  10.321 -0.0414 -0.1602 -0.2660
  145SAPE   C2115926   1.073   4.968  10.269  0.3369  0.2910 -0.1745
  145SAPE   O2215927   1.189   4.986  10.273 -0.3537 -0.1971  0.8497
  145SAPE   C2215928   0.965   5.056  10.196  0.1175 -0.2075  0.4273
  145SAPE   H2R15929   0.907   4.987  10.131  0.2475  0.9946 -0.9704
  145SAPE   H2S15930   0.906   5.108  10.275 -1.7837  0.7039 -1.5240
  145SAPE    C315931   1.027   4.634  10.390 -0.5313  0.6533 -0.6865
  145SAPE    HX15932   0.930   4.629  10.444  0.8729  2.1218  2.0714
  145SAPE    HY15933   1.099   4.561  10.433  1.7628  1.3744 -3.1055
  145SAPE   O3115934   1.015   4.599  10.252 -0.3451 -0.1646  0.7569
  145SAPE   C3115935   1.121   4.551  10.193  0.3175 -0.3442 -0.3163
  145SAPE   O3215936   1.236   4.539  10.240 -0.3444  0.4575  0.5306
  145SAPE   C3215937   1.085   4.519  10.051  0.5327  0.2756 -0.6596
  145SAPE   H2X15938   1.166   4.465   9.997  2.6193 -0.5440  3.1265
  145SAPE   H2Y15939   1.083   4.619  10.003 -1.9590  0.0701 -1.1006
  145SAPE   C2315940   1.049   5.154  10.107 -0.2329 -0.2223 -0.9907
  145SAPE   H3R15941   1.115   5.105  10.033 -1.1332 -0.2286 -1.8014
  145SAPE   H3S15942   1.113   5.210  10.179  1.0163 -0.1123 -2.1741
  145SAPE   C2415943   0.964   5.251  10.031  0.1349 -0.5160 -0.1356
  145SAPE   H4R15944   0.888   5.298  10.097 -0.2888 -0.0274 -0.9572
  145SAPE   H4S15945   0.904   5.186   9.963 -0.1170  0.6342 -1.0325
  145SAPE   C2515946   1.039   5.355   9.957  0.0865 -0.4796  0.4465
  145SAPE   H5R15947   1.127   5.390  10.014  0.1751  1.9011 -1.0870
  145SAPE   C2615948   1.023   5.386   9.825  0.7414 -0.5699 -0.3787
  145SAPE   H6R15949   1.069   5.479   9.787  0.9830 -1.0667 -1.3288
  145SAPE   C2715950   0.928   5.311   9.732 -0.0104  0.6047 -0.1842
  145SAPE   H7R15951   0.901   5.380   9.649 -2.0879 -0.1424 -0.1478
  145SAPE   H7S15952   0.841   5.304   9.800  0.1718  0.8175  0.0734
  145SAPE   C2815953   0.968   5.174   9.679  0.7072 -0.4609  0.3330
  145SAPE   H8R15954   0.925   5.083   9.724 -1.6685  0.6134  0.2885
  145SAPE   C2915955   1.055   5.152   9.579 -0.5463  0.1792 -0.9714
  145SAPE   H9R15956   1.077   5.049   9.547  2.8294 -0.2978  2.5145
  145SAPE  C21015957   1.132   5.261   9.511 -0.5477  0.3868  0.7139
  145SAPE  H10R15958   1.201   5.310   9.582 -1.0117  1.7616  0.2449
  145SAPE  H10S15959   1.070   5.347   9.476 -0.5217  0.8814  1.8920
  145SAPE  C21115960   1.207   5.205   9.397  0.0348 -0.2715  0.2324
  145SAPE  H11R15961   1.242   5.104   9.421  2.3461  0.7799  1.4271
  145SAPE  C21215962   1.201   5.245   9.262 -1.1713 -0.0047 -0.0327
  145SAPE  H12R15963   1.267   5.197   9.188  0.1509  0.9380  0.5174
  145SAPE  C21315964   1.133   5.359   9.202 -0.0252 -0.4007 -0.7193
  145SAPE  H13R15965   1.036   5.379   9.251  1.1838  0.2216  1.4667
  145SAPE  H13S15966   1.105   5.334   9.097  0.9603  1.4580 -1.4493
  145SAPE  C21415967   1.210   5.489   9.214 -0.0574  0.1485  0.3737
  145SAPE  H14R15968   1.241   5.511   9.317  0.3247 -0.9569  0.4991
  145SAPE  C21515969   1.253   5.575   9.118  0.2332  0.1886  0.2818
  145SAPE  H15R15970   1.315   5.663   9.140  0.3609 -0.0689  0.9830
  145SAPE  C21615971   1.238   5.556   8.969 -0.2861  0.0807 -0.2662
  145SAPE  H16R15972   1.265   5.649   8.913  1.0123  0.3968  0.8684
  145SAPE  H16S15973   1.131   5.537   8.943  0.2673 -2.5957 -0.6923
  145SAPE  C21715974   1.326   5.450   8.909 -0.6512 -0.3258  0.2115
  145SAPE  H17R15975   1.317   5.356   8.968  4.3700 -0.3883  1.0921
  145SAPE  H17S15976   1.432   5.483   8.918 -0.3456 -0.4919 -2.3910
  145SAPE  C21815977   1.298   5.403   8.765  0.2865  0.5080  0.3059
  145SAPE  H18R15978   1.385   5.336   8.746  0.0108  0.6539 -1.5313
  145SAPE  H18S15979   1.308   5.494   8.702  2.9321 -0.6982 -1.1381
  145SAPE  C21915980   1.170   5.319   8.740 -0.1462 -0.2512  0.4873
  145SAPE  H19R15981   1.084   5.373   8.785  0.5139  1.9520 -0.8354
  145SAPE  H19S15982   1.162   5.219   8.787  2.4585 -0.5543  0.3834
  145SAPE  C22015983   1.142   5.309   8.591 -0.2889 -0.3443 -0.1074
  145SAPE  H20R15984   1.141   5.408   8.539 -1.3570 -0.8543 -1.0869
  145SAPE  H20S15985   1.043   5.265   8.569 -0.3907 -1.3060  2.1298
  145SAPE  H20T15986   1.212   5.236   8.545 -1.1543 -0.4755 -1.2463
  145SAPE   C3315987   0.945   4.462  10.031  0.5571 -0.3496 -0.8935
  145SAPE   H3X15988   0.862   4.517  10.079  1.0161 -0.1900 -0.2875
  145SAPE   H3Y15989   0.937   4.355  10.060  0.4321 -0.1509 -0.1993
  145SAPE   C3415990   0.902   4.469   9.884 -0.4447  0.0029  0.6365
  145SAPE   H4X15991   0.886   4.576   9.857 -2.9605 -0.1757  1.2350
  145SAPE   H4Y15992   0.798   4.430   9.877 -0.8523  1.2819 -0.6602
  145SAPE   C3515993   0.983   4.406   9.770 -0.1684  0.4922 -1.0734
  145SAPE   H5X15994   0.981   4.296   9.788  2.5255  0.0857 -2.8984
  145SAPE   H5Y15995   1.090   4.435   9.783 -0.1459 -1.0485  2.6173
  145SAPE   C3615996   0.942   4.442   9.623 -0.6192  0.4722 -0.9830
  145SAPE   H6X15997   0.941   4.553   9.619  1.8988  0.6097  0.8831
  145SAPE   H6Y15998   0.838   4.408   9.605 -1.1173  1.4488 -0.0321
  145SAPE   C3715999   1.031   4.390   9.515  0.1772 -0.2511  0.5023
  145SAPE   H7X16000   1.015   4.280   9.518  1.7157 -0.5694 -1.6172
  145SAPE   H7Y16001   1.137   4.416   9.532  1.3327 -3.6788 -1.0998
  145SAPE   C3816002   1.004   4.435   9.376  0.5906 -0.7392 -0.0351
  145SAPE   H8X16003   1.033   4.541   9.363  0.7204 -0.5828  1.4466
  145SAPE   H8Y16004   0.894   4.437   9.356  0.3595 -1.9453  1.0447
  145SAPE   C3916005   1.080   4.352   9.270  0.0595 -0.3038 -0.2510
  145SAPE   H9X16006   1.061   4.245   9.292  0.9227 -0.4874 -0.3968
  145SAPE   H9Y16007   1.188   4.379   9.271 -0.1801  0.7084  1.2040
  145SAPE  C31016008   1.021   4.376   9.137 -0.2977 -0.3055 -0.1381
  145SAPE  H10X16009   1.036   4.481   9.104 -1.6852  0.4699  1.6458
  145SAPE  H10Y16010   0.912   4.369   9.152 -0.3275  0.2916 -0.0515
  145SAPE  C31116011   1.071   4.272   9.035 -0.2398  0.1202  0.4695
  145SAPE  H11X16012   1.007   4.184   9.056 -1.8814  1.7249  2.4066
  145SAPE  H11Y16013   1.178   4.252   9.056 -0.4480  0.3117  1.7306
  145SAPE  C31216014   1.054   4.334   8.895  0.0565 -0.6514 -0.1737
  145SAPE  H12X16015   0.946   4.354   8.876 -0.2429 -1.4956  0.5830
  145SAPE  H12Y16016   1.069   4.268   8.807 -0.5278 -1.9874  0.7041
  145SAPE  C31316017   1.133   4.459   8.870 -0.1086  0.5062 -0.0470
  145SAPE  H13X16018   1.238   4.429   8.889 -0.3418  0.2944  0.9679
  145SAPE  H13Y16019   1.110   4.549   8.931  0.6452  1.1607 -0.7225
  145SAPE  C31416020   1.146   4.500   8.718  0.8825  0.0213  0.3463
  145SAPE  H14X16021   1.177   4.607   8.717  0.3411  0.1757 -0.9209
  145SAPE  H14Y16022   1.048   4.490   8.668  0.3994  2.6037  0.7440
  145SAPE  C31516023   1.255   4.419   8.646  0.0208  0.6698  0.6543
  145SAPE  H15X16024   1.229   4.423   8.538  2.1446 -0.8912  0.0518
  145SAPE  H15Y16025   1.240   4.311   8.671  0.1139  0.9531  1.9680
  145SAPE  C31616026   1.396   4.479   8.667  0.3467  0.1144 -0.7193
  145SAPE  H16X16027   1.423   4.483   8.775 -0.6853  0.2903 -0.4614
  145SAPE  H16Y16028   1.392   4.588   8.646  2.3123  0.3902  0.2048
  145SAPE  C31716029   1.499   4.417   8.572  0.2837  0.1707  0.0010
  145SAPE  H17X16030   1.601   4.455   8.592 -0.2730  0.8908  1.5531
  145SAPE  H17Y16031   1.477   4.436   8.465 -0.9788 -1.2344 -0.0149
  145SAPE  C31816032   1.495   4.265   8.593 -0.2586  0.0558 -0.5218
  145SAPE  H18X16033   1.442   4.207   8.515 -0.0712 -0.3700 -0.3386
  145SAPE  H18Y16034   1.465   4.232   8.695  0.7895  1.1741  0.1618
  145SAPE  H18Z16035   1.599   4.229   8.582 -0.4570 -0.7090  0.0428
  146SAPE     N16036   0.446   6.307  10.782 -0.1157 -0.1937  0.5674
  146SAPE   HN116037   0.504   6.228  10.815  1.6632  0.7639 -0.1791
  146SAPE   HN216038   0.440   6.299  10.679  1.2159 -0.5389  0.5096
  146SAPE   HN316039   0.495   6.394  10.814  1.0328  0.3232 -2.4582
  146SAPE   C1216040   0.310   6.288  10.847 -0.2110 -0.0109  0.1347
  146SAPE  H12A16041   0.321   6.288  10.957 -0.0835  0.0190  0.1211
  146SAPE  H12B16042   0.274   6.187  10.818 -2.6207  1.0246 -0.6069
  146SAPE   C1116043   0.215   6.401  10.791 -0.0230  0.0229 -0.2613
  146SAPE  H11A16044   0.240   6.497  10.841  0.1470 -0.6997  1.0485
  146SAPE  H11B16045   0.113   6.382  10.830  0.4140  2.0775  1.9714
  146SAPE     P16046   0.096   6.469  10.565 -0.4586  0.3244  0.1030
  146SAPE   O1316047  -0.005   6.363  10.570  0.2638 -0.5282  0.0983
  146SAPE   O1416048   0.065   6.600  10.630  0.1822  0.6392  0.4395
  146SAPE   O1216049   0.217   6.414  10.648  0.8386 -0.5399 -0.2374
  146SAPE   O1116050   0.144   6.482  10.413  0.2773  0.3053 -0.4092
  146SAPE    C116051   0.231   6.594  10.397 -0.8954  0.9328  0.8525
  146SAPE    HA16052   0.172   6.687  10.383 -0.0507  1.5875  1.6279
  146SAPE    HB16053   0.301   6.605  10.482  0.4832 -0.7437 -0.0297
  146SAPE    C216054   0.311   6.581  10.263 -0.0625 -0.7126 -0.0329
  146SAPE    HS16055   0.363   6.676  10.239 -1.6653  0.0262 -0.6623
  146SAPE   O2116056   0.217   6.531  10.163 -0.2074 -0.3281  0.4307
  146SAPE   C2116057   0.146   6.627  10.102 -0.2810 -0.2680  0.5959
  146SAPE   O2216058   0.165   6.747  10.115 -0.0417  0.3433 -0.2632
  146SAPE   C2216059   0.027   6.566  10.015 -1.0239  0.6349  0.8115
  146SAPE   H2R16060  -0.034   6.499  10.080 -1.7162 -0.2204 -0.6906
  146SAPE   H2S16061  -0.037   6.653   9.991  0.3136  1.5093  0.3583
  146SAPE    C316062   0.427   6.485  10.279  0.5015 -0.3031 -0.0282
  146SAPE    HX16063   0.411   6.390  10.334  2.1324 -1.0868 -0.8597
  146SAPE    HY16064   0.500   6.539  10.342  2.9232 -3.5854  0.1090
  146SAPE   O3116065   0.495   6.468  10.156  0.0979  0.3845  0.4752
  146SAPE   C3116066   0.458   6.360  10.084  0.1631 -0.0097 -0.0786
  146SAPE   O3216067   0.359   6.289  10.107  0.3229 -0.6029 -0.0697
  146SAPE   C3216068   0.545   6.359   9.961  0.4109  0.1293 -0.5862
  146SAPE   H2X16069   0.651   6.379   9.990  0.2680  2.0381 -1.2650
  146SAPE   H2Y16070   0.519   6.459   9.919 -1.7097  1.3098  3.3324
  146SAPE   C2316071   0.082   6.477   9.899 -0.0617 -0.3691  0.1840
  146SAPE   H3R16072  -0.004   6.422   9.856 -1.8825  3.7211 -1.6928
  146SAPE   H3S16073   0.157   6.405   9.938 -0.2594 -2.3304 -2.8684
  146SAPE   C2416074   0.131   6.550   9.777 -0.1327  0.3504 -0.4546
  146SAPE   H4R16075   0.224   6.607   9.800  0.3800  0.2319 -2.1470
  146SAPE   H4S16076   0.051   6.625   9.761  1.5844  2.0273 -1.2856
  146SAPE   C2516077   0.164   6.462   9.661  0.9051 -0.1958 -0.5062
  146SAPE   H5R16078   0.229   6.378   9.689  1.9388  1.6246  2.8499
  146SAPE   C2616079   0.138   6.478   9.531 -0.0031  0.9421  0.0317
  146SAPE   H6R16080   0.157   6.394   9.463 -0.1809  2.0826 -1.4601
  146SAPE   C2716081   0.062   6.588   9.457  0.4540  0.4080  0.2809
  146SAPE   H7R16082   0.142   6.647   9.407  0.1058  1.8079  1.3575
  146SAPE   H7S16083   0.018   6.658   9.531  1.5717  2.8537 -1.2776
  146SAPE   C2816084  -0.044   6.536   9.360 -0.2493 -0.2041 -0.3387
  146SAPE   H8R16085  -0.133   6.486   9.402 -1.3241  0.9817 -1.1633
  146SAPE   C2916086  -0.043   6.546   9.225 -0.4645 -0.4909  0.1453
  146SAPE   H9R16087  -0.127   6.512   9.163 -0.1632 -2.2935  0.7192
  146SAPE  C21016088   0.063   6.624   9.150  0.5026  0.2894 -0.3179
  146SAPE  H10R16089   0.153   6.560   9.140  0.6973  0.4353  0.5228
  146SAPE  H10S16090   0.096   6.713   9.209  2.5595 -1.1860  0.8290
  146SAPE  C21116091   0.027   6.671   9.011 -0.5171  0.5428  1.0358
  146SAPE  H11R16092  -0.030   6.765   9.010 -1.5678 -0.0738  1.9862
  146SAPE  C21216093   0.048   6.600   8.900 -0.3948  0.2306  0.7763
  146SAPE  H12R16094   0.005   6.648   8.811 -0.2991 -1.2025 -0.0466
  146SAPE  C21316095   0.124   6.471   8.885  0.0491  0.8145 -0.9173
  146SAPE  H13R16096   0.179   6.441   8.976  0.3712  0.0595 -1.3545
  146SAPE  H13S16097   0.201   6.482   8.805  0.3374  1.1759 -0.5895
  146SAPE  C21416098   0.028   6.356   8.854  0.3646  0.2849 -0.2854
  146SAPE  H14R16099  -0.029   6.300   8.929  2.2951 -2.1814 -0.6206
  146SAPE  C21516100  -0.005   6.317   8.728 -1.2201  0.6036  0.1736
  146SAPE  H15R16101  -0.075   6.233   8.719 -0.6531 -0.1382  2.3665
  146SAPE  C21616102   0.030   6.378   8.590  0.3804  0.4023 -0.1681
  146SAPE  H16R16103   0.050   6.297   8.516 -1.1838  1.1466 -1.4278
  146SAPE  H16S16104   0.122   6.439   8.599  1.9115 -2.1544  2.5432
  146SAPE  C21716105  -0.090   6.452   8.537  0.1514 -0.3972 -0.0105
  146SAPE  H17R16106  -0.096   6.549   8.591 -1.1354  0.0345 -0.8983
  146SAPE  H17S16107  -0.191   6.414   8.561 -0.2031  0.3507 -0.3064
  146SAPE  C21816108  -0.077   6.486   8.392 -0.3208 -0.3297  0.4693
  146SAPE  H18R16109  -0.102   6.395   8.334 -0.0605  0.8002 -1.4630
  146SAPE  H18S16110   0.029   6.501   8.364 -0.4328 -0.3002  0.0696
  146SAPE  C21916111  -0.154   6.604   8.342  0.2107 -0.3512  1.0261
  146SAPE  H19R16112  -0.114   6.635   8.243  0.7917  0.8794  1.6393
  146SAPE  H19S16113  -0.158   6.693   8.408 -2.2093 -0.2581  0.7960
  146SAPE  C22016114  -0.299   6.566   8.314  0.7874  0.0032 -0.2614
  146SAPE  H20R16115  -0.344   6.510   8.398  0.7082  1.2837  0.5719
  146SAPE  H20S16116  -0.305   6.489   8.234 -0.4670 -0.4021  0.2218
  146SAPE  H20T16117  -0.362   6.654   8.289  0.2418 -0.2373  0.2768
  146SAPE   C3316118   0.535   6.243   9.862 -0.3161  0.1020 -1.1207
  146SAPE   H3X16119   0.435   6.240   9.814 -0.7148  1.2116 -0.3869
  146SAPE   H3Y16120   0.543   6.148   9.920 -3.2588  0.3873 -0.1588
  146SAPE   C3416121   0.633   6.248   9.745  0.4322  0.4586 -0.2092
  146SAPE   H4X16122   0.737   6.254   9.783  0.3679 -1.2198  0.2816
  146SAPE   H4Y16123   0.584   6.321   9.677  2.8258  1.8877 -0.4328
  146SAPE   C3516124   0.640   6.105   9.671 -0.6427 -0.2174  0.3665
  146SAPE   H5X16125   0.545   6.048   9.676 -0.0011 -1.2873  0.4151
  146SAPE   H5Y16126   0.706   6.051   9.742 -0.0829  0.1190  0.1094
  146SAPE   C3616127   0.694   6.109   9.528  1.1707 -0.3644 -0.0635
  146SAPE   H6X16128   0.711   6.003   9.499  1.3040 -0.1793 -0.6634
  146SAPE   H6Y16129   0.789   6.166   9.519  1.3173 -0.3176  1.6875
  146SAPE   C3716130   0.608   6.171   9.426  0.3206  0.3661 -0.2378
  146SAPE   H7X16131   0.673   6.182   9.337 -0.5047  0.5427 -0.8215
  146SAPE   H7Y16132   0.565   6.271   9.447 -1.5177 -0.6153  0.8197
  146SAPE   C3816133   0.482   6.089   9.395  0.7248  0.2037 -0.0437
  146SAPE   H8X16134   0.424   6.059   9.484  1.7104  0.4625  0.6917
  146SAPE   H8Y16135   0.526   5.992   9.361 -1.0441 -0.3559 -0.7948
  146SAPE   C3916136   0.393   6.143   9.274 -0.4162  0.4366 -0.1033
  146SAPE   H9X16137   0.462   6.183   9.197  1.2094  0.7242  1.4756
  146SAPE   H9Y16138   0.320   6.219   9.310  0.3283  1.6078 -1.0224
  146SAPE  C31016139   0.331   6.021   9.203  0.2980  0.2720  0.1550
  146SAPE  H10X16140   0.284   5.955   9.279 -0.8159  1.6396  0.6739
  146SAPE  H10Y16141   0.406   5.956   9.155  0.4624  0.9529 -0.5229
  146SAPE  C31116142   0.230   6.058   9.093 -0.3051 -0.0407 -0.2457
  146SAPE  H11X16143   0.197   5.963   9.045 -1.4127 -0.5806  1.5408
  146SAPE  H11Y16144   0.282   6.103   9.006 -0.5748  1.2187  0.2485
  146SAPE  C31216145   0.116   6.143   9.142  0.6761  0.1410  0.2380
  146SAPE  H12X16146   0.030   6.144   9.071  0.4620 -0.5914  0.4818
  146SAPE  H12Y16147   0.148   6.247   9.161 -0.2147  0.4652 -0.0356
  146SAPE  C31316148   0.055   6.084   9.272 -0.0108  0.4767  0.1128
  146SAPE  H13X16149   0.129   6.103   9.353  1.3037 -1.0614 -0.6944
  146SAPE  H13Y16150   0.045   5.973   9.263  1.5298  0.3438 -0.1681
  146SAPE  C31416151  -0.083   6.137   9.310  0.2032  0.1166 -0.1763
  146SAPE  H14X16152  -0.147   6.098   9.229  1.3315 -2.1617 -0.0144
  146SAPE  H14Y16153  -0.083   6.246   9.329 -0.7566 -0.1556  1.4725
  146SAPE  C31516154  -0.140   6.071   9.443  0.1556  0.4068  0.4600
  146SAPE  H15X16155  -0.154   5.962   9.424 -0.9744  0.6855 -0.3898
  146SAPE  H15Y16156  -0.238   6.118   9.463  0.2235  0.4555  0.6733
  146SAPE  C31616157  -0.056   6.096   9.563 -0.1568 -0.0499 -0.4044
  146SAPE  H16X16158  -0.016   6.200   9.561 -0.2905 -0.0097 -1.9547
  146SAPE  H16Y16159   0.027   6.023   9.567 -0.4511 -0.2767  2.9532
  146SAPE  C31716160  -0.143   6.074   9.692  1.2509 -0.3563 -1.2443
  146SAPE  H17X16161  -0.197   5.977   9.681 -0.1761  0.0286  1.8791
  146SAPE  H17Y16162  -0.218   6.155   9.688 -0.3306 -1.7330 -0.1691
  146SAPE  C31816163  -0.072   6.083   9.826 -0.1747 -0.3839 -0.1646
  146SAPE  H18X16164   0.010   6.008   9.829  1.3770  1.3262  0.2614
  146SAPE  H18Y16165  -0.136   6.061   9.914  1.0346 -2.2593  0.2736
  146SAPE  H18Z16166  -0.024   6.182   9.840  0.0839 -0.6104  0.5814
  147SAPE     N16167   2.233   0.853  11.031  0.0893 -0.0903 -0.2037
  147SAPE   HN116168   2.234   0.795  11.118  1.9859 -0.0881 -0.2026
  147SAPE   HN216169   2.323   0.841  10.980 -1.5061 -0.5087 -2.9875
  147SAPE   HN316170   2.231   0.954  11.055 -1.4174  0.0338 -0.8384
  147SAPE   C1216171   2.109   0.807  10.965  0.1873  0.0578 -0.3843
  147SAPE  H12A16172   2.029   0.803  11.041 -0.0565  0.5303 -0.6107
  147SAPE  H12B16173   2.127   0.701  10.936  1.1498  0.7558 -2.4923
  147SAPE   C1116174   2.073   0.875  10.831 -0.0374  1.3445  0.3238
  147SAPE  H11A16175   1.988   0.821  10.783  2.3599 -2.4132  0.0358
  147SAPE  H11B16176   2.154   0.872  10.755 -0.9680  1.4120 -0.6949
  147SAPE     P16177   2.119   1.123  10.826  0.2009 -0.0659 -0.3230
  147SAPE   O1316178   2.044   1.245  10.837 -0.2377  0.2881 -0.0128
  147SAPE   O1416179   2.243   1.098  10.907  0.1997 -0.5969 -0.2874
  147SAPE   O1216180   2.015   1.001  10.858  0.0957  0.2255  0.3830
  147SAPE   O1116181   2.150   1.098  10.674 -0.9009 -0.3492  0.0148
  147SAPE    C116182   2.037   1.116  10.588 -0.2867  0.5204  0.5917
  147SAPE    HA16183   1.957   1.045  10.620 -0.9217  0.5871 -0.8175
  147SAPE    HB16184   2.008   1.222  10.574  0.2622  0.6049  0.0816
  147SAPE    C216185   2.064   1.067  10.443  0.7514  0.8076 -0.1848
  147SAPE    HS16186   2.106   1.150  10.383 -1.2596  2.0147  0.0127
  147SAPE   O2116187   1.940   1.017  10.388 -0.0550 -0.4782  0.3832
  147SAPE   C2116188   1.868   1.101  10.322  0.1331 -0.5569 -0.2162
  147SAPE   O2216189   1.888   1.221  10.299  0.4088  0.1248 -0.5319
  147SAPE   C2216190   1.747   1.016  10.259 -0.2791  0.6394 -0.6721
  147SAPE   H2R16191   1.765   0.907  10.265  0.3450  0.7806  0.0578
  147SAPE   H2S16192   1.657   1.044  10.317  0.5451 -0.3817  1.1496
  147SAPE    C316193   2.157   0.946  10.451 -0.3842  0.0709 -0.2683
  147SAPE    HX16194   2.113   0.856  10.499 -1.1628  1.3764  1.5420
  147SAPE    HY16195   2.244   0.965  10.517  0.1781 -0.4101 -0.8621
  147SAPE   O3116196   2.213   0.918  10.321 -0.2987  0.0890 -0.2768
  147SAPE   C3116197   2.150   0.823  10.247 -0.4857 -0.5100 -0.2631
  147SAPE   O3216198   2.075   0.740  10.292  0.1127 -0.1186 -0.8317
  147SAPE   C3216199   2.173   0.838  10.094  0.1252 -0.2133 -0.2128
  147SAPE   H2X16200   2.257   0.777  10.055  1.1723  1.3800 -0.4870
  147SAPE   H2Y16201   2.198   0.943  10.068  0.9456  0.2715  2.4225
  147SAPE   C2316202   1.719   1.059  10.117 -0.0192 -0.8179  0.3435
  147SAPE   H3R16203   1.809   1.042  10.054  0.8592 -1.9963  1.8738
  147SAPE   H3S16204   1.693   1.167  10.108  0.0357 -0.9410 -1.4318
  147SAPE   C2416205   1.597   0.991  10.059  0.6916  0.7528 -0.2460
  147SAPE   H4R16206   1.508   1.004  10.124 -0.8169 -0.8854 -1.9299
  147SAPE   H4S16207   1.630   0.886  10.069 -1.1301  0.0764 -1.0576
  147SAPE   C2516208   1.584   1.004   9.910  0.7867  0.5369 -0.0018
  147SAPE   H5R16209   1.659   0.945   9.855  0.1564  1.3459 -1.7546
  147SAPE   C2616210   1.486   1.070   9.839 -0.5916  0.6005  0.0737
  147SAPE   H6R16211   1.502   1.084   9.730 -0.7497 -1.9102 -0.3005
  147SAPE   C2716212   1.369   1.149   9.891  0.2144 -1.1649 -0.3044
  147SAPE   H7R16213   1.322   1.081   9.966 -1.4843 -0.2198 -0.5123
  147SAPE   H7S16214   1.292   1.165   9.813  1.3309  0.8980 -1.0260
  147SAPE   C2816215   1.398   1.286   9.954 -0.2275  0.0564  0.1115
  147SAPE   H8R16216   1.488   1.300  10.016 -1.3534  2.8137  1.2338
  147SAPE   C2916217   1.322   1.394   9.956 -0.0720  0.4647 -0.1645
  147SAPE   H9R16218   1.359   1.472  10.024  1.1508  0.1279 -0.4181
  147SAPE  C21016219   1.187   1.402   9.884 -0.9181 -0.1464 -0.1287
  147SAPE  H10R16220   1.119   1.334   9.939 -1.9043  0.9247 -0.0035
  147SAPE  H10S16221   1.188   1.363   9.780  0.4194 -0.8220  0.1257
  147SAPE  C21116222   1.137   1.541   9.887  0.0019 -0.2094  0.3664
  147SAPE  H11R16223   1.058   1.574   9.957  0.9136  0.3359  1.1373
  147SAPE  C21216224   1.171   1.623   9.788 -0.1564 -0.4899 -0.7894
  147SAPE  H12R16225   1.127   1.724   9.783  0.6936 -0.1652 -1.7981
  147SAPE  C21316226   1.266   1.591   9.675  0.0656  0.7476 -0.9643
  147SAPE  H13R16227   1.335   1.507   9.698 -1.0218 -0.1533 -0.9208
  147SAPE  H13S16228   1.331   1.678   9.653  1.1914  0.2687  0.4477
  147SAPE  C21416229   1.186   1.546   9.563  0.4352  0.4252  0.1587
  147SAPE  H14R16230   1.078   1.531   9.577 -0.2512  3.9383 -0.7358
  147SAPE  C21516231   1.244   1.508   9.448  0.0068 -0.6855  0.3415
  147SAPE  H15R16232   1.176   1.487   9.364  2.0079  1.8034 -1.9639
  147SAPE  C21616233   1.394   1.510   9.410  0.5002 -0.2503 -0.0086
  147SAPE  H16R16234   1.461   1.530   9.496 -1.3264  0.8962  1.1918
  147SAPE  H16S16235   1.416   1.575   9.322 -0.9751 -2.1354 -1.8424
  147SAPE  C21716236   1.422   1.364   9.368 -0.1775  0.6211  0.3653
  147SAPE  H17R16237   1.414   1.292   9.452  1.8833 -1.6049 -1.2645
  147SAPE  H17S16238   1.526   1.357   9.328  0.1842  4.1274  0.5048
  147SAPE  C21816239   1.351   1.305   9.243  0.4777  0.2975  0.3296
  147SAPE  H18R16240   1.356   1.380   9.161 -0.6383  1.7314  1.5200
  147SAPE  H18S16241   1.242   1.286   9.251  0.5675  0.4645  2.3527
  147SAPE  C21916242   1.417   1.167   9.202  0.5075  0.1137  0.1982
  147SAPE  H19R16243   1.525   1.189   9.190  0.0424  1.3166 -2.1088
  147SAPE  H19S16244   1.384   1.138   9.100  2.5684 -2.2055  0.1396
  147SAPE  C22016245   1.399   1.047   9.302  0.0524 -0.0214 -0.0548
  147SAPE  H20R16246   1.488   1.044   9.368 -0.4742  2.0636  0.7901
  147SAPE  H20S16247   1.390   0.955   9.239 -0.0906 -2.0770  2.8771
  147SAPE  H20T16248   1.317   1.059   9.376  0.0223 -2.2005  0.3024
  147SAPE   C3316249   2.050   0.790  10.005  0.1183  0.1648 -0.4157
  147SAPE   H3X16250   1.965   0.856  10.030 -1.3434 -2.2300  1.2105
  147SAPE   H3Y16251   2.002   0.694  10.035 -1.0688  0.9648  0.2718
  147SAPE   C3416252   2.077   0.786   9.857  0.0032  0.3726  0.7037
  147SAPE   H4X16253   2.119   0.881   9.817 -0.4338 -0.7115 -2.4919
  147SAPE   H4Y16254   1.974   0.774   9.816  0.1933 -3.7829  1.1548
  147SAPE   C3516255   2.158   0.666   9.819 -0.1205  0.5434 -0.0033
  147SAPE   H5X16256   2.147   0.583   9.893  0.2446 -0.3723 -0.9565
  147SAPE   H5Y16257   2.266   0.690   9.819  0.1784 -0.6409  2.3283
  147SAPE   C3616258   2.125   0.622   9.682 -0.0212 -0.4417  0.1453
  147SAPE   H6X16259   2.015   0.618   9.666 -0.1108  2.0062 -0.0051
  147SAPE   H6Y16260   2.168   0.520   9.664 -1.2557 -1.5230  3.0770
  147SAPE   C3716261   2.173   0.716   9.568  0.2380  0.0013 -0.1554
  147SAPE   H7X16262   2.265   0.767   9.603  0.7561 -0.6863 -0.5297
  147SAPE   H7Y16263   2.091   0.788   9.546  0.5211  0.1003 -0.8811
  147SAPE   C3816264   2.187   0.638   9.437  1.0482 -0.3941  0.2393
  147SAPE   H8X16265   2.093   0.588   9.406  1.1932 -0.3196 -0.3399
  147SAPE   H8Y16266   2.274   0.570   9.448  1.3863 -0.3903 -2.0696
  147SAPE   C3916267   2.223   0.725   9.318 -0.1444 -0.3425  0.1372
  147SAPE   H9X16268   2.296   0.802   9.352  1.4987 -2.2270  0.9491
  147SAPE   H9Y16269   2.128   0.778   9.294  0.4835  1.3924  1.3891
  147SAPE  C31016270   2.275   0.651   9.194 -0.3422 -0.1338 -0.5497
  147SAPE  H10X16271   2.226   0.552   9.186  0.8643 -0.9766  1.8729
  147SAPE  H10Y16272   2.382   0.640   9.222 -0.6028  0.6178  0.7807
  147SAPE  C31116273   2.247   0.734   9.067 -0.5749 -0.7558 -0.6093
  147SAPE  H11X16274   2.138   0.734   9.045 -0.3717  1.0381 -1.7170
  147SAPE  H11Y16275   2.293   0.683   8.980 -1.0898 -0.3365 -1.1319
  147SAPE  C31216276   2.298   0.878   9.069  0.3050  0.2104  0.4009
  147SAPE  H12X16277   2.230   0.936   9.135 -1.1604  1.6478 -2.2926
  147SAPE  H12Y16278   2.281   0.915   8.966  3.1705 -0.3789 -0.3247
  147SAPE  C31316279   2.444   0.906   9.107  0.3222 -0.2395 -0.2545
  147SAPE  H13X16280   2.513   0.846   9.044 -0.9745  0.5510 -2.4848
  147SAPE  H13Y16281   2.455   0.899   9.217 -0.9321  0.7100 -0.0588
  147SAPE  C31416282   2.480   1.052   9.099 -0.5151  0.0064 -0.3105
  147SAPE  H14X16283   2.409   1.123   9.147 -0.8386 -1.7880  1.9888
  147SAPE  H14Y16284   2.479   1.069   8.989  0.9852  1.2455 -0.1503
  147SAPE  C31516285   2.614   1.085   9.155  0.1705 -0.6463 -0.8529
  147SAPE  H15X16286   2.678   1.016   9.097 -0.8289 -0.9675 -1.5763
  147SAPE  H15Y16287   2.614   1.065   9.265 -2.5287  0.1756 -0.6752
  147SAPE  C31616288   2.664   1.228   9.120  1.2886 -0.5482 -0.3526
  147SAPE  H16X16289   2.582   1.296   9.154  0.9349 -1.0146 -0.2667
  147SAPE  H16Y16290   2.683   1.225   9.010  2.2936  0.8558 -0.2307
  147SAPE  C31716291   2.791   1.276   9.185 -1.0109  0.0853 -1.3589
  147SAPE  H17X16292   2.789   1.385   9.166  0.1914  0.4142  0.3079
  147SAPE  H17Y16293   2.878   1.229   9.134 -2.7609 -1.9824 -2.5291
  147SAPE  C31816294   2.802   1.257   9.336  0.5349  0.6828 -0.7119
  147SAPE  H18X16295   2.820   1.152   9.367  0.6680  1.2615  1.2106
  147SAPE  H18Y16296   2.711   1.284   9.394 -0.2477 -1.1418 -1.0519
  147SAPE  H18Z16297   2.888   1.319   9.367  0.2823  1.0251 -0.6960
  148SAPE     N16298   2.658   3.706  10.742 -0.2229  0.4240  0.0661
  148SAPE   HN116299   2.637   3.808  10.736 -0.5282  0.4167  0.9124
  148SAPE   HN216300   2.571   3.678  10.791  0.4058  0.3686  1.1677
  148SAPE   HN316301   2.743   3.687  10.799  0.6135 -1.8126 -1.8890
  148SAPE   C1216302   2.669   3.639  10.606 -0.4425  0.2587 -0.1010
  148SAPE  H12A16303   2.607   3.702  10.538  1.7916  1.4441 -1.0936
  148SAPE  H12B16304   2.619   3.541  10.615 -0.5428  0.2726 -0.5084
  148SAPE   C1116305   2.810   3.636  10.555 -0.5725 -0.0941  0.0786
  148SAPE  H11A16306   2.841   3.743  10.544  1.1732 -0.2883  2.6528
  148SAPE  H11B16307   2.816   3.583  10.458  2.8218 -0.5206  0.4426
  148SAPE     P16308   3.036   3.527  10.590  0.2672 -0.0256 -0.2178
  148SAPE   O1316309   3.125   3.482  10.699  0.0666 -0.2309 -0.7868
  148SAPE   O1416310   3.015   3.423  10.484 -0.3580  0.4068 -0.3811
  148SAPE   O1216311   2.896   3.568  10.652  0.0070  0.9000 -0.2395
  148SAPE   O1116312   3.098   3.652  10.528 -0.0871 -0.5261  0.4030
  148SAPE    C116313   3.210   3.664  10.442 -1.1573  0.4130  0.1423
  148SAPE    HA16314   3.291   3.717  10.497 -2.4184  0.0661  2.4041
  148SAPE    HB16315   3.250   3.565  10.410 -1.6021 -0.1006  1.1398
  148SAPE    C216316   3.188   3.744  10.311 -0.6570 -0.3942 -0.6634
  148SAPE    HS16317   3.263   3.698  10.244 -0.0109 -0.6429  0.2157
  148SAPE   O2116318   3.208   3.885  10.341  0.4661 -0.2430  0.3299
  148SAPE   C2116319   3.336   3.924  10.334 -0.0879  0.1735  0.1886
  148SAPE   O2216320   3.428   3.855  10.294 -0.9027  0.2396 -0.1940
  148SAPE   C2216321   3.342   4.068  10.381 -0.0489  0.3462  0.7545
  148SAPE   H2R16322   3.241   4.095  10.419  0.5731  0.4734  2.3528
  148SAPE   H2S16323   3.415   4.081  10.463  0.2546  0.7213  0.4247
  148SAPE    C316324   3.044   3.722  10.256 -0.4246 -0.2524 -0.7782
  148SAPE    HX16325   2.968   3.764  10.325  1.1953 -0.7070  1.3523
  148SAPE    HY16326   3.022   3.613  10.251 -2.7657  0.1620 -0.1473
  148SAPE   O3116327   3.033   3.785  10.124 -0.1827  0.0796  0.7191
  148SAPE   C3116328   2.929   3.736  10.053 -0.6578  0.4387  0.0592
  148SAPE   O3216329   2.854   3.653  10.090 -0.1005 -0.3587 -0.1089
  148SAPE   C3216330   2.924   3.815   9.916  0.0380  0.2712  0.8634
  148SAPE   H2X16331   3.016   3.796   9.858 -1.3386 -0.0435 -1.2792
  148SAPE   H2Y16332   2.908   3.922   9.942 -1.2074  0.0663  0.9800
  148SAPE   C2316333   3.377   4.182  10.277  0.1139  0.2327 -0.0152
  148SAPE   H3R16334   3.447   4.136  10.203  0.5507  1.4334 -0.3606
  148SAPE   H3S16335   3.440   4.261  10.324  0.1266 -0.2451  0.7671
  148SAPE   C2416336   3.247   4.233  10.210  0.5737  0.6835  0.2597
  148SAPE   H4R16337   3.281   4.318  10.146  2.7982 -0.9175 -0.7640
  148SAPE   H4S16338   3.162   4.245  10.280 -1.3039 -2.2843 -1.3603
  148SAPE   C2516339   3.199   4.126  10.113  0.2065 -0.0703 -0.2333
  148SAPE   H5R16340   3.159   4.039  10.167 -0.9783  1.7521  1.9311
  148SAPE   C2616341   3.197   4.142   9.977 -0.0158  0.4150  0.1396
  148SAPE   H6R16342   3.162   4.048   9.930 -0.0682 -0.4120  1.8042
  148SAPE   C2716343   3.228   4.265   9.894  0.3307  0.1413 -0.4596
  148SAPE   H7R16344   3.289   4.234   9.806  1.8335 -0.8585  0.9219
  148SAPE   H7S16345   3.292   4.338   9.948  0.0648 -1.0672  1.5090
  148SAPE   C2816346   3.103   4.337   9.848 -0.2476 -0.3551  0.5014
  148SAPE   H8R16347   3.063   4.411   9.919 -2.1850 -0.7975 -0.0913
  148SAPE   C2916348   3.043   4.337   9.722 -0.2834 -0.2611  0.5714
  148SAPE   H9R16349   2.974   4.414   9.684  0.3106 -0.2887 -0.5805
  148SAPE  C21016350   3.091   4.259   9.608 -0.5719 -0.0711 -0.1702
  148SAPE  H10R16351   3.200   4.237   9.617 -0.1282  1.8042 -0.6980
  148SAPE  H10S16352   3.091   4.331   9.523 -0.4744 -2.0040 -1.8556
  148SAPE  C21116353   3.002   4.138   9.586 -0.1480 -0.0346  0.4472
  148SAPE  H11R16354   3.028   4.045   9.639 -0.1854 -1.5200 -2.0837
  148SAPE  C21216355   2.907   4.125   9.491  0.4162  0.7744 -0.0529
  148SAPE  H12R16356   2.870   4.023   9.472  1.0916  0.7374 -1.2183
  148SAPE  C21316357   2.866   4.231   9.390  0.2454 -0.3463 -0.5872
  148SAPE  H13R16358   2.880   4.338   9.418  0.4671 -0.5734  0.1719
  148SAPE  H13S16359   2.758   4.221   9.364  0.7974 -0.2702 -2.9927
  148SAPE  C21416360   2.959   4.225   9.271 -0.1346  0.4831 -0.2120
  148SAPE  H14R16361   3.057   4.182   9.293 -0.4306  0.0676  0.2938
  148SAPE  C21516362   2.938   4.277   9.148  0.2106 -0.7645 -0.3148
  148SAPE  H15R16363   3.018   4.264   9.074  0.2486  0.7335 -0.5631
  148SAPE  C21616364   2.811   4.354   9.086  0.0143  0.7669  0.5514
  148SAPE  H16R16365   2.730   4.377   9.159 -1.5396 -1.5644 -0.3706
  148SAPE  H16S16366   2.765   4.289   9.009 -0.4462 -0.6771  2.0080
  148SAPE  C21716367   2.856   4.480   9.019  0.0988 -0.3644 -0.1772
  148SAPE  H17R16368   2.932   4.466   8.939  0.1343  0.1633 -0.2428
  148SAPE  H17S16369   2.900   4.552   9.092 -0.4862 -1.8768  1.7050
  148SAPE  C21816370   2.737   4.540   8.941  0.4993 -0.4501 -0.0978
  148SAPE  H18R16371   2.651   4.566   9.005  0.0691  0.0751 -0.8797
  148SAPE  H18S16372   2.696   4.483   8.855  1.6070 -2.2869  0.5506
  148SAPE  C21916373   2.780   4.671   8.872 -0.1392 -0.5310  0.0717
  148SAPE  H19R16374   2.867   4.650   8.807  0.7989 -3.0167  2.0702
  148SAPE  H19S16375   2.806   4.746   8.950 -2.7136  0.9140 -0.4113
  148SAPE  C22016376   2.658   4.728   8.778 -0.4077 -0.1506  0.1439
  148SAPE  H20R16377   2.561   4.730   8.832  0.4678  2.4660  1.7482
  148SAPE  H20S16378   2.636   4.655   8.698 -1.7641 -2.1782  2.3193
  148SAPE  H20T16379   2.685   4.819   8.719  1.0691 -0.3515  0.4878
  148SAPE   C3316380   2.806   3.755   9.834  0.0307  0.0074 -0.1987
  148SAPE   H3X16381   2.780   3.822   9.750  1.6194 -1.4991 -1.9472
  148SAPE   H3Y16382   2.710   3.755   9.890  0.8620 -2.5468  1.3396
  148SAPE   C3416383   2.845   3.617   9.787  0.3987  0.8877  0.8773
  148SAPE   H4X16384   2.808   3.546   9.865 -2.0352 -0.3451 -1.3205
  148SAPE   H4Y16385   2.954   3.610   9.768  0.3316  1.7184  0.1743
  148SAPE   C3516386   2.770   3.575   9.656 -0.4424 -0.2988  0.1719
  148SAPE   H5X16387   2.662   3.598   9.665 -0.4607 -0.2333 -0.1950
  148SAPE   H5Y16388   2.782   3.464   9.652  1.2165 -0.1530  0.6044
  148SAPE   C3616389   2.813   3.634   9.516 -0.1454  0.4634  0.0254
  148SAPE   H6X16390   2.917   3.602   9.492  0.2303  1.5008  0.2306
  148SAPE   H6Y16391   2.817   3.744   9.535 -0.1651  0.7642 -1.6275
  148SAPE   C3716392   2.720   3.592   9.401 -0.2038 -0.5678  0.6821
  148SAPE   H7X16393   2.622   3.644   9.400 -1.1480 -2.2904 -1.0803
  148SAPE   H7Y16394   2.700   3.485   9.426 -0.5919 -0.6273  0.1116
  148SAPE   C3816395   2.785   3.603   9.261 -0.0811 -0.1205 -0.1347
  148SAPE   H8X16396   2.892   3.572   9.269 -0.4087 -1.1413  0.4474
  148SAPE   H8Y16397   2.782   3.707   9.222  1.1042 -0.2459 -0.5945
  148SAPE   C3916398   2.722   3.524   9.152  0.4003  0.0977  0.3233
  148SAPE   H9X16399   2.612   3.535   9.151  0.3424 -0.5190 -0.3083
  148SAPE   H9Y16400   2.727   3.414   9.167 -1.0003  0.1658  1.4369
  148SAPE  C31016401   2.776   3.556   9.008 -0.3645  0.2563 -0.5494
  148SAPE  H10X16402   2.886   3.543   9.020 -0.6257  0.3447  2.1404
  148SAPE  H10Y16403   2.761   3.662   8.978 -2.6649 -0.1341 -0.8108
  148SAPE  C31116404   2.729   3.456   8.904  0.7755  0.4234  0.3649
  148SAPE  H11X16405   2.697   3.364   8.957  2.1055 -0.3386 -0.1280
  148SAPE  H11Y16406   2.819   3.414   8.854  0.1906 -3.4338  2.3091
  148SAPE  C31216407   2.614   3.502   8.806 -0.1379 -0.1017  0.7918
  148SAPE  H12X16408   2.659   3.557   8.720 -0.1643  1.6448  1.8558
  148SAPE  H12Y16409   2.552   3.582   8.853 -0.3875 -0.1722  0.5825
  148SAPE  C31316410   2.515   3.385   8.770 -0.2549  0.4158 -0.0257
  148SAPE  H13X16411   2.453   3.366   8.860 -0.7059  1.3534 -0.1398
  148SAPE  H13Y16412   2.568   3.288   8.757  0.2276  0.8195 -1.1661
  148SAPE  C31416413   2.426   3.416   8.646  0.3670 -0.8558 -0.3981
  148SAPE  H14X16414   2.402   3.523   8.663  2.8250 -0.3231 -0.0565
  148SAPE  H14Y16415   2.328   3.364   8.650 -1.4393  2.4099 -1.2110
  148SAPE  C31516416   2.492   3.397   8.514  0.1353 -0.6326 -0.1530
  148SAPE  H15X16417   2.470   3.296   8.473 -1.4548 -1.3146  2.2648
  148SAPE  H15Y16418   2.602   3.412   8.525  0.1728 -0.3721 -0.9208
  148SAPE  C31616419   2.441   3.503   8.417 -0.2025 -0.1307 -0.4733
  148SAPE  H16X16420   2.483   3.604   8.438 -2.7418  0.8357  0.0272
  148SAPE  H16Y16421   2.330   3.507   8.417 -0.2668 -1.4891 -1.6363
  148SAPE  C31716422   2.483   3.468   8.270  0.2225  0.3382  0.6402
  148SAPE  H17X16423   2.439   3.369   8.249  0.9839  0.1954 -0.3186
  148SAPE  H17Y16424   2.594   3.460   8.268  0.2241  0.4623  0.2139
  148SAPE  C31816425   2.458   3.569   8.159  0.0607  1.1887  0.5581
  148SAPE  H18X16426   2.483   3.519   8.063  0.6967 -0.9433  1.8017
  148SAPE  H18Y16427   2.526   3.657   8.162 -1.7319  2.5507  2.2177
  148SAPE  H18Z16428   2.351   3.596   8.158 -0.2612 -0.0591  0.7805
  149SAPE     N16429   5.115   6.177  11.241 -0.0541 -0.2158  0.2130
  149SAPE   HN116430   5.064   6.099  11.288  0.5195 -0.7968 -0.1167
  149SAPE   HN216431   5.200   6.194  11.298  0.7991 -2.3514 -0.3589
  149SAPE   HN316432   5.045   6.254  11.238 -0.3519 -0.4844  0.2872
  149SAPE   C1216433   5.154   6.148  11.100  0.3365 -0.1499  0.3789
  149SAPE  H12A16434   5.171   6.245  11.048 -1.7934  0.9575  1.7160
  149SAPE  H12B16435   5.063   6.108  11.051  0.6153 -1.5412  0.9840
  149SAPE   C1116436   5.265   6.048  11.087 -0.7143  0.8846 -0.8198
  149SAPE  H11A16437   5.271   6.030  10.978  1.9809 -1.3265 -0.3784
  149SAPE  H11B16438   5.226   5.959  11.142 -1.3508  1.5356 -0.2125
  149SAPE     P16439   5.495   5.998  11.205 -0.0699 -0.0713  0.0219
  149SAPE   O1316440   5.612   6.080  11.245 -0.5784  0.3489  0.0947
  149SAPE   O1416441   5.441   5.890  11.297 -0.0743  0.1963  0.0787
  149SAPE   O1216442   5.382   6.093  11.155  0.3655 -0.7932 -0.2873
  149SAPE   O1116443   5.532   5.919  11.074  0.0739 -0.2849  0.0698
  149SAPE    C116444   5.619   5.969  10.974 -0.4809 -0.5224 -0.5004
  149SAPE    HA16445   5.709   6.017  11.018 -1.5700  2.5946 -1.5801
  149SAPE    HB16446   5.645   5.886  10.905 -2.4855 -1.0347 -0.6595
  149SAPE    C216447   5.559   6.070  10.871  0.0976  0.3915 -0.0743
  149SAPE    HS16448   5.513   6.150  10.934  1.2480  0.8203  0.2320
  149SAPE   O2116449   5.464   6.000  10.794  0.3040  0.1465  0.4010
  149SAPE   C2116450   5.380   6.075  10.726  0.5951 -0.8735 -0.2953
  149SAPE   O2216451   5.347   6.190  10.750 -0.1350 -0.3790 -0.7951
  149SAPE   C2216452   5.308   5.983  10.620  0.3900 -1.0489  0.0004
  149SAPE   H2R16453   5.392   5.918  10.589  0.5434 -1.3372  1.0046
  149SAPE   H2S16454   5.235   5.924  10.681  0.0171 -0.0688  0.5198
  149SAPE    C316455   5.665   6.132  10.776  0.1079  0.1458  0.1256
  149SAPE    HX16456   5.739   6.191  10.835  1.7438 -1.1724 -0.5521
  149SAPE    HY16457   5.626   6.219  10.718 -0.4385  1.5552  2.5528
  149SAPE   O3116458   5.728   6.031  10.692 -0.1753 -0.2265  0.0277
  149SAPE   C3116459   5.698   6.031  10.561 -0.2120 -0.2287 -0.5038
  149SAPE   O3216460   5.611   6.100  10.508  0.0885  0.7336 -0.1057
  149SAPE   C3216461   5.776   5.922  10.490  0.1311  0.5172  0.6924
  149SAPE   H2X16462   5.798   5.840  10.561 -0.1509 -0.4491 -0.3259
  149SAPE   H2Y16463   5.872   5.970  10.461  0.3881 -1.2495 -1.5861
  149SAPE   C2316464   5.234   6.054  10.511  0.2041  0.0359 -0.2291
  149SAPE   H3R16465   5.302   6.100  10.436 -0.6921  0.8511 -0.5446
  149SAPE   H3S16466   5.162   6.128  10.552  0.8786  0.5430  0.0541
  149SAPE   C2416467   5.139   5.965  10.437  0.4526 -1.6547  0.4475
  149SAPE   H4R16468   5.091   6.028  10.360 -2.1940 -2.0989  1.6576
  149SAPE   H4S16469   5.065   5.922  10.508  1.0458 -1.5377  1.1443
  149SAPE   C2516470   5.224   5.868  10.360  0.5778  0.1335 -0.8712
  149SAPE   H5R16471   5.248   5.779  10.419  3.1437  0.1154 -1.8745
  149SAPE   C2616472   5.284   5.891  10.246  0.4871  0.2688  0.3119
  149SAPE   H6R16473   5.356   5.815  10.211 -1.2528 -0.1825 -2.5127
  149SAPE   C2716474   5.285   6.017  10.160 -0.1284 -0.3285  0.0143
  149SAPE   H7R16475   5.212   6.087  10.205 -1.8511 -2.0968  0.0228
  149SAPE   H7S16476   5.245   5.993  10.059 -1.4817  1.0945  0.2053
  149SAPE   C2816477   5.416   6.094  10.139  0.2772  0.4993 -0.3623
  149SAPE   H8R16478   5.465   6.126  10.232 -2.0759 -0.8741  1.4324
  149SAPE   C2916479   5.465   6.131  10.021 -0.5507  0.1441 -0.0064
  149SAPE   H9R16480   5.555   6.193  10.031 -0.7110  0.0428  2.2613
  149SAPE  C21016481   5.402   6.102   9.885  0.0343  0.2831 -0.0981
  149SAPE  H10R16482   5.356   6.001   9.891 -0.5001  0.4838 -0.7938
  149SAPE  H10S16483   5.483   6.107   9.809 -0.4960 -1.0019 -0.7710
  149SAPE  C21116484   5.295   6.195   9.860  0.0471  0.0867  0.3340
  149SAPE  H11R16485   5.259   6.243   9.952 -2.9575 -0.8661 -0.2799
  149SAPE  C21216486   5.250   6.230   9.737  0.1313  0.3260 -0.1057
  149SAPE  H12R16487   5.160   6.291   9.721 -0.3766 -0.2274  0.6244
  149SAPE  C21316488   5.313   6.193   9.600 -0.0431 -0.0794  0.5348
  149SAPE  H13R16489   5.268   6.105   9.548 -0.1894  1.0389 -1.2771
  149SAPE  H13S16490   5.420   6.165   9.616  0.1337  0.7367  0.7842
  149SAPE  C21416491   5.312   6.306   9.503  0.3616 -0.2410 -0.6292
  149SAPE  H14R16492   5.402   6.369   9.509 -0.9252  1.7028 -1.0262
  149SAPE  C21516493   5.225   6.327   9.400  0.7417 -0.8865 -0.1636
  149SAPE  H15R16494   5.248   6.416   9.340  1.9425 -1.5079 -0.6340
  149SAPE  C21616495   5.101   6.248   9.366 -0.2304  0.2333  0.5646
  149SAPE  H16R16496   5.011   6.274   9.425 -0.7065  0.8951 -0.4290
  149SAPE  H16S16497   5.117   6.141   9.389  0.5979 -0.4403 -2.7697
  149SAPE  C21716498   5.071   6.259   9.219 -0.4087 -0.4063  0.4635
  149SAPE  H17R16499   4.991   6.188   9.193 -1.1115  0.0984  1.2112
  149SAPE  H17S16500   5.160   6.223   9.163 -0.5896  1.2974 -0.9264
  149SAPE  C21816501   5.010   6.395   9.167 -0.3854  0.4569 -0.1527
  149SAPE  H18R16502   5.090   6.472   9.167  0.3665 -0.2962  1.1603
  149SAPE  H18S16503   4.941   6.431   9.246 -0.6973  0.0120 -0.2216
  149SAPE  C21916504   4.945   6.386   9.034  0.5915  0.4307 -0.5598
  149SAPE  H19R16505   4.895   6.481   9.004  4.4722  2.3380 -1.2996
  149SAPE  H19S16506   4.857   6.319   9.039  1.4050 -0.5480  1.0315
  149SAPE  C22016507   5.029   6.332   8.923 -0.4848 -0.4354  0.2011
  149SAPE  H20R16508   5.049   6.224   8.940 -3.2946 -1.2532 -1.4351
  149SAPE  H20S16509   5.120   6.397   8.922  0.9586 -2.3394  2.6470
  149SAPE  H20T16510   4.976   6.344   8.826  0.0680  0.1944 -0.0298
  149SAPE   C3316511   5.701   5.875  10.360 -0.8326 -0.5566 -0.1013
  149SAPE   H3X16512   5.723   5.952  10.284  0.1697  1.6751  2.3754
  149SAPE   H3Y16513   5.593   5.865  10.386 -0.6409  0.2380  1.0465
  149SAPE   C3416514   5.732   5.726  10.328  0.8937  0.4226  0.6624
  149SAPE   H4X16515   5.715   5.662  10.417  3.1123  0.8617  1.4097
  149SAPE   H4Y16516   5.842   5.722  10.317  0.9368 -0.6761  1.3779
  149SAPE   C3516517   5.658   5.683  10.206 -0.2779 -0.1046  0.0351
  149SAPE   H5X16518   5.550   5.692  10.230 -0.3494 -1.0113  0.0776
  149SAPE   H5Y16519   5.677   5.574  10.201 -1.2145 -0.4183  2.7484
  149SAPE   C3616520   5.692   5.749  10.073  0.1817  0.0579  0.6496
  149SAPE   H6X16521   5.802   5.736  10.065  0.0311 -0.4421 -0.8352
  149SAPE   H6Y16522   5.682   5.860  10.069  1.0758  0.1455  0.9509
  149SAPE   C3716523   5.619   5.685   9.948 -0.9791 -0.1543 -0.8439
  149SAPE   H7X16524   5.512   5.677   9.977 -0.4889 -0.6029  0.8953
  149SAPE   H7Y16525   5.656   5.581   9.940 -1.5455 -0.2651 -2.1800
  149SAPE   C3816526   5.634   5.757   9.813 -0.3204  0.7094 -0.6226
  149SAPE   H8X16527   5.743   5.774   9.796  0.4573  0.2471  3.3085
  149SAPE   H8Y16528   5.588   5.857   9.825 -4.3399 -0.9841 -1.2121
  149SAPE   C3916529   5.570   5.689   9.689 -0.1883  0.5258 -0.0688
  149SAPE   H9X16530   5.497   5.618   9.733  1.1194 -1.7472 -1.4469
  149SAPE   H9Y16531   5.650   5.620   9.655 -1.3532 -1.4074  1.0377
  149SAPE  C31016532   5.513   5.777   9.590 -0.2661 -0.1986 -0.5617
  149SAPE  H10X16533   5.453   5.859   9.634 -0.4188 -0.5498 -0.1093
  149SAPE  H10Y16534   5.438   5.732   9.520 -0.2416 -1.4529  0.2026
  149SAPE  C31116535   5.624   5.839   9.513  0.4313 -0.1048  0.8025
  149SAPE  H11X16536   5.665   5.761   9.445  2.4660 -0.6211  2.5711
  149SAPE  H11Y16537   5.701   5.873   9.586  1.0071  2.5148 -0.9274
  149SAPE  C31216538   5.588   5.966   9.433 -0.4592 -0.1501 -0.1683
  149SAPE  H12X16539   5.679   6.000   9.378 -0.6030 -2.1843 -1.7238
  149SAPE  H12Y16540   5.553   6.042   9.506 -0.6376 -0.7827  0.4027
  149SAPE  C31316541   5.490   5.933   9.315 -0.2697 -0.0646 -1.0663
  149SAPE  H13X16542   5.399   5.890   9.362 -0.2005 -0.4161 -1.2583
  149SAPE  H13Y16543   5.533   5.846   9.262 -2.0309  0.0683 -2.7323
  149SAPE  C31416544   5.461   6.049   9.224  0.1055 -0.5863  0.0801
  149SAPE  H14X16545   5.556   6.078   9.173  0.9061  0.7160  2.2339
  149SAPE  H14Y16546   5.428   6.140   9.280  3.0779  0.1813  0.6696
  149SAPE  C31516547   5.343   6.011   9.122 -0.1865 -0.3303 -0.6735
  149SAPE  H15X16548   5.316   6.114   9.092 -0.2376 -0.1580 -0.0515
  149SAPE  H15Y16549   5.263   5.963   9.183 -0.1224  1.0814  0.5377
  149SAPE  C31616550   5.398   5.938   9.006  0.4845  0.7084 -0.3690
  149SAPE  H16X16551   5.443   5.845   9.046 -1.1480  0.0774  0.0563
  149SAPE  H16Y16552   5.482   5.987   8.953  0.7359  0.4017 -0.2533
  149SAPE  C31716553   5.289   5.903   8.908  0.1205 -0.2667 -0.2473
  149SAPE  H17X16554   5.270   6.003   8.865 -0.5558  0.1776  1.0635
  149SAPE  H17Y16555   5.201   5.843   8.941  0.4112  0.3278  1.6659
  149SAPE  C31816556   5.345   5.818   8.794  0.0102  0.1385 -0.3178
  149SAPE  H18X16557   5.274   5.832   8.710 -0.3723 -0.9906 -0.1978
  149SAPE  H18Y16558   5.371   5.714   8.821 -0.4829  0.5407  1.8472
  149SAPE  H18Z16559   5.437   5.868   8.757  0.0082 -1.1212 -2.0753
  150SAPE     N16560   0.191   5.905  10.649 -0.3038  0.0884 -0.3993
  150SAPE   HN116561   0.202   5.982  10.581  0.8256 -0.1340 -0.4907
  150SAPE   HN216562   0.274   5.916  10.712 -2.4253 -1.3120  2.8160
  150SAPE   HN316563   0.210   5.812  10.605  0.7809  0.5618 -0.9383
  150SAPE   C1216564   0.056   5.909  10.720 -1.0989  0.6548  0.1249
  150SAPE  H12A16565  -0.020   5.905  10.640  0.4935 -0.9124 -1.3803
  150SAPE  H12B16566   0.056   6.016  10.751  0.4975  0.2738  1.5769
  150SAPE   C1116567   0.058   5.810  10.842  0.2922  0.4374  0.3784
  150SAPE  H11A16568   0.036   5.711  10.797  0.3974  0.1719  0.9143
  150SAPE  H11B16569  -0.031   5.842  10.901 -1.4203 -0.6947 -1.5000
  150SAPE     P16570   0.262   5.696  10.962 -0.1991  0.0179 -0.5763
  150SAPE   O1316571   0.377   5.737  11.045 -0.2648 -0.3108 -0.0195
  150SAPE   O1416572   0.168   5.607  11.033 -0.1414  0.3388 -0.1452
  150SAPE   O1216573   0.184   5.821  10.914  0.3197 -0.2070  0.0056
  150SAPE   O1116574   0.313   5.633  10.824 -0.1265  0.2464 -0.1528
  150SAPE    C116575   0.450   5.599  10.799  0.6359  0.6794 -0.0749
  150SAPE    HA16576   0.512   5.659  10.868  0.6988 -1.7238  2.0387
  150SAPE    HB16577   0.459   5.491  10.824  2.1148  0.8954  0.4056
  150SAPE    C216578   0.494   5.624  10.655  0.2442  0.4226  0.5174
  150SAPE    HS16579   0.471   5.727  10.621 -1.6487 -0.7736 -1.9640
  150SAPE   O2116580   0.423   5.529  10.574  0.1947  1.1459  0.2680
  150SAPE   C2116581   0.303   5.567  10.518 -0.5266 -0.3233 -0.4779
  150SAPE   O2216582   0.260   5.678  10.525 -0.0777  0.1283  0.0736
  150SAPE   C2216583   0.243   5.453  10.447 -0.0276 -0.1779  0.4533
  150SAPE   H2R16584   0.324   5.391  10.404 -0.0312  0.4167 -0.4295
  150SAPE   H2S16585   0.194   5.380  10.515 -0.4413  0.0159  0.3674
  150SAPE    C316586   0.642   5.604  10.641  0.6478 -0.5398  0.2860
  150SAPE    HX16587   0.661   5.495  10.654 -1.5116 -1.2270 -1.7958
  150SAPE    HY16588   0.691   5.668  10.717  1.0724 -2.5590  1.7590
  150SAPE   O3116589   0.675   5.643  10.503 -0.0676  0.5671 -0.5762
  150SAPE   C3116590   0.797   5.606  10.466  0.1316  0.4293  0.7210
  150SAPE   O3216591   0.876   5.554  10.544 -0.3099 -0.2606 -0.1904
  150SAPE   C3216592   0.832   5.627  10.319  0.9286  0.3652 -0.4812
  150SAPE   H2X16593   0.930   5.584  10.288  0.3863 -0.8912 -0.4702
  150SAPE   H2Y16594   0.849   5.736  10.303  1.8743  0.2038 -0.6582
  150SAPE   C2316595   0.137   5.482  10.340  0.7901 -0.1754 -0.5536
  150SAPE   H3R16596   0.157   5.577  10.286  1.8788  0.8212  1.5353
  150SAPE   H3S16597   0.039   5.507  10.387  0.2618 -2.5293 -0.3717
  150SAPE   C2416598   0.129   5.355  10.248  0.0543  0.0857 -0.3116
  150SAPE   H4R16599   0.156   5.265  10.308  2.4742  1.3702  0.6153
  150SAPE   H4S16600   0.205   5.361  10.168  0.5184  0.0888  0.1261
  150SAPE   C2516601  -0.014   5.349  10.192  0.4886 -1.2937  0.8380
  150SAPE   H5R16602  -0.087   5.404  10.252  0.8982 -0.7376  0.8275
  150SAPE   C2616603  -0.056   5.277  10.081 -0.0081  0.0644  0.0715
  150SAPE   H6R16604  -0.158   5.294  10.045  0.1933 -0.3933 -0.7168
  150SAPE   C2716605   0.032   5.190   9.994  0.1440 -0.3968  0.2919
  150SAPE   H7R16606  -0.025   5.098   9.969 -0.4290  0.3087 -1.0568
  150SAPE   H7S16607   0.122   5.163  10.053  0.2991  1.1509  0.7851
  150SAPE   C2816608   0.076   5.266   9.870  0.6424 -0.5760  0.9086
  150SAPE   H8R16609   0.078   5.376   9.881 -0.7931 -0.6728  2.3406
  150SAPE   C2916610   0.127   5.212   9.759  0.3616  0.9731 -0.7540
  150SAPE   H9R16611   0.150   5.279   9.675  1.6022 -0.1364 -1.3214
  150SAPE  C21016612   0.140   5.062   9.720  0.0917 -0.2892  0.6125
  150SAPE  H10R16613   0.090   5.000   9.798  0.3396  0.5798  1.4717
  150SAPE  H10S16614   0.246   5.029   9.715  0.0479 -0.1129 -1.9199
  150SAPE  C21116615   0.080   5.037   9.582 -0.6049  0.3923  0.1040
  150SAPE  H11R16616  -0.029   5.046   9.571 -0.2918  2.0142 -1.8700
  150SAPE  C21216617   0.147   4.999   9.472 -0.3119  0.0097  0.4136
  150SAPE  H12R16618   0.090   4.965   9.383 -1.1921 -0.3695  1.1140
  150SAPE  C21316619   0.298   4.974   9.463  0.0886  0.8279 -0.6317
  150SAPE  H13R16620   0.349   5.009   9.555 -0.3619 -0.5065  0.1397
  150SAPE  H13S16621   0.348   5.024   9.377  0.3572  0.1185 -0.8908
  150SAPE  C21416622   0.331   4.827   9.457 -0.4557 -0.2748 -0.3228
  150SAPE  H14R16623   0.330   4.783   9.558 -0.2078  0.0475 -0.1784
  150SAPE  C21516624   0.355   4.752   9.344  0.1294 -0.6522 -0.8669
  150SAPE  H15R16625   0.375   4.645   9.359 -0.6044 -0.5032  1.3562
  150SAPE  C21616626   0.352   4.812   9.210  0.2023  0.3783 -0.3691
  150SAPE  H16R16627   0.435   4.887   9.206  1.3020 -0.4363  4.4024
  150SAPE  H16S16628   0.256   4.867   9.201 -0.5526 -0.6874  1.1362
  150SAPE  C21716629   0.356   4.714   9.089  0.1479  0.0422  0.2901
  150SAPE  H17R16630   0.354   4.766   8.991 -2.4262 -0.4503  0.0461
  150SAPE  H17S16631   0.266   4.649   9.087  0.2180 -0.0886 -3.5142
  150SAPE  C21816632   0.477   4.622   9.086 -0.0130 -0.5922 -0.5019
  150SAPE  H18R16633   0.475   4.578   9.188 -2.2374  0.5340 -0.0120
  150SAPE  H18S16634   0.562   4.685   9.055 -1.8960  2.3622  0.1115
  150SAPE  C21916635   0.465   4.500   8.992  0.0307 -0.3356  0.1048
  150SAPE  H19R16636   0.405   4.530   8.904 -0.4611 -0.2125  0.4813
  150SAPE  H19S16637   0.412   4.422   9.050 -0.8299  0.0635 -0.1355
  150SAPE  C22016638   0.598   4.440   8.936  0.3985 -0.1602  0.0603
  150SAPE  H20R16639   0.574   4.339   8.897 -0.5500 -0.6585  1.8689
  150SAPE  H20S16640   0.690   4.418   8.995  1.2705 -0.0252 -1.2212
  150SAPE  H20T16641   0.649   4.499   8.856  0.2656  0.2065  0.2465
  150SAPE   C3316642   0.721   5.576  10.227  0.2684 -0.2954  0.2073
  150SAPE   H3X16643   0.627   5.628  10.255  0.3119 -0.8203  1.3520
  150SAPE   H3Y16644   0.706   5.470  10.256  3.1677 -0.0726  2.7723
  150SAPE   C3416645   0.739   5.587  10.070  0.9886 -0.2160  0.1518
  150SAPE   H4X16646   0.638   5.574  10.026  0.3982  4.8064 -0.2584
  150SAPE   H4Y16647   0.805   5.510  10.025 -0.6658 -1.2437 -0.5658
  150SAPE   C3516648   0.781   5.730  10.032 -0.1771 -0.1590 -0.4263
  150SAPE   H5X16649   0.891   5.738  10.049 -0.3414  0.9671  0.1228
  150SAPE   H5Y16650   0.722   5.801  10.093  0.2745  2.2117 -2.6762
  150SAPE   C3616651   0.746   5.774   9.887 -0.2755  0.6267 -0.9105
  150SAPE   H6X16652   0.801   5.869   9.872  1.3265 -0.3010 -1.1155
  150SAPE   H6Y16653   0.638   5.785   9.866 -0.4600 -0.0382 -0.3211
  150SAPE   C3716654   0.817   5.695   9.780 -0.1493 -0.4598  0.4086
  150SAPE   H7X16655   0.784   5.588   9.779  1.2810 -0.9036 -1.9699
  150SAPE   H7Y16656   0.921   5.694   9.819 -0.3664 -0.2588  0.9969
  150SAPE   C3816657   0.809   5.743   9.637 -0.3253 -0.8923  0.3146
  150SAPE   H8X16658   0.872   5.835   9.634 -1.5907 -0.0535 -2.1779
  150SAPE   H8Y16659   0.705   5.774   9.611  0.6428  0.8575 -1.6126
  150SAPE   C3916660   0.859   5.647   9.531 -0.6970 -0.8246  0.0672
  150SAPE   H9X16661   0.784   5.566   9.521 -0.1434 -1.1633 -1.4380
  150SAPE   H9Y16662   0.957   5.606   9.561 -0.5363 -0.7242 -0.3256
  150SAPE  C31016663   0.853   5.712   9.385 -0.0912 -0.2273 -0.5069
  150SAPE  H10X16664   0.904   5.649   9.309  0.7612  0.5770 -0.6140
  150SAPE  H10Y16665   0.913   5.805   9.399 -0.0603 -0.1884 -0.9059
  150SAPE  C31116666   0.718   5.745   9.327  0.4278 -0.2676  0.2569
  150SAPE  H11X16667   0.684   5.831   9.389 -0.7158  0.5180 -1.4127
  150SAPE  H11Y16668   0.646   5.662   9.337  0.8793 -0.5622  1.1358
  150SAPE  C31216669   0.736   5.797   9.180  0.1166  0.2103 -0.0976
  150SAPE  H12X16670   0.828   5.859   9.183  0.2561 -0.0553  2.5551
  150SAPE  H12Y16671   0.648   5.861   9.159  0.5006  0.4109 -1.1110
  150SAPE  C31316672   0.739   5.689   9.074 -0.3145 -0.4295 -0.3561
  150SAPE  H13X16673   0.636   5.656   9.050  1.0318 -4.0339 -1.4064
  150SAPE  H13Y16674   0.780   5.596   9.118 -0.1499  0.3302  1.1351
  150SAPE  C31416675   0.803   5.743   8.947  0.2314 -0.3276  0.0558
  150SAPE  H14X16676   0.905   5.784   8.969 -0.4334  0.9472  0.8721
  150SAPE  H14Y16677   0.740   5.827   8.910 -0.8505 -0.6856  1.0769
  150SAPE  C31516678   0.818   5.637   8.836  0.1578  0.2495  0.0628
  150SAPE  H15X16679   0.862   5.541   8.870  0.4201 -0.2877 -1.7276
  150SAPE  H15Y16680   0.891   5.683   8.765  1.0619  0.2347  0.9643
  150SAPE  C31616681   0.682   5.599   8.781 -0.0834 -0.2658  0.9515
  150SAPE  H16X16682   0.618   5.689   8.773 -1.6203 -1.5261 -1.2527
  150SAPE  H16Y16683   0.638   5.533   8.859  0.0749 -0.9840  0.4419
  150SAPE  C31716684   0.672   5.528   8.641 -0.2870 -0.3788 -0.4512
  150SAPE  H17X16685   0.740   5.440   8.646  2.1879  1.4183 -1.6445
  150SAPE  H17Y16686   0.708   5.595   8.560  1.1859  0.8750  1.2036
  150SAPE  C31816687   0.529   5.488   8.599 -0.0899  0.3820 -0.0536
  150SAPE  H18X16688   0.516   5.448   8.496 -1.3233  4.5119 -1.5936
  150SAPE  H18Y16689   0.467   5.580   8.589 -1.4631 -0.4583  0.6077
  150SAPE  H18Z16690   0.492   5.412   8.671 -0.1053  0.9877  0.5781
  151SAPE     N16691   4.546   2.318  10.698  0.3192 -0.5964  0.2958
  151SAPE   HN116692   4.531   2.399  10.761  0.4877 -0.2447 -0.1169
  151SAPE   HN216693   4.508   2.341  10.604  1.2552 -0.4956 -0.0606
  151SAPE   HN316694   4.486   2.239  10.731  0.9060 -1.2885 -0.2801
  151SAPE   C1216695   4.681   2.258  10.706  0.1125 -0.7369  0.2181
  151SAPE  H12A16696   4.719   2.257  10.810  1.1701  0.2653 -0.1435
  151SAPE  H12B16697   4.740   2.324  10.639 -2.3291  0.6249 -0.6267
  151SAPE   C1116698   4.682   2.112  10.661 -0.1351  0.2324  0.0260
  151SAPE  H11A16699   4.639   2.040  10.734 -1.4816 -0.3469 -1.3012
  151SAPE  H11B16700   4.786   2.076  10.651  0.7674  2.8888 -0.5478
  151SAPE     P16701   4.625   1.971  10.449 -0.5453  0.0849  0.0871
  151SAPE   O1316702   4.765   1.931  10.443 -0.2983 -0.0737  0.8393
  151SAPE   O1416703   4.537   1.871  10.512  0.3313 -0.3005  0.1106
  151SAPE   O1216704   4.612   2.102  10.536 -0.4898 -0.0434  0.5291
  151SAPE   O1116705   4.579   2.021  10.303  0.1377  0.1532  0.1688
  151SAPE    C116706   4.638   2.143  10.255  0.2021 -0.3549 -0.0873
  151SAPE    HA16707   4.578   2.226  10.297  0.0346 -0.2024 -0.6149
  151SAPE    HB16708   4.748   2.150  10.272  0.1092 -0.3075  0.4746
  151SAPE    C216709   4.625   2.163  10.098 -0.0843  0.6235 -0.3960
  151SAPE    HS16710   4.666   2.261  10.065  1.1749  0.0983 -0.4291
  151SAPE   O2116711   4.488   2.150  10.058  0.2229  0.3378 -0.7787
  151SAPE   C2116712   4.416   2.258  10.051 -0.5112  0.5599 -0.4485
  151SAPE   O2216713   4.460   2.368  10.089  0.4366  0.3344 -0.5426
  151SAPE   C2216714   4.283   2.225   9.985 -0.8009 -1.1475  0.0365
  151SAPE   H2R16715   4.284   2.123   9.940  2.0864 -0.7513 -0.8647
  151SAPE   H2S16716   4.211   2.213  10.069 -0.1418  0.4406  0.8363
  151SAPE    C316717   4.711   2.046  10.025  0.4427 -0.3992  0.2979
  151SAPE    HX16718   4.689   1.963  10.096 -0.8618  0.8554  1.4074
  151SAPE    HY16719   4.818   2.071  10.041  0.1713  0.7730  0.3186
  151SAPE   O3116720   4.682   2.028   9.881 -0.5522 -0.0033 -0.1607
  151SAPE   C3116721   4.609   1.915   9.860 -0.5833 -0.3901  0.3012
  151SAPE   O3216722   4.585   1.831   9.939  0.0681 -0.8809 -0.2253
  151SAPE   C3216723   4.561   1.917   9.719 -0.2279 -0.2669  0.6670
  151SAPE   H2X16724   4.499   1.826   9.703  0.6249 -1.7034  4.7458
  151SAPE   H2Y16725   4.648   1.897   9.653 -2.1719 -2.0514 -1.4503
  151SAPE   C2316726   4.227   2.335   9.900  0.3228  0.1575 -0.5667
  151SAPE   H3R16727   4.307   2.383   9.841 -0.5978 -0.3522 -2.2496
  151SAPE   H3S16728   4.161   2.402   9.959  1.8162  0.2642  1.0135
  151SAPE   C2416729   4.142   2.267   9.784 -0.5472  0.6080  1.2906
  151SAPE   H4R16730   4.078   2.182   9.815 -1.3946  0.6714 -0.1924
  151SAPE   H4S16731   4.223   2.229   9.719 -0.8587  1.7110  0.2249
  151SAPE   C2516732   4.044   2.361   9.714 -0.3580 -0.0236 -0.0382
  151SAPE   H5R16733   3.937   2.354   9.740 -0.2779  0.6838  0.4984
  151SAPE   C2616734   4.069   2.433   9.607  0.0133 -0.0854  1.0561
  151SAPE   H6R16735   3.985   2.494   9.569 -0.6231 -2.4333 -1.5200
  151SAPE   C2716736   4.199   2.445   9.523  0.5377 -0.0347 -0.0999
  151SAPE   H7R16737   4.282   2.462   9.595 -0.0537  2.3427  0.0747
  151SAPE   H7S16738   4.198   2.536   9.459 -1.3547 -1.6339 -2.4384
  151SAPE   C2816739   4.223   2.323   9.430 -0.2900 -0.1740  0.4577
  151SAPE   H8R16740   4.233   2.225   9.479 -2.0324 -0.9409 -0.6898
  151SAPE   C2916741   4.245   2.320   9.297 -0.0212 -0.3995  0.7095
  151SAPE   H9R16742   4.253   2.227   9.240  3.0262  0.3767 -0.2413
  151SAPE  C21016743   4.247   2.446   9.212  0.2414  0.2331  0.1912
  151SAPE  H10R16744   4.317   2.423   9.129  1.7425  1.8725  0.9739
  151SAPE  H10S16745   4.293   2.528   9.271  1.3226  0.4919 -1.0014
  151SAPE  C21116746   4.108   2.492   9.169  0.3698  0.1428 -0.7299
  151SAPE  H11R16747   4.053   2.558   9.239  1.3327 -0.5715  0.7319
  151SAPE  C21216748   4.046   2.443   9.060  0.3271  0.1688  0.3545
  151SAPE  H12R16749   3.945   2.482   9.043  0.6134  1.9000  2.2994
  151SAPE  C21316750   4.103   2.341   8.969 -1.0487  0.2189 -0.2428
  151SAPE  H13R16751   4.021   2.281   8.924 -0.4032 -0.7106 -0.1804
  151SAPE  H13S16752   4.154   2.265   9.032 -0.8976  1.1935  0.8415
  151SAPE  C21416753   4.197   2.399   8.871 -0.8156  0.3759 -0.1429
  151SAPE  H14R16754   4.256   2.483   8.909  0.3984 -0.0719 -1.0044
  151SAPE  C21516755   4.215   2.364   8.744 -0.2248 -0.0358  0.1255
  151SAPE  H15R16756   4.292   2.412   8.682 -0.8791  1.5779  0.5314
  151SAPE  C21616757   4.130   2.266   8.667  0.3265  0.6619  0.3032
  151SAPE  H16R16758   4.045   2.313   8.614  0.2815  1.3345  0.9710
  151SAPE  H16S16759   4.073   2.196   8.732 -2.0784 -0.2707 -2.6352
  151SAPE  C21716760   4.201   2.196   8.545 -0.3878 -0.2693  0.0937
  151SAPE  H17R16761   4.263   2.115   8.590  0.1074 -0.7759 -1.4742
  151SAPE  H17S16762   4.260   2.264   8.480 -2.4032  1.5173  0.1080
  151SAPE  C21816763   4.104   2.124   8.448 -0.1180  0.5927 -0.2737
  151SAPE  H18R16764   4.054   2.205   8.390 -0.2445  1.0180  0.4370
  151SAPE  H18S16765   4.022   2.064   8.492 -2.0499  1.8061 -2.1341
  151SAPE  C21916766   4.177   2.014   8.362 -0.1798  0.4580  0.1100
  151SAPE  H19R16767   4.267   2.059   8.316 -0.1239  1.3644  1.0736
  151SAPE  H19S16768   4.104   1.974   8.288  0.6253 -2.5534  0.8762
  151SAPE  C22016769   4.232   1.895   8.445 -0.1568 -0.0843 -0.6106
  151SAPE  H20R16770   4.303   1.921   8.527  1.4262 -1.2693 -1.5694
  151SAPE  H20S16771   4.273   1.815   8.380 -2.3005 -2.2616  0.6198
  151SAPE  H20T16772   4.143   1.843   8.485  0.2034  0.9783  1.6464
  151SAPE   C3316773   4.493   2.048   9.668 -0.2586  0.6925  0.3396
  151SAPE   H3X16774   4.511   2.131   9.740  1.5860  0.7511 -0.1702
  151SAPE   H3Y16775   4.384   2.026   9.671 -0.4559  0.7352 -3.5529
  151SAPE   C3416776   4.526   2.077   9.522 -0.6752 -0.0519  0.2842
  151SAPE   H4X16777   4.466   2.161   9.480  0.8367 -0.4138 -2.7245
  151SAPE   H4Y16778   4.480   1.995   9.463 -0.6294  0.0793  0.0656
  151SAPE   C3516779   4.670   2.120   9.490  0.4937  0.4579 -0.0911
  151SAPE   H5X16780   4.674   2.138   9.380  0.7878 -2.1259 -0.5451
  151SAPE   H5Y16781   4.740   2.039   9.520  0.4251  0.2410 -0.5112
  151SAPE   C3616782   4.704   2.250   9.564 -0.0141  0.6659  0.0074
  151SAPE   H6X16783   4.685   2.255   9.674  0.1301  0.7623  0.0276
  151SAPE   H6Y16784   4.633   2.328   9.532 -0.7157  0.2821  0.6096
  151SAPE   C3716785   4.850   2.296   9.539  0.5778 -0.5181 -0.7530
  151SAPE   H7X16786   4.910   2.211   9.499  0.6621 -1.4035  1.2003
  151SAPE   H7Y16787   4.908   2.309   9.633  2.0922 -0.9817 -1.6090
  151SAPE   C3816788   4.860   2.413   9.446  0.1615  0.0356 -0.4499
  151SAPE   H8X16789   4.966   2.428   9.416  0.5627 -0.5436  0.6662
  151SAPE   H8Y16790   4.827   2.508   9.493 -0.6671 -0.8904  0.8667
  151SAPE   C3916791   4.787   2.388   9.319 -0.0479 -0.4513 -0.1508
  151SAPE   H9X16792   4.679   2.382   9.346  0.5011 -1.1067  2.0117
  151SAPE   H9Y16793   4.814   2.292   9.271 -0.4156 -1.0787  0.8799
  151SAPE  C31016794   4.804   2.508   9.226 -0.1904 -0.0972  0.5863
  151SAPE  H10X16795   4.909   2.528   9.196  0.2746 -0.8649  1.6416
  151SAPE  H10Y16796   4.785   2.597   9.289  0.4223 -0.6344  1.5538
  151SAPE  C31116797   4.701   2.516   9.117 -0.5573 -0.5366  0.0072
  151SAPE  H11X16798   4.603   2.538   9.164  0.0371  2.5477 -0.0776
  151SAPE  H11Y16799   4.685   2.426   9.055  1.7347 -0.7039 -0.4052
  151SAPE  C31216800   4.727   2.639   9.026  0.2856 -0.0403  0.0894
  151SAPE  H12X16801   4.834   2.627   8.998  0.0193 -1.9081 -0.1571
  151SAPE  H12Y16802   4.720   2.733   9.086  3.7647  1.2093 -1.3016
  151SAPE  C31316803   4.640   2.657   8.902 -0.4941 -0.3387  0.3553
  151SAPE  H13X16804   4.592   2.757   8.899 -0.1875 -0.1792  0.7844
  151SAPE  H13Y16805   4.562   2.577   8.904  0.3593 -1.1881  0.0819
  151SAPE  C31416806   4.717   2.644   8.772 -0.0171  0.3688  0.2175
  151SAPE  H14X16807   4.809   2.703   8.788  2.0070 -2.4218 -0.8309
  151SAPE  H14Y16808   4.674   2.694   8.682  3.3399  0.7267 -1.2405
  151SAPE  C31516809   4.767   2.500   8.737  0.0031 -0.3434 -0.3945
  151SAPE  H15X16810   4.838   2.461   8.813 -0.6805 -1.1082 -0.1492
  151SAPE  H15Y16811   4.815   2.503   8.637  0.9710  1.1783  0.0931
  151SAPE  C31616812   4.658   2.400   8.710  0.0568  0.1521 -0.3324
  151SAPE  H16X16813   4.581   2.444   8.643 -0.2317 -0.3711 -0.3491
  151SAPE  H16Y16814   4.605   2.383   8.806 -0.9643  0.8003 -0.7755
  151SAPE  C31716815   4.716   2.274   8.645  0.5717  0.3222 -0.4703
  151SAPE  H17X16816   4.806   2.244   8.704 -1.2776 -1.2880  1.6131
  151SAPE  H17Y16817   4.755   2.301   8.545  1.4616 -0.5605 -0.3838
  151SAPE  C31816818   4.623   2.156   8.634  0.3791  0.0166 -0.1204
  151SAPE  H18X16819   4.594   2.121   8.735  2.1777  0.1558  0.4546
  151SAPE  H18Y16820   4.688   2.078   8.589  0.2034  0.5462 -1.3090
  151SAPE  H18Z16821   4.541   2.171   8.560  2.3534  0.4651 -2.2773
  152SAPE     N16822   5.887   1.930  10.689 -0.1500 -0.8823 -0.8490
  152SAPE   HN116823   5.967   1.876  10.651 -0.6206 -2.0073 -0.2974
  152SAPE   HN216824   5.831   1.854  10.733  0.7763 -0.4507  1.1551
  152SAPE   HN316825   5.826   1.960  10.611  0.7177  2.3755 -0.3273
  152SAPE   C1216826   5.926   2.032  10.795  0.6460 -0.1239  0.3325
  152SAPE  H12A16827   5.971   1.981  10.883  1.9202 -0.6711 -0.6386
  152SAPE  H12B16828   5.836   2.087  10.831 -0.6943 -1.7138 -0.5190
  152SAPE   C1116829   6.032   2.130  10.735  0.4550 -0.4612 -0.1492
  152SAPE  H11A16830   6.115   2.066  10.698 -0.8506 -1.5615 -1.2387
  152SAPE  H11B16831   6.069   2.190  10.821 -0.0376  0.9999 -0.9400
  152SAPE     P16832   6.024   2.253  10.516  0.1406 -0.5387 -0.3481
  152SAPE   O1316833   5.954   2.371  10.463  0.7620 -0.3612 -0.0378
  152SAPE   O1416834   6.177   2.259  10.523  0.4604 -0.1303 -0.0820
  152SAPE   O1216835   5.968   2.229  10.657  0.6313 -0.3617 -0.8052
  152SAPE   O1116836   5.977   2.121  10.436 -0.8662  1.0654  0.2180
  152SAPE    C116837   6.068   2.047  10.361 -0.4817  0.3058 -0.5870
  152SAPE    HA16838   6.175   2.059  10.390 -0.7991  1.8808 -0.0174
  152SAPE    HB16839   6.038   1.945  10.394 -0.1083  0.7626  1.2114
  152SAPE    C216840   6.058   2.064  10.210  0.7666  0.3803 -0.3472
  152SAPE    HS16841   6.122   1.989  10.157  0.6658  1.0912 -1.4932
  152SAPE   O2116842   6.107   2.193  10.176  0.1594  0.1575  0.6103
  152SAPE   C2116843   6.240   2.203  10.165  0.8686 -0.6757 -0.5049
  152SAPE   O2216844   6.319   2.108  10.167  0.1633 -0.0440  0.2311
  152SAPE   C2216845   6.282   2.354  10.162  0.2779 -0.1379 -0.0957
  152SAPE   H2R16846   6.197   2.424  10.178  0.2145  0.1906 -1.7619
  152SAPE   H2S16847   6.361   2.368  10.239 -1.0867 -1.1064  1.5324
  152SAPE    C316848   5.914   2.034  10.151  0.0756  0.0614  0.3625
  152SAPE    HX16849   5.848   2.114  10.190 -1.5566 -1.5506  0.9501
  152SAPE    HY16850   5.868   1.944  10.196  1.2704  0.0544  1.6120
  152SAPE   O3116851   5.916   2.022  10.010  0.1203 -0.4910  0.2812
  152SAPE   C3116852   5.942   1.895   9.968  0.4678  0.2695 -0.6985
  152SAPE   O3216853   5.972   1.804  10.044 -0.2524  0.0028  0.3369
  152SAPE   C3216854   5.963   1.891   9.819 -0.5526 -0.6477 -0.2483
  152SAPE   H2X16855   6.057   1.943   9.793 -0.2751 -1.6029 -1.1479
  152SAPE   H2Y16856   5.879   1.946   9.770 -2.1807 -2.6757  0.1693
  152SAPE   C2316857   6.358   2.406  10.040 -0.1414  0.0536 -0.5216
  152SAPE   H3R16858   6.450   2.347  10.019  0.6225  0.2284  2.1765
  152SAPE   H3S16859   6.377   2.510  10.071  1.7523 -1.6082  4.3515
  152SAPE   C2416860   6.264   2.408   9.919 -0.7515  0.5156 -0.1823
  152SAPE   H4R16861   6.321   2.467   9.844 -2.6711  1.5408 -0.8684
  152SAPE   H4S16862   6.182   2.477   9.946 -0.1987  0.9265  0.4394
  152SAPE   C2516863   6.218   2.274   9.876  0.0534  0.4387 -0.5135
  152SAPE   H5R16864   6.137   2.227   9.933  1.8529 -2.5125 -0.2513
  152SAPE   C2616865   6.276   2.208   9.778  0.0901  0.1459 -0.0371
  152SAPE   H6R16866   6.230   2.110   9.758  0.0233 -0.2532  1.9198
  152SAPE   C2716867   6.396   2.245   9.691  0.4565  0.5452 -0.5534
  152SAPE   H7R16868   6.408   2.354   9.680  1.4427  0.3528 -1.4519
  152SAPE   H7S16869   6.371   2.216   9.587 -2.6922 -0.7515  0.4863
  152SAPE   C2816870   6.527   2.180   9.741  0.1884  0.0762 -0.0463
  152SAPE   H8R16871   6.534   2.167   9.850 -2.3291 -0.5175  0.0846
  152SAPE   C2916872   6.631   2.131   9.666  0.5905 -0.1877 -0.8544
  152SAPE   H9R16873   6.712   2.098   9.733  0.3302  0.7391 -0.0626
  152SAPE  C21016874   6.655   2.117   9.516  0.3291 -0.5687  0.2529
  152SAPE  H10R16875   6.758   2.135   9.481  0.1751 -1.3980 -0.6221
  152SAPE  H10S16876   6.596   2.192   9.458  1.1544  1.3714  1.8614
  152SAPE  C21116877   6.628   1.979   9.464 -0.0507 -0.0956 -0.6260
  152SAPE  H11R16878   6.693   1.901   9.506  0.3829  0.9070  0.6029
  152SAPE  C21216879   6.546   1.942   9.365  0.5414  0.3352  0.7560
  152SAPE  H12R16880   6.549   1.837   9.331 -1.7363  0.5750 -0.2782
  152SAPE  C21316881   6.449   2.031   9.288 -0.3594 -0.2475 -1.0003
  152SAPE  H13R16882   6.482   2.063   9.187  2.0846  0.8597  0.1081
  152SAPE  H13S16883   6.434   2.122   9.349 -1.6455 -1.3892  0.4237
  152SAPE  C21416884   6.324   1.957   9.280 -0.2245 -0.0089  0.1686
  152SAPE  H14R16885   6.294   1.922   9.380 -0.9306 -0.0821 -0.0652
  152SAPE  C21516886   6.252   1.931   9.174  0.4128 -0.6452 -0.0017
  152SAPE  H15R16887   6.170   1.860   9.191 -0.0817 -0.4327 -1.3915
  152SAPE  C21616888   6.270   1.979   9.030 -0.4766 -0.2438  0.3635
  152SAPE  H16R16889   6.280   2.090   9.033 -1.8735 -0.1414  2.2311
  152SAPE  H16S16890   6.182   1.951   8.968  1.6092  0.0810 -2.8649
  152SAPE  C21716891   6.385   1.919   8.951 -0.2840 -0.3311  0.2438
  152SAPE  H17R16892   6.368   1.810   8.939 -2.8260  0.2028 -1.3141
  152SAPE  H17S16893   6.479   1.940   9.008 -0.9643 -0.8946  1.6011
  152SAPE  C21816894   6.399   1.967   8.801  0.0657 -0.6034 -0.1833
  152SAPE  H18R16895   6.313   1.928   8.743  0.0819  0.8569 -1.1923
  152SAPE  H18S16896   6.492   1.923   8.757  0.9288 -0.6427  1.6469
  152SAPE  C21916897   6.412   2.120   8.796  0.3385 -0.3241 -0.1572
  152SAPE  H19R16898   6.508   2.153   8.841  1.0166  0.5233 -2.1473
  152SAPE  H19S16899   6.337   2.177   8.855  0.7213  0.9917 -0.9313
  152SAPE  C22016900   6.400   2.166   8.644  0.1412  0.6859 -0.1575
  152SAPE  H20R16901   6.299   2.131   8.614  0.3520 -1.0170  1.0299
  152SAPE  H20S16902   6.473   2.108   8.584  1.0049  1.6260 -0.0405
  152SAPE  H20T16903   6.420   2.275   8.640 -0.6675  0.8419 -0.0578
  152SAPE   C3316904   5.945   1.750   9.763 -0.7013 -0.2116 -0.1495
  152SAPE   H3X16905   5.837   1.735   9.784 -1.0401 -0.9342 -2.3008
  152SAPE   H3Y16906   6.009   1.672   9.809  3.3243  1.7637 -2.0875
  152SAPE   C3416907   5.986   1.748   9.609 -0.3267  0.5376 -0.1857
  152SAPE   H4X16908   5.963   1.646   9.572  2.5593 -0.3031  0.2093
  152SAPE   H4Y16909   6.097   1.749   9.613 -0.3851  0.9892  1.4524
  152SAPE   C3516910   5.930   1.854   9.520 -0.6329 -0.8086 -0.2632
  152SAPE   H5X16911   5.963   1.955   9.553  0.8987 -1.7479  1.1561
  152SAPE   H5Y16912   5.821   1.842   9.531 -0.9631  0.5770 -1.7530
  152SAPE   C3616913   5.973   1.830   9.369 -0.1830  0.2821  0.2695
  152SAPE   H6X16914   6.084   1.832   9.366 -0.1212 -0.2453  1.7844
  152SAPE   H6Y16915   5.936   1.917   9.311 -1.7710  0.0490  0.9071
  152SAPE   C3716916   5.930   1.697   9.305 -0.6247 -0.4042  0.5481
  152SAPE   H7X16917   5.843   1.655   9.359 -0.9157 -0.0357  0.3710
  152SAPE   H7Y16918   6.008   1.618   9.309  0.0374  0.1336 -1.0590
  152SAPE   C3816919   5.905   1.710   9.150 -0.1892  0.8517 -0.9285
  152SAPE   H8X16920   5.999   1.743   9.103 -0.0393  2.0242  0.1755
  152SAPE   H8Y16921   5.828   1.783   9.116  0.1870  1.0235 -1.4034
  152SAPE   C3916922   5.866   1.582   9.087  0.2224 -0.6497 -0.2108
  152SAPE   H9X16923   5.766   1.595   9.040  0.3720  2.8469  0.3192
  152SAPE   H9Y16924   5.847   1.499   9.159 -0.2457 -2.4536 -2.3653
  152SAPE  C31016925   5.956   1.529   8.980 -0.3545  0.0734 -0.2256
  152SAPE  H10X16926   6.040   1.472   9.026 -0.4657  1.5410  1.8401
  152SAPE  H10Y16927   6.008   1.614   8.930  1.6729  0.4302  2.3820
  152SAPE  C31116928   5.875   1.437   8.887 -0.3248 -0.3334 -0.0689
  152SAPE  H11X16929   5.787   1.491   8.847 -0.4063 -1.1354 -0.9925
  152SAPE  H11Y16930   5.842   1.345   8.939 -0.2531 -0.9795 -1.1341
  152SAPE  C31216931   5.953   1.383   8.768  0.4526  0.3198  0.4007
  152SAPE  H12X16932   6.045   1.330   8.801  0.7654  0.1875 -0.6753
  152SAPE  H12Y16933   5.996   1.463   8.705 -1.2499  0.5425 -0.5082
  152SAPE  C31316934   5.873   1.284   8.683  0.2384  0.2066  0.4687
  152SAPE  H13X16935   5.786   1.336   8.638 -0.4619 -1.2463  0.1172
  152SAPE  H13Y16936   5.848   1.193   8.742 -0.8127 -0.8624 -1.5678
  152SAPE  C31416937   5.958   1.215   8.572 -0.1788 -0.0041 -0.1758
  152SAPE  H14X16938   6.036   1.148   8.612 -1.3152 -3.4430 -3.4018
  152SAPE  H14Y16939   5.997   1.292   8.502 -2.5704  2.0855  0.6871
  152SAPE  C31516940   5.858   1.128   8.480  0.5156  0.4689 -0.1256
  152SAPE  H15X16941   5.893   1.122   8.374 -0.6704 -0.1178 -0.4928
  152SAPE  H15Y16942   5.764   1.186   8.479 -0.2046 -0.6217  1.6282
  152SAPE  C31616943   5.816   0.989   8.529  0.0528  0.1159 -0.5328
  152SAPE  H16X16944   5.762   1.019   8.622 -0.5589  0.0392 -0.8633
  152SAPE  H16Y16945   5.917   0.944   8.542  0.8123  1.5304 -1.3675
  152SAPE  C31716946   5.719   0.915   8.441 -0.1366 -0.1754  0.3136
  152SAPE  H17X16947   5.702   0.813   8.481  0.8302 -0.3361  0.3232
  152SAPE  H17Y16948   5.768   0.903   8.342  2.7030  4.2935  1.0740
  152SAPE  C31816949   5.589   0.993   8.414 -0.0825  0.5141  0.0996
  152SAPE  H18X16950   5.605   1.080   8.346 -0.3411 -0.1355 -0.8057
  152SAPE  H18Y16951   5.543   1.012   8.514 -1.8752  2.4995 -1.0409
  152SAPE  H18Z16952   5.519   0.926   8.359  2.7009 -0.8490 -1.8771
  153SAPE     N16953   5.890   3.802  10.784  0.0548 -1.2909  0.3089
  153SAPE   HN116954   5.976   3.819  10.728 -0.4726 -0.8538 -0.3740
  153SAPE   HN216955   5.846   3.894  10.806 -2.2206 -2.2066 -0.2735
  153SAPE   HN316956   5.933   3.764  10.870  0.1247 -0.5371  0.6109
  153SAPE   C1216957   5.790   3.711  10.716  0.5604 -0.2600  0.1181
  153SAPE  H12A16958   5.717   3.782  10.672 -0.1572 -1.0417  0.0239
  153SAPE  H12B16959   5.738   3.646  10.789  0.9780  0.0911  0.7344
  153SAPE   C1116960   5.859   3.634  10.599  0.6486 -0.1332 -0.0526
  153SAPE  H11A16961   5.897   3.719  10.539 -1.0104  0.3602 -0.4302
  153SAPE  H11B16962   5.790   3.579  10.531  0.9844  0.6557 -1.0391
  153SAPE     P16963   5.945   3.414  10.712  0.1813 -0.3188 -0.2962
  153SAPE   O1316964   6.009   3.289  10.663  0.2892 -0.0072  0.0960
  153SAPE   O1416965   5.961   3.449  10.853  0.1805  0.5899  0.3786
  153SAPE   O1216966   5.973   3.549  10.633  0.0183 -0.3641 -0.6091
  153SAPE   O1116967   5.784   3.405  10.697  0.0993  0.3922 -0.6243
  153SAPE    C116968   5.734   3.277  10.643  0.4658  0.0651 -0.2983
  153SAPE    HA16969   5.759   3.194  10.712  2.9365  0.4659 -0.6657
  153SAPE    HB16970   5.624   3.283  10.630  0.4408  0.4520  0.0765
  153SAPE    C216971   5.777   3.247  10.492 -0.2453  0.6383 -0.4293
  153SAPE    HS16972   5.884   3.218  10.492 -0.2890  0.4096  1.4376
  153SAPE   O2116973   5.759   3.367  10.417  0.0876 -0.2733  0.0695
  153SAPE   C2116974   5.799   3.363  10.295 -0.3416  0.2187 -0.7831
  153SAPE   O2216975   5.895   3.299  10.249  0.0261  0.0869  0.6774
  153SAPE   C2216976   5.736   3.487  10.230 -0.6843 -0.6221 -0.3546
  153SAPE   H2R16977   5.626   3.488  10.243 -0.2954 -2.3327  3.6983
  153SAPE   H2S16978   5.770   3.580  10.281  0.5667 -0.2884 -1.7705
  153SAPE    C316979   5.700   3.122  10.432  0.2179  0.3654  0.3646
  153SAPE    HX16980   5.594   3.156  10.431 -0.8375 -2.7692  1.4505
  153SAPE    HY16981   5.700   3.037  10.504 -2.3287  0.8501  0.9859
  153SAPE   O3116982   5.734   3.089  10.297  0.3000 -0.5281 -0.1898
  153SAPE   C3116983   5.829   2.998  10.292  0.3484  1.0205 -0.3493
  153SAPE   O3216984   5.876   2.936  10.389 -0.5567 -1.0162 -0.3808
  153SAPE   C3216985   5.875   2.985  10.143  0.0438  0.0997  0.1327
  153SAPE   H2X16986   5.983   2.960  10.142  0.2617  0.9661 -2.6323
  153SAPE   H2Y16987   5.862   3.083  10.092 -2.8328  0.5087  1.4984
  153SAPE   C2316988   5.768   3.505  10.083 -0.0035 -0.3827 -0.0437
  153SAPE   H3R16989   5.726   3.417  10.030 -0.8748  0.8021 -1.3744
  153SAPE   H3S16990   5.878   3.503  10.067 -0.1022 -3.1665 -0.6030
  153SAPE   C2416991   5.701   3.636  10.024  0.3928  0.2336  0.0991
  153SAPE   H4R16992   5.728   3.638   9.916  1.5876  3.0450  0.4102
  153SAPE   H4S16993   5.735   3.723  10.084  2.9880 -0.2627 -0.5807
  153SAPE   C2516994   5.549   3.630  10.036  0.1936 -0.1075  0.4792
  153SAPE   H5R16995   5.514   3.610  10.138  0.2174  2.1492  0.9529
  153SAPE   C2616996   5.451   3.639   9.939  0.4864  0.3696 -0.6547
  153SAPE   H6R16997   5.346   3.620   9.966  0.4377  1.9240  0.3196
  153SAPE   C2716998   5.470   3.666   9.797 -0.1900 -0.4484  0.2370
  153SAPE   H7R16999   5.565   3.722   9.779  1.0837 -2.3892  0.7433
  153SAPE   H7S17000   5.382   3.726   9.766  0.3300 -0.1981 -0.8108
  153SAPE   C2817001   5.467   3.549   9.704  0.0270  0.2654 -0.6909
  153SAPE   H8R17002   5.418   3.464   9.753 -1.1187 -0.1278 -2.4650
  153SAPE   C2917003   5.521   3.534   9.579  1.0569 -0.0696 -0.2844
  153SAPE   H9R17004   5.497   3.437   9.533 -1.0144 -0.9939  2.5932
  153SAPE  C21017005   5.613   3.638   9.511  0.5473  0.5440  0.3825
  153SAPE  H10R17006   5.667   3.690   9.593  1.4688 -1.5707  1.1435
  153SAPE  H10S17007   5.553   3.711   9.453  1.0427  1.0012  0.4477
  153SAPE  C21117008   5.718   3.573   9.420  0.6407  0.0233 -0.0672
  153SAPE  H11R17009   5.814   3.554   9.469  0.0794 -1.8963  0.3199
  153SAPE  C21217010   5.707   3.565   9.287 -0.4759  0.3029 -0.3574
  153SAPE  H12R17011   5.789   3.514   9.235 -0.5926 -2.3517  1.9398
  153SAPE  C21317012   5.586   3.599   9.203  1.0273 -0.5770  0.4199
  153SAPE  H13R17013   5.492   3.587   9.262  1.4925  1.1677  1.5737
  153SAPE  H13S17014   5.574   3.537   9.112  0.7121 -0.0665  0.1084
  153SAPE  C21417015   5.606   3.744   9.160 -0.5312 -0.0035 -0.1053
  153SAPE  H14R17016   5.652   3.822   9.222  0.2435 -0.7614  0.2792
  153SAPE  C21517017   5.553   3.799   9.051  0.4201  0.0886  0.5421
  153SAPE  H15R17018   5.579   3.902   9.023 -1.6264 -0.2792 -3.0467
  153SAPE  C21617019   5.481   3.721   8.943 -0.0477  0.0044  0.2891
  153SAPE  H16R17020   5.376   3.694   8.966 -0.0531  0.5920  0.9999
  153SAPE  H16S17021   5.540   3.631   8.919 -0.2872 -0.1141  0.1466
  153SAPE  C21717022   5.474   3.799   8.801  0.1164  0.2989  0.1107
  153SAPE  H17R17023   5.415   3.891   8.819 -0.8347  0.0998 -1.8638
  153SAPE  H17S17024   5.417   3.734   8.731 -0.2751 -0.2610  0.9459
  153SAPE  C21817025   5.609   3.824   8.730  0.0202  0.7521 -0.2760
  153SAPE  H18R17026   5.646   3.724   8.701 -1.0856  0.7924 -1.8434
  153SAPE  H18S17027   5.682   3.878   8.795  0.8364 -2.5445  1.6969
  153SAPE  C21917028   5.595   3.915   8.606  0.2935 -0.3344  0.7484
  153SAPE  H19R17029   5.556   4.014   8.638 -0.6455  0.2761 -2.1288
  153SAPE  H19S17030   5.517   3.862   8.548  0.6996  0.4755 -0.5464
  153SAPE  C22017031   5.718   3.930   8.516  0.6274 -0.6367 -0.7047
  153SAPE  H20R17032   5.766   3.831   8.507  0.3393 -1.1943  3.0639
  153SAPE  H20S17033   5.800   3.986   8.566  1.2314 -1.5871 -0.6380
  153SAPE  H20T17034   5.696   3.979   8.418  1.5587  2.8686  0.7404
  153SAPE   C3317035   5.803   2.882  10.051 -0.4251  0.4627  1.1304
  153SAPE   H3X17036   5.695   2.911  10.052 -0.6939 -0.4820  0.4725
  153SAPE   H3Y17037   5.817   2.778  10.086 -1.1974 -0.4402 -1.1553
  153SAPE   C3417038   5.847   2.904   9.907  0.1765  0.5677  0.0180
  153SAPE   H4X17039   5.951   2.869   9.891 -1.1391 -3.4389 -0.4665
  153SAPE   H4Y17040   5.838   3.014   9.897 -1.8570  0.6194  1.9377
  153SAPE   C3517041   5.752   2.835   9.807 -0.0935  0.3953 -0.0780
  153SAPE   H5X17042   5.648   2.874   9.816  0.8858  2.3688  4.1224
  153SAPE   H5Y17043   5.754   2.729   9.839  2.4774  0.3659 -0.2477
  153SAPE   C3617044   5.795   2.843   9.661 -0.4956 -0.1340 -0.0944
  153SAPE   H6X17045   5.891   2.787   9.660  0.0157  0.7280 -0.9812
  153SAPE   H6Y17046   5.805   2.950   9.630 -1.3969 -0.0758 -0.2013
  153SAPE   C3717047   5.694   2.783   9.564  1.0014 -0.0928  0.1588
  153SAPE   H7X17048   5.613   2.858   9.577  2.2660  1.6943 -1.9379
  153SAPE   H7Y17049   5.669   2.683   9.606  1.2581 -0.1448  0.1879
  153SAPE   C3817050   5.734   2.785   9.414  0.3755  0.2102  0.0487
  153SAPE   H8X17051   5.832   2.734   9.405 -0.0249 -1.2144  2.9423
  153SAPE   H8Y17052   5.747   2.888   9.376 -0.8934  1.0505  1.7961
  153SAPE   C3917053   5.626   2.709   9.328  0.3126  0.2715  0.6199
  153SAPE   H9X17054   5.531   2.766   9.332 -0.0062 -0.2869  1.3951
  153SAPE   H9Y17055   5.610   2.606   9.368  0.7149 -0.7052 -1.6610
  153SAPE  C31017056   5.674   2.700   9.179  0.2811  0.6148 -0.5546
  153SAPE  H10X17057   5.605   2.623   9.140  1.1538 -0.0944 -0.7000
  153SAPE  H10Y17058   5.777   2.659   9.171 -0.2850 -1.0496  0.5729
  153SAPE  C31117059   5.667   2.823   9.091 -0.5214  0.0579  0.3195
  153SAPE  H11X17060   5.727   2.912   9.120 -0.6258 -0.1233  1.1158
  153SAPE  H11Y17061   5.563   2.859   9.105 -0.2132  0.9626  0.3649
  153SAPE  C31217062   5.708   2.785   8.946  0.1090 -0.2009 -0.4527
  153SAPE  H12X17063   5.641   2.716   8.891  1.0402 -0.1582 -1.6453
  153SAPE  H12Y17064   5.805   2.731   8.948  0.5888  0.6622  2.1421
  153SAPE  C31317065   5.706   2.908   8.853 -0.2913  0.7957 -0.1205
  153SAPE  H13X17066   5.780   2.982   8.889  0.5437  0.1241 -0.4287
  153SAPE  H13Y17067   5.606   2.955   8.862 -1.2051 -1.4167  1.9629
  153SAPE  C31417068   5.727   2.871   8.709 -0.4383  0.4226  0.8460
  153SAPE  H14X17069   5.647   2.810   8.662 -3.7069  5.1240 -0.0751
  153SAPE  H14Y17070   5.824   2.817   8.707 -0.4258  0.3646  2.6598
  153SAPE  C31517071   5.739   3.002   8.622 -0.6973  0.3173  0.1280
  153SAPE  H15X17072   5.840   3.044   8.644 -0.5239 -0.3274  0.5629
  153SAPE  H15Y17073   5.663   3.076   8.655  0.2013  1.0848  0.5117
  153SAPE  C31617074   5.737   2.981   8.470  0.2388 -0.0990  0.1473
  153SAPE  H16X17075   5.774   3.076   8.425  1.4473  0.3517  2.0319
  153SAPE  H16Y17076   5.635   2.961   8.432  0.7450 -1.3073 -0.6046
  153SAPE  C31717077   5.817   2.855   8.434  0.0532 -0.8260  0.5507
  153SAPE  H17X17078   5.787   2.761   8.485  1.8084 -0.2917  2.6470
  153SAPE  H17Y17079   5.921   2.882   8.462 -0.3026  0.5964  0.5355
  153SAPE  C31817080   5.816   2.826   8.287 -0.0946  0.7981 -0.4423
  153SAPE  H18X17081   5.872   2.899   8.224  1.4178  0.2012  0.1948
  153SAPE  H18Y17082   5.712   2.814   8.249  0.0899 -1.8121 -0.1936
  153SAPE  H18Z17083   5.873   2.731   8.278  1.0309  1.4764 -0.6149
  154SAPE     N17084   6.381   3.720  10.488 -0.1562  0.0974  0.3551
  154SAPE   HN117085   6.369   3.822  10.475  1.0752 -0.0646 -2.3660
  154SAPE   HN217086   6.443   3.675  10.418  1.5500  0.5505  1.5669
  154SAPE   HN317087   6.279   3.705  10.474 -0.0166 -0.2162 -0.3085
  154SAPE   C1217088   6.427   3.682  10.626  0.2315  0.1528  0.2043
  154SAPE  H12A17089   6.418   3.771  10.693 -0.3566  0.6685 -0.5509
  154SAPE  H12B17090   6.529   3.643  10.612  0.9177  1.4785  1.3552
  154SAPE   C1117091   6.329   3.575  10.679  0.4468 -0.3768  0.5047
  154SAPE  H11A17092   6.307   3.501  10.600  3.2241  0.3068 -0.9563
  154SAPE  H11B17093   6.232   3.625  10.702  0.0649 -1.5207  1.4434
  154SAPE     P17094   6.462   3.379  10.798 -0.3760  0.7924  0.0762
  154SAPE   O1317095   6.607   3.411  10.822 -0.6732 -0.4429 -0.8170
  154SAPE   O1417096   6.393   3.297  10.900 -0.4385  0.0895  0.0581
  154SAPE   O1217097   6.392   3.515  10.794 -0.0009  0.0089 -0.0611
  154SAPE   O1117098   6.446   3.310  10.652  0.7988 -0.8693 -0.6022
  154SAPE    C117099   6.374   3.191  10.627  0.3604 -0.5041 -0.5826
  154SAPE    HA17100   6.433   3.107  10.670  0.7934 -0.5690 -1.2851
  154SAPE    HB17101   6.274   3.202  10.675  0.8188  1.8159 -0.1165
  154SAPE    C217102   6.365   3.169  10.472  0.0104  0.2841 -0.0382
  154SAPE    HS17103   6.341   3.062  10.458 -5.3991  1.1655  1.5369
  154SAPE   O2117104   6.481   3.210  10.399  0.4362 -0.3719  0.3293
  154SAPE   C2117105   6.531   3.144  10.296  0.1438  0.3316 -0.5171
  154SAPE   O2217106   6.494   3.034  10.256 -1.0094  0.1117  0.1886
  154SAPE   C2217107   6.631   3.233  10.230 -0.4881 -0.2408  0.3591
  154SAPE   H2R17108   6.683   3.291  10.309  0.7947 -0.1391 -0.5347
  154SAPE   H2S17109   6.708   3.163  10.191 -1.2158 -1.5774  1.2897
  154SAPE    C317110   6.242   3.254  10.425 -0.4921  0.0398  0.6139
  154SAPE    HX17111   6.269   3.358  10.452 -0.0644  0.4169 -1.2591
  154SAPE    HY17112   6.155   3.228  10.490  0.4590  2.8172  3.1036
  154SAPE   O3117113   6.230   3.225  10.290 -0.0051  0.0135  0.4845
  154SAPE   C3117114   6.183   3.326  10.219 -0.0159  0.1514  0.5432
  154SAPE   O3217115   6.143   3.435  10.261 -0.0818  0.0110 -0.2632
  154SAPE   C3217116   6.169   3.267  10.076 -0.2832 -0.0615  0.4791
  154SAPE   H2X17117   6.076   3.207  10.089  0.7303 -1.3280  2.0257
  154SAPE   H2Y17118   6.253   3.198  10.052  1.6989  2.2293  0.6217
  154SAPE   C2317119   6.574   3.341  10.133  0.5481  0.4618  0.7036
  154SAPE   H3R17120   6.643   3.427  10.123  0.6679  0.6286  2.8057
  154SAPE   H3S17121   6.490   3.397  10.179 -0.1998  0.1236 -0.2322
  154SAPE   C2417122   6.559   3.284   9.986 -0.1140 -0.0793 -0.1069
  154SAPE   H4R17123   6.498   3.361   9.934  1.3620  1.8907  1.0698
  154SAPE   H4S17124   6.499   3.190   9.990  0.0784 -0.1936  0.1039
  154SAPE   C2517125   6.691   3.261   9.922 -0.0509  0.4753  0.4743
  154SAPE   H5R17126   6.767   3.310   9.983 -0.1998  1.0566  0.1940
  154SAPE   C2617127   6.713   3.182   9.810 -0.1829 -0.2411  0.3278
  154SAPE   H6R17128   6.814   3.187   9.766  0.1344 -1.1273  0.9357
  154SAPE   C2717129   6.606   3.116   9.731  0.2440 -0.4355  0.2719
  154SAPE   H7R17130   6.621   3.147   9.626  0.1176 -1.0926  0.0586
  154SAPE   H7S17131   6.501   3.142   9.755  0.5155  3.2937 -2.1640
  154SAPE   C2817132   6.637   2.965   9.732  0.2409 -0.1584  0.6485
  154SAPE   H8R17133   6.593   2.910   9.816  2.1577 -1.4854  0.8032
  154SAPE   C2917134   6.686   2.894   9.635 -0.3042 -0.4910 -0.1129
  154SAPE   H9R17135   6.686   2.785   9.645  0.4939 -0.6236 -1.4540
  154SAPE  C21017136   6.730   2.940   9.502  0.7555  0.3800  0.5493
  154SAPE  H10R17137   6.779   3.040   9.509 -1.5165  1.4982  0.9876
  154SAPE  H10S17138   6.637   2.959   9.443  0.8076 -0.2631  0.2543
  154SAPE  C21117139   6.831   2.848   9.439  0.2407  0.0366 -0.2119
  154SAPE  H11R17140   6.909   2.825   9.513  0.7394  0.6047 -0.5513
  154SAPE  C21217141   6.829   2.804   9.310 -0.2416  0.1998 -0.5666
  154SAPE  H12R17142   6.918   2.749   9.277 -0.1101 -0.5948  1.0699
  154SAPE  C21317143   6.734   2.843   9.202 -0.0829 -0.1377  0.7993
  154SAPE  H13R17144   6.629   2.849   9.240 -0.1006 -0.5071  0.8133
  154SAPE  H13S17145   6.734   2.769   9.119 -1.0383  1.8813 -1.0543
  154SAPE  C21417146   6.755   2.976   9.145 -0.2790  1.3044  0.0588
  154SAPE  H14R17147   6.814   3.045   9.209 -0.2785  0.9640  0.4225
  154SAPE  C21517148   6.708   3.016   9.028 -0.6731 -0.4045 -0.1443
  154SAPE  H15R17149   6.738   3.118   9.002  1.3814 -0.7429  0.7970
  154SAPE  C21617150   6.621   2.944   8.926 -0.1240  0.3141 -0.1169
  154SAPE  H16R17151   6.526   3.000   8.915 -1.2100 -1.4990 -0.1055
  154SAPE  H16S17152   6.600   2.840   8.959  0.7707  0.8214  2.1176
  154SAPE  C21717153   6.693   2.937   8.791 -0.0381 -0.0311 -0.1228
  154SAPE  H17R17154   6.794   2.892   8.799 -0.1030 -0.0231  0.8598
  154SAPE  H17S17155   6.713   3.040   8.753  0.6434 -0.6344 -1.4463
  154SAPE  C21817156   6.618   2.877   8.680  0.6418 -0.1222  0.4913
  154SAPE  H18R17157   6.668   2.906   8.585  0.6326 -1.4425  0.0823
  154SAPE  H18S17158   6.513   2.913   8.679  0.7443  0.1564 -0.4908
  154SAPE  C21917159   6.630   2.724   8.701  0.2441  0.0029  0.2860
  154SAPE  H19R17160   6.571   2.690   8.788  0.6184  2.0688  1.3938
  154SAPE  H19S17161   6.738   2.700   8.716 -0.2666 -2.4273  0.2446
  154SAPE  C22017162   6.567   2.648   8.579 -0.5596  0.1093  0.6216
  154SAPE  H20R17163   6.522   2.553   8.615  0.2491 -0.3197  0.5208
  154SAPE  H20S17164   6.651   2.640   8.506 -0.6199  5.6487 -0.3125
  154SAPE  H20T17165   6.497   2.719   8.529  1.0939  0.6653 -0.9724
  154SAPE   C3317166   6.152   3.393   9.972 -0.2925  0.1766 -0.5059
  154SAPE   H3X17167   6.241   3.459   9.974  0.7637 -1.2406  0.0015
  154SAPE   H3Y17168   6.063   3.454   9.997 -0.3568 -0.2104  0.2231
  154SAPE   C3417169   6.130   3.352   9.828  0.3628  0.4375 -0.1522
  154SAPE   H4X17170   6.149   3.441   9.765 -2.0935  0.1997 -1.2825
  154SAPE   H4Y17171   6.024   3.324   9.810  0.7418 -0.2020 -1.4865
  154SAPE   C3517172   6.211   3.228   9.780  0.3980 -0.6303 -0.2448
  154SAPE   H5X17173   6.188   3.142   9.847  0.4326 -0.0122  0.5546
  154SAPE   H5Y17174   6.321   3.244   9.783  0.4328 -0.2902 -2.2867
  154SAPE   C3617175   6.182   3.179   9.637  0.0872 -0.6615 -0.1422
  154SAPE   H6X17176   6.258   3.101   9.616  0.0246 -0.3701 -1.4398
  154SAPE   H6Y17177   6.212   3.263   9.571 -3.3832 -0.0738 -1.0732
  154SAPE   C3717178   6.035   3.146   9.608 -0.2083 -0.2864  0.7508
  154SAPE   H7X17179   5.957   3.216   9.645 -0.4821 -0.6910  0.9411
  154SAPE   H7Y17180   6.004   3.053   9.660 -0.1801 -0.0779  1.1401
  154SAPE   C3817181   6.001   3.124   9.461  0.2155  0.0591  0.0768
  154SAPE   H8X17182   5.965   3.022   9.437 -1.6931  0.9062 -0.8121
  154SAPE   H8Y17183   6.083   3.156   9.393 -0.0883 -0.4757 -0.5460
  154SAPE   C3917184   5.877   3.206   9.423  0.6923 -0.0360  0.1439
  154SAPE   H9X17185   5.900   3.312   9.447 -1.4626 -0.1540  2.9302
  154SAPE   H9Y17186   5.787   3.183   9.483  1.6009  0.6575  1.8101
  154SAPE  C31017187   5.842   3.198   9.271 -0.2556 -0.5886 -0.2966
  154SAPE  H10X17188   5.760   3.273   9.267 -1.2477 -1.6403  0.0645
  154SAPE  H10Y17189   5.811   3.097   9.237 -2.3324 -0.1892  0.3369
  154SAPE  C31117190   5.951   3.252   9.181  0.2253 -0.5990 -0.2794
  154SAPE  H11X17191   6.042   3.194   9.205  0.1731  0.0427  1.5568
  154SAPE  H11Y17192   5.973   3.358   9.204  0.2275 -0.4011 -1.1511
  154SAPE  C31217193   5.924   3.237   9.029 -0.2422 -0.4111 -0.0994
  154SAPE  H12X17194   5.899   3.130   9.018 -1.7866 -0.0864  0.0900
  154SAPE  H12Y17195   6.013   3.257   8.965 -0.5744  1.1453 -0.0912
  154SAPE  C31317196   5.811   3.325   8.980  0.4127  0.6715 -0.5325
  154SAPE  H13X17197   5.817   3.431   9.013 -0.1822  0.5596 -0.0481
  154SAPE  H13Y17198   5.719   3.282   9.025  2.9034 -2.3952  1.8540
  154SAPE  C31417199   5.788   3.329   8.827 -0.2439  0.0239 -0.5112
  154SAPE  H14X17200   5.682   3.356   8.809 -0.2726 -0.9069 -1.7612
  154SAPE  H14Y17201   5.803   3.224   8.793  2.9453  0.0296  0.7087
  154SAPE  C31517202   5.890   3.410   8.750 -0.1625 -0.2947 -0.3795
  154SAPE  H15X17203   5.992   3.391   8.789  0.0482  0.0359 -0.7519
  154SAPE  H15Y17204   5.869   3.519   8.759  0.1942 -0.2283 -0.3300
  154SAPE  C31617205   5.877   3.391   8.594 -0.0208 -0.3426  0.3585
  154SAPE  H16X17206   5.772   3.413   8.564 -1.0747  1.9694  5.2146
  154SAPE  H16Y17207   5.907   3.286   8.574  2.2415  0.7106 -2.0030
  154SAPE  C31717208   5.967   3.482   8.507 -0.0954  0.0515  0.2878
  154SAPE  H17X17209   5.960   3.588   8.539 -1.1700 -0.4799  1.8771
  154SAPE  H17Y17210   5.934   3.469   8.402  1.7798 -0.0633 -0.3094
  154SAPE  C31817211   6.116   3.443   8.513 -0.1819  0.8228 -1.0935
  154SAPE  H18X17212   6.140   3.335   8.509 -0.2342  0.7079  0.8439
  154SAPE  H18Y17213   6.154   3.478   8.611 -1.6096 -1.1441  0.2200
  154SAPE  H18Z17214   6.183   3.485   8.436  3.9724  1.3681  2.6046
  155SAPE     N17215   0.106   4.579  10.981  0.3257 -0.4638  0.2759
  155SAPE   HN117216   0.131   4.536  11.072  0.0719 -0.1562  0.4887
  155SAPE   HN217217   0.003   4.582  10.987  0.2735  1.1287 -1.0995
  155SAPE   HN317218   0.123   4.513  10.902 -1.3495  0.8924 -1.2705
  155SAPE   C1217219   0.163   4.709  10.973  0.1729 -0.0058  0.0794
  155SAPE  H12A17220   0.132   4.763  11.065  0.8835  0.6040 -0.0309
  155SAPE  H12B17221   0.125   4.760  10.882  0.3402  1.9718  1.0774
  155SAPE   C1117222   0.319   4.695  10.979 -0.1210  0.4327  0.1191
  155SAPE  H11A17223   0.351   4.659  11.079 -0.8062 -2.0647 -0.5357
  155SAPE  H11B17224   0.366   4.796  10.977 -0.7386  0.7640  1.6681
  155SAPE     P17225   0.510   4.544  10.882  0.2373  0.1431  0.0509
  155SAPE   O1317226   0.616   4.635  10.936  0.2804  0.1525 -0.5078
  155SAPE   O1417227   0.490   4.414  10.956  0.4806 -0.2822  0.2812
  155SAPE   O1217228   0.369   4.620  10.875  0.2464  0.2492 -0.0196
  155SAPE   O1117229   0.547   4.506  10.734 -0.2087  0.7710  0.6178
  155SAPE    C117230   0.463   4.421  10.657 -0.1320 -0.0037  0.6652
  155SAPE    HA17231   0.462   4.323  10.710  2.9214 -0.1916  0.4653
  155SAPE    HB17232   0.362   4.466  10.652  0.5022  1.3738  0.0564
  155SAPE    C217233   0.514   4.405  10.511  0.5187  0.4667  0.0889
  155SAPE    HS17234   0.614   4.358  10.522 -0.5086 -1.9848 -0.5442
  155SAPE   O2117235   0.512   4.534  10.440 -0.0926 -0.2278 -0.4090
  155SAPE   C2117236   0.602   4.556  10.341 -0.2107  0.1230  0.6028
  155SAPE   O2217237   0.678   4.466  10.298  0.2234 -0.3194 -0.5122
  155SAPE   C2217238   0.604   4.706  10.290  0.5880 -0.7787  0.2769
  155SAPE   H2R17239   0.499   4.735  10.271  0.1986 -2.6991 -0.6249
  155SAPE   H2S17240   0.635   4.765  10.379  0.2983  0.1775 -0.2453
  155SAPE    C317241   0.416   4.311  10.433 -0.6429  0.3623  0.2446
  155SAPE    HX17242   0.320   4.362  10.409 -0.7294  0.1801  0.2060
  155SAPE    HY17243   0.390   4.230  10.505  1.1195  0.8560  1.4702
  155SAPE   O3117244   0.475   4.251  10.320  0.4334  0.3221 -0.1784
  155SAPE   C3117245   0.449   4.297  10.197 -0.3352 -0.8273 -0.1618
  155SAPE   O3217246   0.374   4.396  10.186 -0.0376  0.3825 -0.2268
  155SAPE   C3217247   0.527   4.232  10.088  0.1343  0.3498  0.0863
  155SAPE   H2X17248   0.518   4.123  10.106  0.7363  0.5096  1.4260
  155SAPE   H2Y17249   0.634   4.250  10.114 -0.0297  1.1341  0.2393
  155SAPE   C2317250   0.689   4.707  10.166 -0.5645  0.2266  0.2500
  155SAPE   H3R17251   0.649   4.625  10.102 -0.7790 -1.6384  2.6816
  155SAPE   H3S17252   0.791   4.677  10.197  0.8735  2.8423 -1.7728
  155SAPE   C2417253   0.681   4.830  10.075  0.0427  0.3167  0.5075
  155SAPE   H4R17254   0.702   4.915  10.144 -3.0648  0.4745  1.3473
  155SAPE   H4S17255   0.577   4.845  10.037  0.5394  1.4650 -0.4264
  155SAPE   C2517256   0.786   4.816   9.970  0.4028 -0.2937 -0.0857
  155SAPE   H5R17257   0.876   4.779  10.022 -1.1563 -2.7648  0.9698
  155SAPE   C2617258   0.785   4.828   9.840  0.0518 -0.7529 -0.1634
  155SAPE   H6R17259   0.874   4.796   9.784  0.1288 -2.3115  0.8289
  155SAPE   C2717260   0.674   4.862   9.742 -0.3332 -0.4122 -0.7206
  155SAPE   H7R17261   0.722   4.933   9.671 -0.1196  1.4002  1.1795
  155SAPE   H7S17262   0.596   4.925   9.791 -1.8411 -3.2125  0.5592
  155SAPE   C2817263   0.605   4.745   9.668 -0.5520  0.4089  0.0867
  155SAPE   H8R17264   0.517   4.713   9.726 -0.9078 -0.0625 -0.7152
  155SAPE   C2917265   0.637   4.690   9.550 -0.3608 -0.0085 -0.1429
  155SAPE   H9R17266   0.564   4.624   9.501  0.0127  0.7728 -1.7934
  155SAPE  C21017267   0.754   4.725   9.458 -0.4678 -0.1444 -0.6097
  155SAPE  H10R17268   0.783   4.634   9.402  0.7387 -0.5898  0.7269
  155SAPE  H10S17269   0.836   4.745   9.529 -1.2351  0.6936  0.0655
  155SAPE  C21117270   0.721   4.845   9.369 -0.5483  0.2972  0.1097
  155SAPE  H11R17271   0.646   4.914   9.411  2.1407  2.5923  1.2678
  155SAPE  C21217272   0.779   4.877   9.255  0.6795 -0.7209 -0.4380
  155SAPE  H12R17273   0.749   4.977   9.219  2.1668  0.8628  2.5760
  155SAPE  C21317274   0.898   4.810   9.188 -0.7365 -0.4800 -0.2224
  155SAPE  H13R17275   0.932   4.717   9.239  1.5325  0.8239  0.6923
  155SAPE  H13S17276   0.982   4.880   9.202 -1.0779  0.0332 -0.7301
  155SAPE  C21417277   0.857   4.778   9.047 -0.5188  0.3016  0.7396
  155SAPE  H14R17278   0.781   4.698   9.042 -0.6379  0.3462  1.6840
  155SAPE  C21517279   0.913   4.826   8.928  0.3962  0.6132 -0.2826
  155SAPE  H15R17280   0.867   4.795   8.833 -3.6250 -2.4775  2.4583
  155SAPE  C21617281   1.030   4.915   8.921 -0.3110  0.2515 -0.1910
  155SAPE  H16R17282   1.054   4.957   9.022 -0.0805  1.5908 -0.7952
  155SAPE  H16S17283   1.000   5.002   8.859 -0.8954 -1.1769 -1.9609
  155SAPE  C21717284   1.146   4.848   8.850  0.0230  0.0044  0.1313
  155SAPE  H17R17285   1.109   4.804   8.756 -0.2902 -0.1519  0.3277
  155SAPE  H17S17286   1.181   4.769   8.919  2.4541 -0.6365 -1.7551
  155SAPE  C21817287   1.268   4.947   8.834  0.7698 -0.6635 -0.4478
  155SAPE  H18R17288   1.285   5.009   8.925 -0.8579 -0.8838  0.0317
  155SAPE  H18S17289   1.243   5.017   8.751  0.2644  1.5453  1.4838
  155SAPE  C21917290   1.406   4.876   8.813 -1.0117 -0.5206  0.8020
  155SAPE  H19R17291   1.402   4.834   8.710 -2.4721 -0.0224  0.6338
  155SAPE  H19S17292   1.415   4.784   8.874  0.6576  1.1073  3.0939
  155SAPE  C22017293   1.519   4.981   8.826  0.1082  0.0525  0.2187
  155SAPE  H20R17294   1.617   4.945   8.790 -1.0090 -1.2248 -1.6558
  155SAPE  H20S17295   1.545   5.012   8.929 -0.3315 -0.5337  0.5112
  155SAPE  H20T17296   1.482   5.062   8.758 -3.1617 -1.7625 -0.3030
  155SAPE   C3317297   0.491   4.281   9.945 -0.1219  0.2296 -0.1111
  155SAPE   H3X17298   0.508   4.391   9.942  1.9579 -0.0356  1.4525
  155SAPE   H3Y17299   0.384   4.267   9.917 -0.1257 -3.4827  1.4041
  155SAPE   C3417300   0.575   4.214   9.838  0.1307  0.4916  0.1753
  155SAPE   H4X17301   0.544   4.107   9.837  0.0748  0.5007  1.0022
  155SAPE   H4Y17302   0.684   4.233   9.847 -0.0680  0.9908  1.5649
  155SAPE   C3517303   0.541   4.268   9.700  0.0478  0.6285  0.3594
  155SAPE   H5X17304   0.550   4.378   9.709  0.1458  0.5773  0.9597
  155SAPE   H5Y17305   0.435   4.246   9.675 -0.0398 -0.1352  1.3404
  155SAPE   C3617306   0.625   4.200   9.590  0.4434  0.4773  0.7183
  155SAPE   H6X17307   0.585   4.096   9.593 -2.3721  1.4490 -0.8866
  155SAPE   H6Y17308   0.730   4.190   9.624  0.4916  0.8223  0.6691
  155SAPE   C3717309   0.607   4.276   9.456 -0.4504 -0.2837 -0.7847
  155SAPE   H7X17310   0.650   4.377   9.476 -2.4357  0.1688  1.4365
  155SAPE   H7Y17311   0.499   4.291   9.437 -0.2762  3.1069  0.4116
  155SAPE   C3817312   0.668   4.212   9.330 -0.3832  0.1530  0.4539
  155SAPE   H8X17313   0.777   4.203   9.351 -0.5175 -1.8352  0.3422
  155SAPE   H8Y17314   0.662   4.285   9.246 -2.1548  4.5440  4.1908
  155SAPE   C3917315   0.616   4.074   9.285  0.2537 -0.3719  0.2813
  155SAPE   H9X17316   0.527   4.091   9.221  0.7971  1.2160 -0.0775
  155SAPE   H9Y17317   0.596   4.017   9.378 -0.5344 -0.1128  0.2740
  155SAPE  C31017318   0.711   3.994   9.192 -0.3220 -0.6401  0.1739
  155SAPE  H10X17319   0.662   3.896   9.174 -0.7590 -0.3073 -0.5063
  155SAPE  H10Y17320   0.806   3.984   9.248  0.9047  0.9263 -1.5449
  155SAPE  C31117321   0.745   4.081   9.062  0.1058  1.1217  0.0773
  155SAPE  H11X17322   0.812   4.166   9.088  0.5963  0.0670  2.3687
  155SAPE  H11Y17323   0.647   4.127   9.038  0.9096  3.3884  0.9080
  155SAPE  C31217324   0.804   3.999   8.949  0.1966 -1.0737  0.0167
  155SAPE  H12X17325   0.734   3.914   8.934  2.4916 -3.0670  0.2855
  155SAPE  H12Y17326   0.908   3.966   8.973  0.1033 -2.0994 -0.9480
  155SAPE  C31317327   0.805   4.064   8.811  0.4385  0.1150 -0.2350
  155SAPE  H13X17328   0.878   4.024   8.738  2.3056  3.0862 -0.1024
  155SAPE  H13Y17329   0.836   4.169   8.830  1.0889 -0.1158  0.0048
  155SAPE  C31417330   0.673   4.060   8.732 -0.4345 -0.0360 -0.6337
  155SAPE  H14X17331   0.603   4.129   8.784  0.1911 -0.0346  0.2142
  155SAPE  H14Y17332   0.631   3.958   8.743  1.7944 -0.7360  1.7937
  155SAPE  C31517333   0.675   4.093   8.581 -0.6438  0.3230 -0.0775
  155SAPE  H15X17334   0.568   4.096   8.552 -0.0989 -3.0539 -2.6637
  155SAPE  H15Y17335   0.720   4.006   8.529 -2.6403 -0.2714 -0.8435
  155SAPE  C31617336   0.734   4.231   8.553 -0.9314  0.4817  0.2995
  155SAPE  H16X17337   0.837   4.219   8.594 -1.3454 -0.5953  1.0413
  155SAPE  H16Y17338   0.684   4.318   8.599 -1.3017  1.3113 -1.6158
  155SAPE  C31717339   0.776   4.253   8.403  0.2060  0.0287  0.2303
  155SAPE  H17X17340   0.710   4.309   8.334 -0.1742 -0.4628  0.1909
  155SAPE  H17Y17341   0.792   4.148   8.369  0.5302 -0.7159  2.5734
  155SAPE  C31817342   0.915   4.313   8.403  0.0437 -0.2132  0.0715
  155SAPE  H18X17343   0.995   4.260   8.459 -0.5904  0.8208  1.9830
  155SAPE  H18Y17344   0.910   4.417   8.440 -2.2005  0.2829 -1.4938
  155SAPE  H18Z17345   0.964   4.316   8.303 -0.8926 -1.6907 -0.4525
  156SAPE     N17346   4.692   1.320  10.351  0.1381  0.1013 -0.1173
  156SAPE   HN117347   4.708   1.224  10.389 -0.4189 -0.2821 -0.8232
  156SAPE   HN217348   4.687   1.389  10.428  0.8448 -1.2117  1.1262
  156SAPE   HN317349   4.598   1.322  10.307  0.3795  1.7099 -0.6025
  156SAPE   C1217350   4.791   1.359  10.251 -0.3557  0.0165  0.1568
  156SAPE  H12A17351   4.767   1.454  10.200 -2.0654  0.1804  1.2152
  156SAPE  H12B17352   4.791   1.281  10.172 -0.4303  0.1503  0.0260
  156SAPE   C1117353   4.930   1.382  10.318 -0.7681 -0.3720  0.7004
  156SAPE  H11A17354   5.003   1.390  10.235 -2.3811  1.8683 -0.5505
  156SAPE  H11B17355   4.953   1.300  10.391 -0.7489  0.8501  2.0944
  156SAPE     P17356   5.052   1.509  10.509 -0.3396  0.0592  0.0790
  156SAPE   O1317357   4.977   1.498  10.639 -0.0263  0.1855  0.3108
  156SAPE   O1417358   5.169   1.423  10.477  0.1202 -0.3468  0.4022
  156SAPE   O1217359   4.941   1.503  10.387  0.1749 -0.8955  0.1609
  156SAPE   O1117360   5.088   1.667  10.483  0.1309  0.3281  0.1541
  156SAPE    C117361   5.223   1.714  10.484 -0.5159 -0.0182 -0.2874
  156SAPE    HA17362   5.243   1.782  10.570  1.7325 -0.5558 -0.3635
  156SAPE    HB17363   5.292   1.627  10.492  0.0778  0.4322 -0.5162
  156SAPE    C217364   5.233   1.795  10.359  0.2580  0.2817  1.0185
  156SAPE    HS17365   5.179   1.891  10.378  2.1900  1.2480  1.7277
  156SAPE   O2117366   5.181   1.725  10.245  0.2887 -0.0331 -0.5031
  156SAPE   C2117367   5.092   1.788  10.165 -0.7779  0.0600 -0.3695
  156SAPE   O2217368   5.063   1.908  10.172 -0.7798 -0.0808  1.0578
  156SAPE   C2217369   5.037   1.693  10.060  1.0719 -0.2813 -0.6998
  156SAPE   H2R17370   5.121   1.655   9.998  1.4133 -1.0717  0.2378
  156SAPE   H2S17371   4.983   1.606  10.103  2.6362 -0.3536  1.1898
  156SAPE    C317372   5.384   1.821  10.331  0.2782 -0.0877 -0.2062
  156SAPE    HX17373   5.419   1.733  10.273 -1.2517 -0.6070 -0.3683
  156SAPE    HY17374   5.441   1.828  10.426  2.0782 -3.4871 -0.9575
  156SAPE   O3117375   5.386   1.943  10.256  0.7073  0.0603  0.7399
  156SAPE   C3117376   5.504   2.006  10.243 -0.6027  0.2903  0.0931
  156SAPE   O3217377   5.615   1.955  10.276 -0.7811  0.3806 -0.3335
  156SAPE   C3217378   5.480   2.142  10.178 -0.3376  0.7820  0.4610
  156SAPE   H2X17379   5.524   2.224  10.238  0.7535  1.4436 -1.2053
  156SAPE   H2Y17380   5.371   2.156  10.157 -0.5294 -1.1860 -0.0379
  156SAPE   C2317381   4.933   1.756   9.964  1.0312  0.9756 -0.2368
  156SAPE   H3R17382   4.863   1.817  10.024 -1.4398 -1.4695 -0.5926
  156SAPE   H3S17383   4.881   1.679   9.904 -2.0197  2.2257  0.7189
  156SAPE   C2417384   4.986   1.848   9.857 -0.3210 -0.0869  0.3428
  156SAPE   H4R17385   5.033   1.932   9.913  1.7092 -1.3168  0.5074
  156SAPE   H4S17386   4.892   1.886   9.811 -0.4613 -1.0025 -0.1429
  156SAPE   C2517387   5.071   1.785   9.752 -0.6319  0.0508 -0.0134
  156SAPE   H5R17388   5.115   1.692   9.790 -2.0794  0.9876  4.2203
  156SAPE   C2617389   5.080   1.820   9.622  0.3191 -0.4100  0.1023
  156SAPE   H6R17390   5.144   1.757   9.558 -1.2263 -2.1961  0.2952
  156SAPE   C2717391   5.008   1.935   9.552 -0.1497 -0.0164  0.2870
  156SAPE   H7R17392   4.951   1.988   9.631 -0.9452  1.0031 -0.9605
  156SAPE   H7S17393   4.932   1.897   9.480 -1.4970  0.9353  1.1799
  156SAPE   C2817394   5.106   2.025   9.484 -0.0087  0.1039 -0.5202
  156SAPE   H8R17395   5.165   2.090   9.551 -2.6555  2.2237 -0.2110
  156SAPE   C2917396   5.123   2.041   9.358  0.5095 -0.8554  0.4884
  156SAPE   H9R17397   5.204   2.104   9.321  0.3834 -0.1778  1.3643
  156SAPE  C21017398   5.042   1.973   9.248 -0.0715 -0.9490  0.0279
  156SAPE  H10R17399   4.990   1.884   9.290 -0.5056 -0.3878  0.7002
  156SAPE  H10S17400   5.111   1.935   9.170 -0.1709 -0.5662 -0.2462
  156SAPE  C21117401   4.943   2.064   9.185  0.2685  0.1230 -0.1247
  156SAPE  H11R17402   4.845   2.069   9.234  1.3651  0.0365  2.1484
  156SAPE  C21217403   4.952   2.129   9.070 -0.2183 -0.2564 -0.2097
  156SAPE  H12R17404   4.869   2.180   9.021  1.0348  1.6997 -0.3645
  156SAPE  C21317405   5.077   2.126   8.981 -0.1526 -0.0622  0.5867
  156SAPE  H13R17406   5.164   2.103   9.046 -1.7755 -0.1387  2.8039
  156SAPE  H13S17407   5.099   2.222   8.931  2.5727 -0.3452  1.1962
  156SAPE  C21417408   5.058   2.019   8.873 -0.4691 -0.0565  0.1050
  156SAPE  H14R17409   5.023   1.924   8.917 -2.0980  0.2622 -0.4822
  156SAPE  C21517410   5.061   2.038   8.736  0.4035  0.0780  0.0464
  156SAPE  H15R17411   5.064   1.960   8.658 -0.3960  1.6300 -1.5609
  156SAPE  C21617412   5.083   2.172   8.680  0.3776  0.4317  0.4181
  156SAPE  H16R17413   5.188   2.210   8.682  0.8675 -0.7385 -1.4135
  156SAPE  H16S17414   5.021   2.251   8.728 -1.7186 -0.6186 -0.4986
  156SAPE  C21717415   5.063   2.178   8.526  0.2211 -0.0545  0.9424
  156SAPE  H17R17416   4.958   2.165   8.491  0.5986 -1.9185  0.4520
  156SAPE  H17S17417   5.106   2.086   8.481 -1.5250 -0.9934  1.1506
  156SAPE  C21817418   5.117   2.305   8.449 -0.4459 -0.0559  0.1250
  156SAPE  H18R17419   5.218   2.284   8.408 -1.1649  1.6764 -2.6230
  156SAPE  H18S17420   5.129   2.385   8.525  0.9403 -0.2978  0.1722
  156SAPE  C21917421   5.030   2.345   8.323 -0.2750  0.3131 -0.7800
  156SAPE  H19R17422   5.066   2.441   8.281  0.0785  1.3482  1.7795
  156SAPE  H19S17423   4.927   2.367   8.357  1.4158  3.5983  2.6120
  156SAPE  C22017424   5.026   2.241   8.217 -0.3498 -0.2315  0.0856
  156SAPE  H20R17425   4.969   2.275   8.128  0.4245  0.0515 -0.3093
  156SAPE  H20S17426   4.971   2.148   8.242 -1.0527  0.0531 -0.3790
  156SAPE  H20T17427   5.134   2.228   8.196  0.2542  0.9957  2.2093
  156SAPE   C3317428   5.564   2.157  10.048 -0.4470  0.3150  0.6210
  156SAPE   H3X17429   5.645   2.082  10.044 -1.7639 -1.0386 -2.5507
  156SAPE   H3Y17430   5.619   2.253  10.062  0.1237  0.2297 -0.8780
  156SAPE   C3417431   5.484   2.156   9.911 -0.0071 -0.0006 -0.0180
  156SAPE   H4X17432   5.395   2.222   9.915  0.1148  0.2686 -1.2811
  156SAPE   H4Y17433   5.455   2.051   9.889 -0.3960 -0.0333  0.6532
  156SAPE   C3517434   5.555   2.217   9.794  0.3645  0.4598  0.1248
  156SAPE   H5X17435   5.642   2.151   9.776 -0.5120 -1.5834  3.1543
  156SAPE   H5Y17436   5.591   2.317   9.827 -2.1286  0.7883  2.0165
  156SAPE   C3617437   5.468   2.223   9.672 -0.4030 -0.6878  0.1993
  156SAPE   H6X17438   5.371   2.272   9.694  0.0347  0.7502 -1.0336
  156SAPE   H6Y17439   5.438   2.120   9.641  0.5492 -0.5776 -1.1371
  156SAPE   C3717440   5.542   2.287   9.551  0.2092  0.2809 -0.1399
  156SAPE   H7X17441   5.642   2.247   9.525  1.0001  0.9122  1.8096
  156SAPE   H7Y17442   5.555   2.396   9.571 -0.9094  0.3062  0.4691
  156SAPE   C3817443   5.460   2.264   9.426  0.5568 -0.9913  0.0604
  156SAPE   H8X17444   5.380   2.341   9.423  0.3044 -1.2654 -0.3263
  156SAPE   H8Y17445   5.402   2.169   9.431 -1.3110  0.1974  1.6899
  156SAPE   C3917446   5.535   2.279   9.294  0.6618 -0.3118  0.9864
  156SAPE   H9X17447   5.619   2.207   9.301  0.7180 -0.2162  1.2771
  156SAPE   H9Y17448   5.578   2.381   9.285  0.7741 -0.4362  0.0384
  156SAPE  C31017449   5.461   2.256   9.165 -0.4541 -0.0982  0.1642
  156SAPE  H10X17450   5.380   2.329   9.147  1.2578  1.3743 -1.8046
  156SAPE  H10Y17451   5.419   2.154   9.178 -1.5247 -0.1071 -3.0710
  156SAPE  C31117452   5.552   2.276   9.041  0.3409  0.5972  0.4236
  156SAPE  H11X17453   5.635   2.207   9.068 -0.1383 -0.5980 -1.1198
  156SAPE  H11Y17454   5.583   2.382   9.028  4.3718 -0.1759  2.8253
  156SAPE  C31217455   5.489   2.223   8.911 -0.1958  1.0496  0.1315
  156SAPE  H12X17456   5.550   2.249   8.822  0.4019 -1.1688 -0.1323
  156SAPE  H12Y17457   5.389   2.270   8.900 -1.0713 -0.4586  1.4112
  156SAPE  C31317458   5.473   2.070   8.914  0.8749  0.3100  0.3165
  156SAPE  H13X17459   5.416   2.049   8.821  1.3545  0.3032  0.0225
  156SAPE  H13Y17460   5.417   2.037   9.004 -0.7303 -0.9098 -1.0852
  156SAPE  C31417461   5.610   1.998   8.914  0.4557  0.2363 -0.3434
  156SAPE  H14X17462   5.580   1.891   8.914  1.7386 -0.1291 -0.1914
  156SAPE  H14Y17463   5.655   2.011   9.015  1.6120  1.2569 -0.9721
  156SAPE  C31517464   5.707   2.042   8.799  1.2029  0.0932 -0.4090
  156SAPE  H15X17465   5.772   2.118   8.848 -0.7628  0.9104  0.9966
  156SAPE  H15Y17466   5.655   2.084   8.710 -0.3685 -1.0275 -0.0393
  156SAPE  C31617467   5.792   1.930   8.751 -0.1427 -0.1010 -0.8818
  156SAPE  H16X17468   5.727   1.853   8.703 -1.8204  1.1115 -0.6175
  156SAPE  H16Y17469   5.824   1.879   8.844 -2.5549  1.1847  0.7150
  156SAPE  C31717470   5.914   1.961   8.662 -0.0974  0.2763 -0.7520
  156SAPE  H17X17471   5.971   2.045   8.705 -0.2738 -0.2810  0.5944
  156SAPE  H17Y17472   5.877   1.985   8.560 -2.6591  0.7920  0.2493
  156SAPE  C31817473   6.006   1.838   8.654 -0.2957  0.2831 -0.3851
  156SAPE  H18X17474   6.023   1.786   8.751 -0.2790 -1.9193 -1.5314
  156SAPE  H18Y17475   6.103   1.864   8.606  0.4463  1.2357  1.5822
  156SAPE  H18Z17476   5.961   1.761   8.587  1.5905 -0.8907 -0.3367
  157SAPE     N17477   4.304   1.767  10.557  0.1076  1.1916 -0.4309
  157SAPE   HN117478   4.395   1.818  10.561  0.0857  1.1185  1.4243
  157SAPE   HN217479   4.317   1.666  10.579  0.3610  0.9641 -1.5705
  157SAPE   HN317480   4.273   1.776  10.458 -1.9862 -0.1496  0.0624
  157SAPE   C1217481   4.213   1.833  10.654 -0.2363 -0.8928 -0.5434
  157SAPE  H12A17482   4.235   1.785  10.752  3.3676  2.0556  0.2163
  157SAPE  H12B17483   4.108   1.819  10.620 -0.2690  0.9642 -1.2801
  157SAPE   C1117484   4.237   1.983  10.673  0.1023  0.4392  0.2597
  157SAPE  H11A17485   4.260   2.041  10.581 -0.3929  2.3476  1.3048
  157SAPE  H11B17486   4.327   1.989  10.738 -0.3185  1.0699  0.7935
  157SAPE     P17487   4.132   2.205  10.756  0.0287 -0.0758 -0.1273
  157SAPE   O1317488   4.046   2.252  10.864  0.4345 -0.4736 -0.1128
  157SAPE   O1417489   4.271   2.246  10.768  0.3949 -0.7762 -0.0342
  157SAPE   O1217490   4.133   2.047  10.743 -0.2786  0.0830  0.6913
  157SAPE   O1117491   4.077   2.263  10.622 -0.0440  0.6905  0.7891
  157SAPE    C117492   3.936   2.265  10.589 -0.2161 -1.7138 -0.2711
  157SAPE    HA17493   3.883   2.292  10.683  2.3462  0.4269  0.6442
  157SAPE    HB17494   3.921   2.344  10.512  0.1095  1.1063  2.4370
  157SAPE    C217495   3.885   2.137  10.513  0.2832 -0.4819 -0.2570
  157SAPE    HS17496   3.919   2.054  10.579  3.8393 -0.1668 -1.5552
  157SAPE   O2117497   3.955   2.132  10.391 -1.0899  0.3205  0.4524
  157SAPE   C2117498   3.972   2.009  10.346  0.1977  0.0927 -0.3487
  157SAPE   O2217499   3.974   1.904  10.411  0.7028  0.2559  0.3777
  157SAPE   C2217500   3.987   2.014  10.189  0.0871  0.0335  0.4942
  157SAPE   H2R17501   3.889   2.059  10.160 -0.4526 -0.1971  1.9311
  157SAPE   H2S17502   4.074   2.074  10.157  1.0066 -2.0202 -0.9727
  157SAPE    C317503   3.730   2.146  10.491  0.4036  0.0833 -0.5858
  157SAPE    HX17504   3.704   2.221  10.413 -1.9534 -0.6294 -0.5227
  157SAPE    HY17505   3.682   2.193  10.579  1.2333 -0.5308  0.1948
  157SAPE   O3117506   3.682   2.018  10.446 -0.2792 -0.0595 -0.5213
  157SAPE   C3117507   3.593   1.960  10.521  0.4044 -0.1632  0.1768
  157SAPE   O3217508   3.528   2.018  10.608 -0.0588  0.4363  0.1825
  157SAPE   C3217509   3.573   1.813  10.483  0.4695 -0.3097 -0.3314
  157SAPE   H2X17510   3.464   1.802  10.466  0.0803  0.2805  1.6573
  157SAPE   H2Y17511   3.603   1.748  10.567  0.8007  0.2425 -0.0165
  157SAPE   C2317512   4.009   1.876  10.122 -0.2700  0.7319 -0.3735
  157SAPE   H3R17513   3.924   1.811  10.149 -0.8980  0.4601 -2.8725
  157SAPE   H3S17514   4.105   1.838  10.164 -1.6672 -2.0322  0.3709
  157SAPE   C2417515   4.016   1.882   9.972 -0.2180  0.2847  0.2236
  157SAPE   H4R17516   4.070   1.972   9.936 -0.3323  0.4383  0.4375
  157SAPE   H4S17517   3.911   1.911   9.949 -0.6365 -1.1849  0.2019
  157SAPE   C2517518   4.064   1.757   9.893 -0.1214 -0.0556  0.4879
  157SAPE   H5R17519   4.070   1.668   9.957 -1.0253 -0.0738  0.5511
  157SAPE   C2617520   4.076   1.742   9.758  0.9067 -0.6905  0.3861
  157SAPE   H6R17521   4.105   1.645   9.715  2.7764  0.7585 -1.7462
  157SAPE   C2717522   4.051   1.849   9.650 -0.2548  0.6347  0.1067
  157SAPE   H7R17523   3.999   1.937   9.693 -2.1733  0.0811 -1.0237
  157SAPE   H7S17524   3.973   1.800   9.588  2.0968 -1.8233 -1.0230
  157SAPE   C2817525   4.176   1.888   9.566  0.0857  0.8837 -0.6952
  157SAPE   H8R17526   4.272   1.856   9.610  0.5213  3.0823  0.0416
  157SAPE   C2917527   4.171   1.961   9.454 -0.1083  0.0870  0.4753
  157SAPE   H9R17528   4.268   1.990   9.412  0.9161 -4.6944 -0.7727
  157SAPE  C21017529   4.053   2.016   9.387 -0.2116 -0.5529 -0.2117
  157SAPE  H10R17530   4.088   2.094   9.317 -0.1567 -0.6928 -0.3424
  157SAPE  H10S17531   4.002   2.073   9.468 -0.0692  0.0896 -0.5792
  157SAPE  C21117532   3.958   1.920   9.320 -0.4016  0.2986 -0.3868
  157SAPE  H11R17533   3.948   1.830   9.383  1.6815  0.2710 -0.0710
  157SAPE  C21217534   3.890   1.937   9.202  0.5870  0.3656 -0.1272
  157SAPE  H12R17535   3.831   1.850   9.169  1.7400 -0.0058 -1.2485
  157SAPE  C21317536   3.892   2.047   9.094 -0.8020 -0.1447  0.2679
  157SAPE  H13R17537   3.881   2.004   8.992 -3.8932 -1.8925  1.3026
  157SAPE  H13S17538   3.995   2.090   9.092 -0.4610 -0.9726 -0.3110
  157SAPE  C21417539   3.798   2.163   9.129 -0.2217 -0.2068 -0.1887
  157SAPE  H14R17540   3.777   2.183   9.235  0.3969 -0.7440  0.0424
  157SAPE  C21517541   3.734   2.246   9.044 -0.5113 -0.2258 -0.0310
  157SAPE  H15R17542   3.673   2.332   9.077 -2.9749 -1.5733 -0.9167
  157SAPE  C21617543   3.732   2.229   8.890 -1.0412  0.1793  0.3887
  157SAPE  H16R17544   3.653   2.165   8.846 -1.4697  1.4182 -0.6889
  157SAPE  H16S17545   3.822   2.174   8.855 -2.7312 -1.8074 -0.9935
  157SAPE  C21717546   3.724   2.355   8.812  0.5014  0.0985 -0.3981
  157SAPE  H17R17547   3.811   2.421   8.831  0.4427 -0.1422  0.7266
  157SAPE  H17S17548   3.633   2.411   8.844 -1.3463 -2.6043 -0.7144
  157SAPE  C21817549   3.721   2.331   8.660 -0.4869  0.0874  0.3750
  157SAPE  H18R17550   3.641   2.257   8.637 -1.4127  0.4882  2.1603
  157SAPE  H18S17551   3.816   2.280   8.635 -0.4429  0.1218  0.4748
  157SAPE  C21917552   3.723   2.455   8.578  0.0624 -0.2915  0.1676
  157SAPE  H19R17553   3.740   2.449   8.469  3.2507  2.1008  0.4449
  157SAPE  H19S17554   3.814   2.514   8.603  0.8253 -1.7176  0.8295
  157SAPE  C22017555   3.613   2.554   8.608  0.0230  0.2240  0.0815
  157SAPE  H20R17556   3.518   2.509   8.574  1.3699 -3.0368  0.4339
  157SAPE  H20S17557   3.632   2.649   8.553 -0.5413  0.8823  1.0073
  157SAPE  H20T17558   3.605   2.591   8.713  0.1977 -0.0580  0.1958
  157SAPE   C3317559   3.648   1.768  10.356 -0.6958 -0.7866  0.4974
  157SAPE   H3X17560   3.644   1.657  10.345  0.3527 -0.8011  0.2119
  157SAPE   H3Y17561   3.756   1.785  10.337 -0.1804 -3.0484  1.2360
  157SAPE   C3417562   3.555   1.808  10.239 -0.0746 -0.3036  0.2369
  157SAPE   H4X17563   3.490   1.897  10.254  0.4067  0.0656  0.1169
  157SAPE   H4Y17564   3.488   1.720  10.229 -1.4278  0.5982  1.1453
  157SAPE   C3517565   3.631   1.822  10.108 -0.2101  0.0256  0.2272
  157SAPE   H5X17566   3.716   1.750  10.106  1.4117  1.9032 -0.0306
  157SAPE   H5Y17567   3.678   1.921  10.089 -0.6349 -0.2399 -2.3370
  157SAPE   C3617568   3.547   1.795   9.982  0.4337 -0.2875  0.1330
  157SAPE   H6X17569   3.446   1.835  10.001  1.1567  1.5570  0.1731
  157SAPE   H6Y17570   3.534   1.684   9.976  0.7431 -0.3464  0.5337
  157SAPE   C3717571   3.602   1.841   9.853  0.5305 -0.3771  0.0022
  157SAPE   H7X17572   3.709   1.810   9.847  1.1672  1.4660  1.2955
  157SAPE   H7Y17573   3.605   1.952   9.854  0.9301 -0.3695 -1.4566
  157SAPE   C3817574   3.524   1.797   9.729  0.0251  0.5618  0.6590
  157SAPE   H8X17575   3.414   1.816   9.727 -0.1573 -0.4702  0.3287
  157SAPE   H8Y17576   3.528   1.687   9.741  0.2535  0.8025  3.0169
  157SAPE   C3917577   3.581   1.852   9.594 -0.1752 -0.0591 -0.3198
  157SAPE   H9X17578   3.681   1.900   9.596  0.3359 -1.1081 -0.3976
  157SAPE   H9Y17579   3.502   1.922   9.562 -1.4635 -0.1669  2.4161
  157SAPE  C31017580   3.591   1.745   9.485 -0.2104  0.1771  0.3486
  157SAPE  H10X17581   3.612   1.807   9.396  1.1991  0.4244  0.8363
  157SAPE  H10Y17582   3.496   1.688   9.476 -0.0285  0.0920 -1.2139
  157SAPE  C31117583   3.712   1.653   9.510 -0.2933 -0.3011  0.1973
  157SAPE  H11X17584   3.693   1.586   9.596 -2.1248 -1.4399 -1.0518
  157SAPE  H11Y17585   3.784   1.729   9.546  0.9669 -1.2097 -0.3795
  157SAPE  C31217586   3.768   1.574   9.384  0.6595  0.3753  0.7056
  157SAPE  H12X17587   3.824   1.491   9.431 -2.9336 -1.3146  2.2450
  157SAPE  H12Y17588   3.825   1.637   9.313 -2.5877  1.0738 -1.4161
  157SAPE  C31317589   3.651   1.520   9.303  0.9026 -0.2524  0.5043
  157SAPE  H13X17590   3.585   1.597   9.257  0.8414 -2.1517 -2.7169
  157SAPE  H13Y17591   3.576   1.467   9.367 -0.9030 -0.2397 -1.5489
  157SAPE  C31417592   3.695   1.416   9.201 -0.2293  0.2958 -0.0054
  157SAPE  H14X17593   3.637   1.322   9.206  1.5030 -0.7805  0.3195
  157SAPE  H14Y17594   3.804   1.397   9.214 -0.1420  1.4612  1.1370
  157SAPE  C31517595   3.683   1.480   9.062  0.1316  0.1449  0.3000
  157SAPE  H15X17596   3.737   1.577   9.067 -0.0653  0.3206 -0.7939
  157SAPE  H15Y17597   3.578   1.494   9.029 -0.5714  2.6687  3.3735
  157SAPE  C31617598   3.753   1.389   8.952 -0.6508 -0.0753  0.1948
  157SAPE  H16X17599   3.701   1.292   8.961  0.0995 -0.5729 -0.7583
  157SAPE  H16Y17600   3.861   1.371   8.970 -1.0369 -1.4077  1.2075
  157SAPE  C31717601   3.733   1.443   8.815  0.0758 -0.0350  0.0456
  157SAPE  H17X17602   3.629   1.481   8.815  0.9893  2.5615 -1.4436
  157SAPE  H17Y17603   3.745   1.384   8.721  0.8640 -0.3577  0.3415
  157SAPE  C31817604   3.813   1.577   8.797 -0.3476 -0.0057  0.4008
  157SAPE  H18X17605   3.804   1.619   8.694  0.9971  1.4145  0.8488
  157SAPE  H18Y17606   3.917   1.563   8.834 -0.8259 -0.3223  1.6320
  157SAPE  H18Z17607   3.768   1.651   8.866 -0.3429  0.6403 -0.2811
  158SAPE     N17608   5.522   2.068  11.090 -0.2015  0.4771  0.2689
  158SAPE   HN117609   5.608   2.031  11.044 -1.0472  1.0234 -1.8065
  158SAPE   HN217610   5.536   2.092  11.190 -1.2883  0.4652  0.4202
  158SAPE   HN317611   5.439   2.009  11.071  0.1800 -0.4693  1.4633
  158SAPE   C1217612   5.498   2.197  11.016 -0.4883 -0.0713  0.5687
  158SAPE  H12A17613   5.590   2.257  10.999 -1.4144  1.2590  0.2625
  158SAPE  H12B17614   5.436   2.260  11.083 -0.7238 -1.3095  1.5438
  158SAPE   C1117615   5.450   2.170  10.875  0.6499 -0.3495 -0.2882
  158SAPE  H11A17616   5.415   2.262  10.823  0.4739 -0.0312  0.3770
  158SAPE  H11B17617   5.353   2.120  10.897  0.0712  1.0546  0.4659
  158SAPE     P17618   5.500   2.028  10.662 -0.5593 -0.2893 -0.3652
  158SAPE   O1317619   5.606   1.942  10.612  0.0738 -0.4285 -0.0449
  158SAPE   O1417620   5.368   1.964  10.668 -0.1471 -0.2641 -0.3208
  158SAPE   O1217621   5.540   2.086  10.804  0.9814 -0.2538  0.1747
  158SAPE   O1117622   5.470   2.150  10.565 -0.2823  0.2290 -0.5585
  158SAPE    C117623   5.568   2.255  10.569 -0.1757  0.3262 -0.7482
  158SAPE    HA17624   5.629   2.271  10.661 -1.9492  0.3873  0.4605
  158SAPE    HB17625   5.642   2.232  10.490  0.5581  0.7098 -0.1803
  158SAPE    C217626   5.505   2.386  10.518 -0.2451  0.1074  0.2283
  158SAPE    HS17627   5.464   2.438  10.607 -1.2384  0.0137 -0.1647
  158SAPE   O2117628   5.405   2.349  10.419 -0.6092  0.5808  0.0328
  158SAPE   C2117629   5.330   2.451  10.396  0.7569 -0.4364 -0.5533
  158SAPE   O2217630   5.330   2.558  10.454  0.0518 -0.5023  0.2428
  158SAPE   C2217631   5.218   2.414  10.301 -0.1171 -0.3858 -0.6749
  158SAPE   H2R17632   5.192   2.306  10.307  0.7788 -0.6537 -1.4767
  158SAPE   H2S17633   5.130   2.475  10.331  0.2178 -0.2923  0.1283
  158SAPE    C317634   5.624   2.479  10.459 -0.5550  0.0922  0.2652
  158SAPE    HX17635   5.706   2.485  10.534 -1.3954  0.6376  1.1514
  158SAPE    HY17636   5.584   2.583  10.452 -0.5834  0.0009 -1.2239
  158SAPE   O3117637   5.679   2.433  10.332  0.3850 -0.0560  0.2364
  158SAPE   C3117638   5.747   2.519  10.257 -0.1819  0.0106 -0.7048
  158SAPE   O3217639   5.741   2.641  10.272  0.0892  0.7526  0.0153
  158SAPE   C3217640   5.831   2.444  10.151  0.0139 -0.3190 -0.2441
  158SAPE   H2X17641   5.782   2.344  10.145  1.2868 -1.0506  1.1629
  158SAPE   H2Y17642   5.936   2.439  10.188 -0.0679  1.3524  0.2582
  158SAPE   C2317643   5.264   2.423  10.155 -0.4347  0.2598 -0.2847
  158SAPE   H3R17644   5.370   2.390  10.145 -0.6432 -0.5923  0.3390
  158SAPE   H3S17645   5.266   2.527  10.116 -0.8021 -0.2075 -1.5989
  158SAPE   C2417646   5.183   2.337  10.051  0.1431  0.4950 -1.0688
  158SAPE   H4R17647   5.208   2.229  10.055  0.6539  0.6457 -0.0351
  158SAPE   H4S17648   5.202   2.388   9.954  1.0102  1.8123 -0.2112
  158SAPE   C2517649   5.036   2.353  10.083 -0.2580 -0.3605 -0.3657
  158SAPE   H5R17650   5.005   2.302  10.175 -0.6060  1.0451  0.3101
  158SAPE   C2617651   4.939   2.415  10.016 -0.7568  0.4198 -0.1939
  158SAPE   H6R17652   4.836   2.417  10.053 -0.4940 -2.1390  0.7778
  158SAPE   C2717653   4.966   2.481   9.883 -0.5084  0.1614 -0.0785
  158SAPE   H7R17654   4.870   2.475   9.826 -0.8322  1.0651  0.3581
  158SAPE   H7S17655   5.025   2.409   9.822  2.1605  1.2279  1.1583
  158SAPE   C2817656   5.006   2.621   9.880 -0.7789 -0.0772 -0.3564
  158SAPE   H8R17657   4.944   2.697   9.930  2.2952  1.6762  0.8552
  158SAPE   C2917658   5.126   2.652   9.828 -0.3004 -0.6894 -0.0200
  158SAPE   H9R17659   5.149   2.759   9.842  0.8566 -1.0450  0.9477
  158SAPE  C21017660   5.228   2.563   9.768 -0.2589 -0.6696 -0.7131
  158SAPE  H10R17661   5.182   2.473   9.722 -2.3353  0.3719 -0.7007
  158SAPE  H10S17662   5.291   2.522   9.850 -1.1401  0.5381  0.5779
  158SAPE  C21117663   5.316   2.646   9.671  0.4855  0.7484 -0.6515
  158SAPE  H11R17664   5.409   2.682   9.716  0.9989 -1.2705 -0.0346
  158SAPE  C21217665   5.285   2.667   9.545  0.2637  0.1691 -0.1832
  158SAPE  H12R17666   5.355   2.728   9.487 -0.2562 -1.1483 -2.2635
  158SAPE  C21317667   5.162   2.626   9.476  0.1710  0.2020 -0.0297
  158SAPE  H13R17668   5.083   2.583   9.541  0.7746  1.9386  1.9066
  158SAPE  H13S17669   5.192   2.535   9.420 -3.0849 -0.8767 -0.1310
  158SAPE  C21417670   5.108   2.719   9.376  0.6066  0.4123 -0.4035
  158SAPE  H14R17671   5.059   2.808   9.418 -1.7739 -2.4457  3.2756
  158SAPE  C21517672   5.125   2.705   9.245  0.1227 -0.3377  0.4259
  158SAPE  H15R17673   5.076   2.780   9.181 -0.2477 -0.1041  0.9787
  158SAPE  C21617674   5.195   2.592   9.173  0.0981 -0.7603  0.5094
  158SAPE  H16R17675   5.126   2.519   9.125  1.0735 -1.3949  0.0796
  158SAPE  H16S17676   5.267   2.541   9.240 -1.4904 -0.5827  2.4265
  158SAPE  C21717677   5.279   2.654   9.060 -0.1819 -0.4257 -0.4494
  158SAPE  H17R17678   5.359   2.580   9.040  2.3441  2.1164 -0.0730
  158SAPE  H17S17679   5.328   2.744   9.102  0.0718  0.7286 -3.0893
  158SAPE  C21817680   5.212   2.696   8.931 -0.9033  0.5898  0.0102
  158SAPE  H18R17681   5.288   2.749   8.870 -0.1490  0.6947  1.0244
  158SAPE  H18S17682   5.140   2.777   8.952 -0.3840  1.1363 -0.3002
  158SAPE  C21917683   5.172   2.576   8.853  0.6286 -1.0893  0.0209
  158SAPE  H19R17684   5.083   2.609   8.794 -1.4542 -1.8674  2.6182
  158SAPE  H19S17685   5.136   2.500   8.925  0.0899 -2.2129 -1.4017
  158SAPE  C22017686   5.281   2.525   8.763 -0.0541  0.4245  0.2702
  158SAPE  H20R17687   5.323   2.614   8.712  2.2327  0.7536  2.6097
  158SAPE  H20S17688   5.246   2.447   8.693 -0.1174  3.0562 -2.7676
  158SAPE  H20T17689   5.378   2.488   8.801  1.0396 -1.6408 -4.3261
  158SAPE   C3317690   5.812   2.495  10.004 -0.0086 -0.1553  0.4512
  158SAPE   H3X17691   5.860   2.594   9.993  1.2579 -0.7660  0.4459
  158SAPE   H3Y17692   5.704   2.503   9.980  0.3354  0.7824 -0.8137
  158SAPE   C3417693   5.865   2.401   9.895  0.2409 -0.2639  0.0606
  158SAPE   H4X17694   5.805   2.307   9.896 -0.5715  0.2367  1.9081
  158SAPE   H4Y17695   5.973   2.377   9.902 -0.0689 -1.3782  1.1258
  158SAPE   C3517696   5.869   2.472   9.758  0.1642 -0.1030 -0.2243
  158SAPE   H5X17697   5.925   2.568   9.761  1.8427 -0.9719 -2.1012
  158SAPE   H5Y17698   5.769   2.495   9.718  1.5078  1.6496 -2.7211
  158SAPE   C3617699   5.938   2.388   9.646  1.2929  0.2327  0.6202
  158SAPE   H6X17700   5.871   2.301   9.628  1.5030 -0.1568  1.6715
  158SAPE   H6Y17701   6.034   2.355   9.691  0.3115 -0.8373  1.9852
  158SAPE   C3717702   5.954   2.463   9.509  0.4496  0.2905 -0.0211
  158SAPE   H7X17703   6.019   2.550   9.533  0.3038  0.8958 -1.7564
  158SAPE   H7Y17704   5.857   2.487   9.461  0.3677  2.2021  1.0437
  158SAPE   C3817705   6.030   2.389   9.397  0.5069 -0.2227  0.4233
  158SAPE   H8X17706   6.131   2.353   9.426  0.5888  1.2153  1.9808
  158SAPE   H8Y17707   6.041   2.458   9.311 -0.7646 -2.3503 -1.4839
  158SAPE   C3917708   5.963   2.261   9.344  0.3492 -0.3490  0.1041
  158SAPE   H9X17709   5.856   2.289   9.331  0.3992  0.7485  1.9206
  158SAPE   H9Y17710   5.980   2.167   9.401  1.9010 -0.6979 -0.9139
  158SAPE  C31017711   6.007   2.237   9.190 -0.2180  0.0082 -1.1103
  158SAPE  H10X17712   5.934   2.161   9.156  0.3947 -1.6426  1.0959
  158SAPE  H10Y17713   6.108   2.189   9.183  1.1820  2.7561 -0.2640
  158SAPE  C31117714   5.983   2.355   9.092  0.1677 -0.5669  0.8411
  158SAPE  H11X17715   6.063   2.432   9.085  1.5288 -1.9689  0.7853
  158SAPE  H11Y17716   5.886   2.399   9.123 -0.7759 -0.3187 -2.3846
  158SAPE  C31217717   5.961   2.310   8.951  0.0095  0.0112  0.3313
  158SAPE  H12X17718   5.865   2.253   8.947 -0.8358  1.4234  0.1613
  158SAPE  H12Y17719   6.043   2.244   8.916  0.6879  1.3602 -0.6555
  158SAPE  C31317720   5.936   2.422   8.849 -0.0541  0.5469 -0.5943
  158SAPE  H13X17721   6.027   2.479   8.820  0.7139 -0.2006  0.3105
  158SAPE  H13Y17722   5.866   2.502   8.881 -0.7069  1.1145 -3.3506
  158SAPE  C31417723   5.859   2.375   8.723 -0.8695  0.9348  0.3903
  158SAPE  H14X17724   5.773   2.313   8.754 -0.5013 -0.1445 -0.6859
  158SAPE  H14Y17725   5.924   2.317   8.654 -0.7721  1.7029 -0.1780
  158SAPE  C31517726   5.821   2.497   8.638  0.3937  0.0050 -0.8972
  158SAPE  H15X17727   5.915   2.550   8.611  0.1071  0.6028 -0.7341
  158SAPE  H15Y17728   5.767   2.575   8.697  0.9550 -1.9300  2.2615
  158SAPE  C31617729   5.730   2.455   8.518  0.1169  0.4837  0.9468
  158SAPE  H16X17730   5.703   2.349   8.540  1.7868 -0.1668 -0.0313
  158SAPE  H16Y17731   5.791   2.465   8.426  0.1380 -0.5667  0.8433
  158SAPE  C31717732   5.598   2.538   8.509  0.0292  0.5730 -0.1724
  158SAPE  H17X17733   5.606   2.626   8.441  1.5448  0.7652  0.2389
  158SAPE  H17Y17734   5.579   2.570   8.613  0.0573  1.0125 -0.3019
  158SAPE  C31817735   5.478   2.448   8.484  0.4712 -0.4978  0.0524
  158SAPE  H18X17736   5.477   2.414   8.378 -0.7149  2.5194 -0.9467
  158SAPE  H18Y17737   5.393   2.518   8.495  0.5431 -0.7641  2.4820
  158SAPE  H18Z17738   5.470   2.365   8.557 -1.3985  2.1291  2.9115
  159SAPE     N17739   5.508   6.378   6.167  0.4183  0.5802  0.0942
  159SAPE   HN117740   5.597   6.377   6.114 -0.2243  0.0900 -0.9765
  159SAPE   HN217741   5.428   6.414   6.111 -0.5017 -1.4532  0.0868
  159SAPE   HN317742   5.530   6.447   6.242  2.6312 -0.8457  0.8023
  159SAPE   C1217743   5.486   6.236   6.224  0.1339  0.6940  0.2447
  159SAPE  H12A17744   5.585   6.191   6.249 -1.0212 -2.1175  0.0186
  159SAPE  H12B17745   5.443   6.180   6.138 -0.3893  0.9954  0.3122
  159SAPE   C1117746   5.390   6.234   6.342 -0.2892  0.1707  0.2150
  159SAPE  H11A17747   5.453   6.271   6.426 -2.6220  1.5843  1.3957
  159SAPE  H11B17748   5.366   6.127   6.359  0.1206  0.0258 -0.1190
  159SAPE     P17749   5.256   6.452   6.403  0.3351 -0.2199  0.0513
  159SAPE   O1317750   5.369   6.543   6.359  0.0331  0.2837 -0.0770
  159SAPE   O1417751   5.120   6.510   6.382  0.3563 -0.5436  0.3805
  159SAPE   O1217752   5.270   6.313   6.324 -0.2635 -0.4911 -0.0806
  159SAPE   O1117753   5.258   6.411   6.559  0.0390 -0.1308  0.2971
  159SAPE    C117754   5.202   6.291   6.609 -0.3033  0.5427  1.1175
  159SAPE    HA17755   5.183   6.219   6.527  1.0442  0.3696  0.9544
  159SAPE    HB17756   5.277   6.228   6.661 -0.5936 -0.9559 -0.2594
  159SAPE    C217757   5.085   6.301   6.704  0.2225 -0.0381  1.2033
  159SAPE    HS17758   5.002   6.345   6.645  0.7217  0.2208  0.6852
  159SAPE   O2117759   5.115   6.386   6.817  0.2454 -0.1724 -0.0470
  159SAPE   C2117760   5.097   6.513   6.797  0.2606  0.2920 -0.3414
  159SAPE   O2217761   5.038   6.567   6.702 -0.0764 -0.0228  0.4462
  159SAPE   C2217762   5.176   6.599   6.902 -0.4911  0.2836  0.4931
  159SAPE   H2R17763   5.204   6.523   6.980  0.9128 -0.0233 -0.2821
  159SAPE   H2S17764   5.265   6.632   6.845  1.4464 -2.9918  1.4520
  159SAPE    C317765   5.042   6.170   6.764 -0.4034 -0.2441 -0.2413
  159SAPE    HX17766   5.127   6.111   6.807  1.1386  0.3173 -2.4420
  159SAPE    HY17767   5.013   6.102   6.680  3.3564 -2.7336  0.3216
  159SAPE   O3117768   4.930   6.179   6.863  0.2068 -0.5804  0.0478
  159SAPE   C3117769   4.810   6.203   6.809 -0.4595 -0.5948 -0.7306
  159SAPE   O3217770   4.785   6.196   6.692 -0.0222 -0.3450  0.0415
  159SAPE   C3217771   4.708   6.239   6.917  1.0023  0.1349  0.0448
  159SAPE   H2X17772   4.732   6.194   7.016  0.9859  0.8984  0.3981
  159SAPE   H2Y17773   4.611   6.203   6.877 -0.2016  2.9506  0.2732
  159SAPE   C2317774   5.099   6.709   6.968  0.2001  0.0625 -0.0559
  159SAPE   H3R17775   5.043   6.659   7.049 -1.2402  1.2805 -0.2735
  159SAPE   H3S17776   5.029   6.749   6.891 -1.3771 -2.0361  0.2726
  159SAPE   C2417777   5.182   6.824   7.022  0.3864  0.0995 -0.1703
  159SAPE   H4R17778   5.121   6.901   7.074 -1.4701 -1.1084 -0.5387
  159SAPE   H4S17779   5.225   6.866   6.928 -1.3299 -0.1601 -1.0901
  159SAPE   C2517780   5.294   6.784   7.112  0.0200 -1.0735 -0.9398
  159SAPE   H5R17781   5.391   6.759   7.065  0.1206 -1.7444 -0.3907
  159SAPE   C2617782   5.283   6.783   7.246  0.1757  0.9049 -0.3566
  159SAPE   H6R17783   5.373   6.748   7.298  0.4544  0.1492 -1.3450
  159SAPE   C2717784   5.159   6.815   7.332 -0.3196 -0.2191 -0.1708
  159SAPE   H7R17785   5.167   6.730   7.404 -0.4003  0.9740  1.2593
  159SAPE   H7S17786   5.065   6.792   7.277  0.3810  1.0268 -1.9182
  159SAPE   C2817787   5.157   6.963   7.385 -1.3057  0.2557  0.3730
  159SAPE   H8R17788   5.165   7.034   7.302  0.9581 -0.0773  0.2740
  159SAPE   C2917789   5.164   7.002   7.517 -0.4229  0.1776 -1.1102
  159SAPE   H9R17790   5.160   7.110   7.535  3.6953  0.3168 -0.4856
  159SAPE  C21017791   5.170   6.915   7.637  0.7970 -0.2057  0.3490
  159SAPE  H10R17792   5.247   6.950   7.709 -0.4535  0.5332  1.3627
  159SAPE  H10S17793   5.205   6.815   7.601  1.0481  0.7930 -2.2956
  159SAPE  C21117794   5.027   6.900   7.693 -0.4834  0.0804  0.6836
  159SAPE  H11R17795   4.965   6.843   7.623  1.3210  2.3077 -2.8687
  159SAPE  C21217796   4.977   6.928   7.818 -0.2636 -0.8674 -0.6981
  159SAPE  H12R17797   4.868   6.935   7.835  0.0985  2.5161  0.6743
  159SAPE  C21317798   5.055   6.997   7.928  0.9420 -0.3848 -0.0323
  159SAPE  H13R17799   5.145   7.037   7.878  0.2341  1.1181 -0.1355
  159SAPE  H13S17800   5.095   6.915   7.992 -0.1344 -1.4707 -0.7044
  159SAPE  C21417801   4.980   7.098   8.011  0.0258  0.3325 -0.8142
  159SAPE  H14R17802   4.988   7.205   7.986  1.2212  0.6497  0.8374
  159SAPE  C21517803   4.900   7.076   8.115 -0.3896  0.1379  0.3738
  159SAPE  H15R17804   4.836   7.154   8.159  0.6870  0.6483  1.0704
  159SAPE  C21617805   4.859   6.943   8.178  0.0564  0.3448  0.3251
  159SAPE  H16R17806   4.911   6.864   8.120 -1.0517 -1.4100  1.6873
  159SAPE  H16S17807   4.749   6.930   8.179  0.1736 -1.1903 -2.1276
  159SAPE  C21717808   4.898   6.928   8.331  0.0397  0.2332  0.0252
  159SAPE  H17R17809   4.857   7.015   8.387 -0.7121 -0.4886  0.6122
  159SAPE  H17S17810   5.009   6.930   8.332  0.0445  4.2594  0.9392
  159SAPE  C21817811   4.839   6.803   8.394 -0.8140  0.5689  0.4586
  159SAPE  H18R17812   4.903   6.723   8.351 -1.9558 -0.2237  0.1915
  159SAPE  H18S17813   4.735   6.787   8.357 -1.3922  2.0812  1.4057
  159SAPE  C21917814   4.845   6.797   8.546  0.5336 -0.0136 -0.3154
  159SAPE  H19R17815   4.776   6.878   8.578 -0.6195 -0.9973 -0.2716
  159SAPE  H19S17816   4.944   6.822   8.590  0.2684 -2.2915  1.6755
  159SAPE  C22017817   4.803   6.663   8.612 -0.2243 -0.5197 -0.6500
  159SAPE  H20R17818   4.809   6.664   8.723  0.3276 -0.8412 -0.6794
  159SAPE  H20S17819   4.881   6.590   8.586  1.5967  0.9051  0.6513
  159SAPE  H20T17820   4.707   6.624   8.572 -0.6878  1.2746 -1.3368
  159SAPE   C3317821   4.683   6.390   6.931  0.5765 -0.2527 -0.0088
  159SAPE   H3X17822   4.584   6.391   6.982  0.8359 -2.7510  0.6247
  159SAPE   H3Y17823   4.667   6.436   6.831 -0.5944 -0.4441  0.0736
  159SAPE   C3417824   4.771   6.476   7.025 -0.2694 -0.0151 -0.0276
  159SAPE   H4X17825   4.740   6.583   7.019  2.2063  0.7299  0.1814
  159SAPE   H4Y17826   4.878   6.468   6.998 -0.3385 -2.5228  0.3307
  159SAPE   C3517827   4.781   6.437   7.172 -0.3742 -0.2899  0.8364
  159SAPE   H5X17828   4.798   6.328   7.185  0.6129 -0.1549  0.7336
  159SAPE   H5Y17829   4.684   6.457   7.222 -1.7195 -1.3890 -1.2698
  159SAPE   C3617830   4.893   6.521   7.244 -0.5548 -0.5118 -0.0511
  159SAPE   H6X17831   4.874   6.626   7.212 -0.3721 -0.8195 -1.1701
  159SAPE   H6Y17832   4.990   6.485   7.205  0.4428  1.5711  0.4116
  159SAPE   C3717833   4.897   6.515   7.395 -0.2522 -0.0798  0.2825
  159SAPE   H7X17834   4.813   6.575   7.434 -1.2059 -0.4551 -1.1626
  159SAPE   H7Y17835   4.994   6.560   7.426 -2.0454  2.2184  2.6694
  159SAPE   C3817836   4.893   6.376   7.467  0.1643  0.3432  0.3901
  159SAPE   H8X17837   4.963   6.310   7.412  1.7128  2.4786 -0.3038
  159SAPE   H8Y17838   4.789   6.349   7.439 -0.2906  1.6055  0.8102
  159SAPE   C3917839   4.888   6.375   7.615 -0.7220 -0.4598 -0.3824
  159SAPE   H9X17840   4.978   6.431   7.650 -0.6424 -2.2748  2.4752
  159SAPE   H9Y17841   4.889   6.268   7.644 -1.0298 -0.3453  0.0561
  159SAPE  C31017842   4.762   6.443   7.674 -0.1348 -0.3401  0.0317
  159SAPE  H10X17843   4.667   6.414   7.625 -2.4033  0.1647  3.9004
  159SAPE  H10Y17844   4.775   6.553   7.662  1.7729 -0.3706  1.4592
  159SAPE  C31117845   4.743   6.424   7.827  0.9298  0.0149 -0.3769
  159SAPE  H11X17846   4.764   6.318   7.851 -0.1753 -0.6612 -2.3112
  159SAPE  H11Y17847   4.634   6.445   7.840  0.9911 -1.2473  2.5423
  159SAPE  C31217848   4.835   6.517   7.908 -0.3833  0.0685  1.0673
  159SAPE  H12X17849   4.832   6.622   7.873 -0.4941 -0.7342 -1.4554
  159SAPE  H12Y17850   4.937   6.479   7.884 -1.2222 -1.1933 -0.6376
  159SAPE  C31317851   4.809   6.514   8.054 -0.3837 -0.5891  0.1559
  159SAPE  H13X17852   4.701   6.537   8.068 -1.3538 -1.5297 -4.7717
  159SAPE  H13Y17853   4.864   6.596   8.105  0.3475 -1.5391  0.9113
  159SAPE  C31417854   4.838   6.378   8.130  0.5025 -0.5208 -0.0898
  159SAPE  H14X17855   4.937   6.344   8.092  1.4475  2.6087 -0.5947
  159SAPE  H14Y17856   4.759   6.303   8.108  1.3172 -1.2955 -0.4062
  159SAPE  C31517857   4.843   6.391   8.275  0.5233 -0.6922  0.0939
  159SAPE  H15X17858   4.753   6.448   8.308  1.4453  1.0616 -0.4141
  159SAPE  H15Y17859   4.931   6.446   8.314  0.4366  0.3060 -1.1122
  159SAPE  C31617860   4.838   6.256   8.350 -0.6902 -0.4667  0.1553
  159SAPE  H16X17861   4.926   6.190   8.330  0.3616  1.2419 -0.9127
  159SAPE  H16Y17862   4.740   6.210   8.325  0.1519 -0.7962 -2.6398
  159SAPE  C31717863   4.843   6.281   8.504  0.8120 -0.1538  0.0927
  159SAPE  H17X17864   4.754   6.330   8.550  3.0920  2.5958  1.7320
  159SAPE  H17Y17865   4.923   6.357   8.515  0.4911 -0.1336  2.6101
  159SAPE  C31817866   4.891   6.162   8.583 -0.7875  0.0887 -0.4253
  159SAPE  H18X17867   4.928   6.190   8.684  1.2581 -0.3661 -1.0265
  159SAPE  H18Y17868   4.982   6.120   8.534 -1.8916 -1.0155 -1.5635
  159SAPE  H18Z17869   4.822   6.075   8.584  0.1422 -0.6581  0.7128
  160SAPE     N17870   3.694   6.750   6.789 -0.0813  0.3503 -0.2085
  160SAPE   HN117871   3.716   6.793   6.697  3.2663  0.7710  0.7303
  160SAPE   HN217872   3.767   6.792   6.850  0.8966  0.7336 -1.6037
  160SAPE   HN317873   3.704   6.647   6.779 -1.4167 -0.1011  2.5150
  160SAPE   C1217874   3.565   6.789   6.841  0.3863  0.5255 -0.0960
  160SAPE  H12A17875   3.554   6.753   6.945  0.5901 -1.7824 -0.8559
  160SAPE  H12B17876   3.485   6.746   6.777 -1.4237  2.6822  0.6564
  160SAPE   C1117877   3.548   6.945   6.824  1.2154 -0.2650 -0.2972
  160SAPE  H11A17878   3.617   7.005   6.886 -0.7243  2.2627 -0.4909
  160SAPE  H11B17879   3.448   6.962   6.869  0.9178 -0.9014 -0.7046
  160SAPE     P17880   3.474   7.102   6.630 -0.1353  0.3182  0.3497
  160SAPE   O1317881   3.488   7.090   6.485  0.2075 -0.1002  0.8235
  160SAPE   O1417882   3.341   7.100   6.694  0.4025 -1.0758  0.4403
  160SAPE   O1217883   3.544   6.980   6.690  0.1973  0.2031 -0.5572
  160SAPE   O1117884   3.545   7.230   6.678 -0.2738  0.3170  0.6543
  160SAPE    C117885   3.682   7.245   6.717  0.1042  0.5096  0.0759
  160SAPE    HA17886   3.728   7.146   6.742 -0.6189 -0.1759 -1.2382
  160SAPE    HB17887   3.735   7.279   6.626  0.7641 -0.5574  0.0426
  160SAPE    C217888   3.694   7.325   6.851  0.7114  0.7282  0.5315
  160SAPE    HS17889   3.705   7.246   6.929  1.0392 -1.2147 -1.4176
  160SAPE   O2117890   3.568   7.392   6.876 -0.5611 -0.6354 -0.1930
  160SAPE   C2117891   3.485   7.340   6.967 -0.8417 -0.0600 -1.0657
  160SAPE   O2217892   3.502   7.233   7.016 -0.1870 -0.2163 -0.0500
  160SAPE   C2217893   3.370   7.442   6.989  0.0024 -0.3997 -0.0166
  160SAPE   H2R17894   3.417   7.543   6.999 -1.8630  0.3340  1.7573
  160SAPE   H2S17895   3.311   7.439   6.896  0.1954  1.3272 -0.2124
  160SAPE    C317896   3.811   7.416   6.849  0.7996 -0.0966  0.1204
  160SAPE    HX17897   3.804   7.480   6.758 -2.0743 -0.9146 -0.3032
  160SAPE    HY17898   3.897   7.348   6.834  0.8146 -0.2553  0.9301
  160SAPE   O3117899   3.821   7.509   6.962  0.0170 -0.1302  0.4621
  160SAPE   C3117900   3.903   7.473   7.068 -0.0801 -0.7262 -0.0830
  160SAPE   O3217901   3.987   7.385   7.066 -0.0437 -0.6767 -0.2546
  160SAPE   C3217902   3.864   7.559   7.189 -0.1828  0.4162 -0.1254
  160SAPE   H2X17903   3.877   7.666   7.160  1.1471 -0.4742 -2.9261
  160SAPE   H2Y17904   3.944   7.548   7.266 -1.1176  1.4846  1.0097
  160SAPE   C2317905   3.280   7.417   7.115  0.4150  0.4732  0.5363
  160SAPE   H3R17906   3.243   7.520   7.134 -0.9385 -0.0838  1.0239
  160SAPE   H3S17907   3.334   7.384   7.206 -1.6176  0.0779  1.6163
  160SAPE   C2417908   3.154   7.338   7.080  0.1909 -0.2248 -0.4393
  160SAPE   H4R17909   3.104   7.364   6.984  1.3879  1.5622 -0.6063
  160SAPE   H4S17910   3.084   7.375   7.158  0.3305  0.1812 -0.5054
  160SAPE   C2517911   3.179   7.188   7.096 -0.6621 -0.1135 -1.1211
  160SAPE   H5R17912   3.213   7.134   7.006  0.8921 -0.5977 -0.2694
  160SAPE   C2617913   3.166   7.107   7.208 -0.2913 -0.3764 -0.0248
  160SAPE   H6R17914   3.181   7.000   7.188  0.5438 -0.2300 -0.2061
  160SAPE   C2717915   3.128   7.154   7.344  0.0006 -0.3348 -0.6653
  160SAPE   H7R17916   3.097   7.064   7.401 -1.3785  1.0410  0.7896
  160SAPE   H7S17917   3.043   7.223   7.328 -2.5261 -3.0441  0.6884
  160SAPE   C2817918   3.248   7.215   7.421  0.6098 -0.2970  0.3380
  160SAPE   H8R17919   3.344   7.231   7.370  1.2979  0.2351  1.7681
  160SAPE   C2917920   3.248   7.249   7.554 -0.2415  0.5214 -0.2527
  160SAPE   H9R17921   3.340   7.291   7.599 -0.9660  2.7708 -0.7726
  160SAPE  C21017922   3.131   7.252   7.647  0.1262 -0.0288  0.3755
  160SAPE  H10R17923   3.128   7.161   7.711 -3.7462  1.3028  2.2886
  160SAPE  H10S17924   3.034   7.253   7.593 -0.7668 -0.5017  1.9378
  160SAPE  C21117925   3.136   7.380   7.726  0.0237  0.1040  0.6180
  160SAPE  H11R17926   3.150   7.475   7.673  0.0078  1.9773  3.8067
  160SAPE  C21217927   3.104   7.396   7.857  0.5118  0.2696 -0.1731
  160SAPE  H12R17928   3.115   7.501   7.886  0.7259  0.4739 -0.9851
  160SAPE  C21317929   3.065   7.291   7.964  0.2593 -0.1599 -0.1187
  160SAPE  H13R17930   3.099   7.188   7.939  0.3713 -0.5852  1.7577
  160SAPE  H13S17931   2.957   7.294   7.989  0.5802 -2.9247  1.8342
  160SAPE  C21417932   3.145   7.341   8.078  0.0235  0.3906 -0.0407
  160SAPE  H14R17933   3.251   7.325   8.054  1.2298  4.8304  1.6998
  160SAPE  C21517934   3.112   7.416   8.181  0.6936 -0.6629  0.0886
  160SAPE  H15R17935   3.191   7.441   8.254 -0.2852  1.7615  0.3595
  160SAPE  C21617936   2.974   7.462   8.222 -0.2009 -0.0794  0.3549
  160SAPE  H16R17937   2.890   7.434   8.154 -0.3028 -0.1504  0.5070
  160SAPE  H16S17938   2.975   7.573   8.223 -0.4537 -0.0684 -0.3565
  160SAPE  C21717939   2.928   7.431   8.365  0.1897 -0.2286 -0.3784
  160SAPE  H17R17940   2.923   7.321   8.379 -0.8601  0.0988  2.1066
  160SAPE  H17S17941   2.823   7.466   8.380  0.1382 -0.7235  0.4311
  160SAPE  C21817942   3.014   7.491   8.479 -0.6249  0.4375 -0.1920
  160SAPE  H18R17943   3.029   7.598   8.457  1.1286  0.4716  1.1026
  160SAPE  H18S17944   3.113   7.441   8.483 -0.5305  0.6979  0.9702
  160SAPE  C21917945   2.942   7.489   8.612  0.1147 -0.4633  0.1855
  160SAPE  H19R17946   2.920   7.381   8.628  2.2399 -0.7343  1.4599
  160SAPE  H19S17947   2.848   7.548   8.611  0.9892  0.9430 -0.4917
  160SAPE  C22017948   3.024   7.524   8.732 -0.3675  0.1237 -0.6420
  160SAPE  H20R17949   2.960   7.510   8.822  2.6902 -0.3554  1.5174
  160SAPE  H20S17950   3.048   7.632   8.725  1.8498 -0.4118 -1.5790
  160SAPE  H20T17951   3.117   7.464   8.743  0.6259  1.0758 -3.5469
  160SAPE   C3317952   3.724   7.534   7.247  0.2835  0.0878  0.0462
  160SAPE   H3X17953   3.724   7.435   7.296  2.1838 -0.2500 -0.6053
  160SAPE   H3Y17954   3.643   7.525   7.171 -0.3576 -0.5833  0.8098
  160SAPE   C3417955   3.680   7.629   7.359  0.4649 -0.2972 -0.2597
  160SAPE   H4X17956   3.656   7.729   7.318  0.2360  0.6336  2.0215
  160SAPE   H4Y17957   3.744   7.646   7.449 -0.0710  2.0242 -0.2972
  160SAPE   C3517958   3.546   7.590   7.423 -0.9905  0.5572  0.1583
  160SAPE   H5X17959   3.570   7.496   7.478 -2.6389  0.1753  0.2450
  160SAPE   H5Y17960   3.466   7.584   7.346 -0.9049  0.0383  0.1101
  160SAPE   C3617961   3.502   7.683   7.536  0.1226 -0.3202  0.0852
  160SAPE   H6X17962   3.397   7.659   7.560  0.2896 -2.1268 -0.8680
  160SAPE   H6Y17963   3.514   7.784   7.490  1.3044  0.1500  1.3955
  160SAPE   C3717964   3.582   7.679   7.668  0.6915  0.0805 -0.4123
  160SAPE   H7X17965   3.542   7.761   7.732 -1.4887 -1.9181  0.8873
  160SAPE   H7Y17966   3.688   7.707   7.651  0.4390  0.1813 -1.9131
  160SAPE   C3817967   3.582   7.544   7.746 -0.0162 -0.2753  0.2578
  160SAPE   H8X17968   3.645   7.472   7.690  1.2206  2.4008 -1.9380
  160SAPE   H8Y17969   3.481   7.500   7.733  0.3247 -1.2247  0.8115
  160SAPE   C3917970   3.624   7.561   7.892 -0.1034  0.4633 -0.2753
  160SAPE   H9X17971   3.700   7.642   7.899  1.3806 -1.0726  2.1038
  160SAPE   H9Y17972   3.670   7.465   7.923  0.3259 -0.0157 -2.2880
  160SAPE  C31017973   3.522   7.610   7.994  0.1270 -0.6095 -0.1933
  160SAPE  H10X17974   3.435   7.542   7.995 -0.9513  0.6455 -2.5305
  160SAPE  H10Y17975   3.488   7.708   7.954  0.6547 -0.9312 -1.4836
  160SAPE  C31117976   3.574   7.623   8.140 -0.0830  0.4061  0.0438
  160SAPE  H11X17977   3.602   7.521   8.175 -2.0113  0.8252  3.0211
  160SAPE  H11Y17978   3.485   7.647   8.203 -0.0779 -0.1445  0.2734
  160SAPE  C31217979   3.692   7.719   8.160  0.1967 -0.3146 -0.5411
  160SAPE  H12X17980   3.652   7.817   8.126 -0.9751 -0.4594  0.3963
  160SAPE  H12Y17981   3.772   7.683   8.092 -0.6459 -1.6769 -0.8246
  160SAPE  C31317982   3.734   7.710   8.310  0.4844 -0.6295  0.2333
  160SAPE  H13X17983   3.803   7.623   8.318  0.3037 -0.8198 -0.2464
  160SAPE  H13Y17984   3.640   7.693   8.366 -0.3100 -1.8504 -1.4259
  160SAPE  C31417985   3.800   7.845   8.357 -0.9516 -0.7838 -0.1809
  160SAPE  H14X17986   3.747   7.937   8.327 -1.1290 -0.8101  0.0487
  160SAPE  H14Y17987   3.898   7.847   8.304 -0.4469  1.3888  0.7938
  160SAPE  C31517988   3.820   7.850   8.504 -0.4391  0.3544  0.2002
  160SAPE  H15X17989   3.904   7.918   8.529 -0.0832  1.1132 -2.8883
  160SAPE  H15Y17990   3.848   7.749   8.542  2.1662  0.8975 -0.2159
  160SAPE  C31617991   3.684   7.886   8.575  0.9529  0.0511  0.2111
  160SAPE  H16X17992   3.605   7.833   8.518  0.0643  1.1368  0.4112
  160SAPE  H16Y17993   3.666   7.994   8.553  1.8827  0.4130  1.1633
  160SAPE  C31717994   3.668   7.848   8.717  0.0523  0.0252 -0.6355
  160SAPE  H17X17995   3.760   7.879   8.771 -0.1501 -0.0202 -0.2626
  160SAPE  H17Y17996   3.661   7.738   8.725  0.8981 -0.2242 -2.8823
  160SAPE  C31817997   3.544   7.897   8.782  0.1584  0.2691 -0.5322
  160SAPE  H18X17998   3.455   7.871   8.722  0.2462  2.0031 -1.4516
  160SAPE  H18Y17999   3.550   8.008   8.781  0.8112  0.2941  1.7472
  160SAPE  H18Z18000   3.540   7.869   8.890  0.1118  3.2286  0.3033
  161SAPE     N18001   6.582   5.875   6.366 -0.6246 -0.4705 -0.3339
  161SAPE   HN118002   6.496   5.890   6.422  0.4190 -1.0504  1.4624
  161SAPE   HN218003   6.638   5.802   6.415  2.9681  1.8703 -0.7413
  161SAPE   HN318004   6.643   5.959   6.355 -0.4348 -0.8187 -2.2163
  161SAPE   C1218005   6.537   5.825   6.234  0.1014 -0.6288  0.5439
  161SAPE  H12A18006   6.631   5.792   6.184  0.4434  1.1913 -0.0538
  161SAPE  H12B18007   6.488   5.909   6.180 -0.6160  0.0072  2.1527
  161SAPE   C1118008   6.444   5.707   6.251 -0.2657  0.8610  0.5423
  161SAPE  H11A18009   6.424   5.662   6.152 -0.0750 -1.2335  1.4264
  161SAPE  H11B18010   6.345   5.750   6.277 -0.9767 -1.2750  1.5117
  161SAPE     P18011   6.392   5.491   6.383 -0.3580  0.3001 -0.4700
  161SAPE   O1318012   6.277   5.479   6.288  0.2935  0.1520  0.1955
  161SAPE   O1418013   6.481   5.380   6.390 -0.6827  0.1491  0.4350
  161SAPE   O1218014   6.483   5.617   6.354  0.7411 -0.0154 -0.3796
  161SAPE   O1118015   6.327   5.509   6.524  0.2609  0.1007  0.1002
  161SAPE    C118016   6.386   5.585   6.626 -0.0391 -0.6102  0.0036
  161SAPE    HA18017   6.461   5.658   6.589  0.5550  0.0173  2.3853
  161SAPE    HB18018   6.309   5.651   6.670  0.9876  0.4957  0.1637
  161SAPE    C218019   6.439   5.495   6.736 -0.2215  1.3609 -1.0313
  161SAPE    HS18020   6.497   5.421   6.678  0.3031 -0.4191  1.6874
  161SAPE   O2118021   6.337   5.439   6.813  0.2936 -0.2109  0.4223
  161SAPE   C2118022   6.369   5.325   6.879 -0.3826  0.5573  0.0791
  161SAPE   O2218023   6.482   5.274   6.873  0.4402  0.7336  0.3939
  161SAPE   C2218024   6.245   5.287   6.958  0.4527 -0.3138 -0.1610
  161SAPE   H2R18025   6.239   5.356   7.044 -0.8661 -1.8846  1.0334
  161SAPE   H2S18026   6.153   5.302   6.898  0.4349 -0.3887 -0.1531
  161SAPE    C318027   6.544   5.568   6.832  0.1701 -0.0087 -0.4468
  161SAPE    HX18028   6.626   5.582   6.758  0.3758  0.0579 -0.2071
  161SAPE    HY18029   6.587   5.505   6.912  0.9676 -0.1567 -0.9900
  161SAPE   O3118030   6.505   5.710   6.871  0.1862  0.0400 -0.3602
  161SAPE   C3118031   6.470   5.724   6.995  0.0154 -0.7270  0.7786
  161SAPE   O3218032   6.475   5.638   7.082  0.4969 -0.3664 -0.1663
  161SAPE   C3218033   6.408   5.863   7.009 -0.1220  0.4259 -0.2352
  161SAPE   H2X18034   6.340   5.861   6.921 -1.1672 -1.3465  0.5787
  161SAPE   H2Y18035   6.491   5.936   6.997  0.0314  0.6996  2.3122
  161SAPE   C2318036   6.252   5.142   7.007  0.0871  0.5240 -0.5847
  161SAPE   H3R18037   6.314   5.078   6.940  1.4268  0.5722  0.5607
  161SAPE   H3S18038   6.153   5.092   7.014  0.2737  0.2234  0.0211
  161SAPE   C2418039   6.318   5.140   7.147 -0.4401  0.0231 -0.2904
  161SAPE   H4R18040   6.402   5.211   7.133  0.0359 -0.6809 -1.0671
  161SAPE   H4S18041   6.374   5.045   7.166 -1.1900 -0.7471 -1.8324
  161SAPE   C2518042   6.236   5.168   7.272  0.1533 -0.3072 -0.6109
  161SAPE   H5R18043   6.145   5.106   7.283 -1.2005  1.8793  1.1324
  161SAPE   C2618044   6.262   5.257   7.366 -0.7105  0.6443 -0.3560
  161SAPE   H6R18045   6.193   5.266   7.451 -0.4167  0.5836 -0.1054
  161SAPE   C2718046   6.383   5.347   7.378 -1.0340 -0.6740 -0.4898
  161SAPE   H7R18047   6.451   5.347   7.290  0.7292  1.8627  0.7962
  161SAPE   H7S18048   6.453   5.316   7.459  0.6884  0.6157 -1.4292
  161SAPE   C2818049   6.363   5.493   7.411 -0.2578  0.7001 -0.3786
  161SAPE   H8R18050   6.360   5.564   7.328 -3.4970 -0.1402 -1.0242
  161SAPE   C2918051   6.336   5.536   7.540  0.2328 -0.2225  0.6579
  161SAPE   H9R18052   6.286   5.634   7.542  0.4880 -0.1165  1.8762
  161SAPE  C21018053   6.322   5.445   7.656  0.4141  0.2297 -0.2188
  161SAPE  H10R18054   6.404   5.370   7.662  1.4439  1.0734 -3.0298
  161SAPE  H10S18055   6.233   5.383   7.632  0.9959  0.0453 -1.9692
  161SAPE  C21118056   6.315   5.524   7.789 -0.3211 -0.0053  0.3512
  161SAPE  H11R18057   6.372   5.618   7.799  1.1273 -0.8656  0.3421
  161SAPE  C21218058   6.261   5.477   7.901 -0.0985 -0.2394 -0.3413
  161SAPE  H12R18059   6.255   5.541   7.990  0.4310 -0.6145 -0.0338
  161SAPE  C21318060   6.206   5.340   7.920 -0.2123  0.1164 -0.3982
  161SAPE  H13R18061   6.157   5.305   7.827 -0.2905 -0.8332 -0.0079
  161SAPE  H13S18062   6.121   5.350   7.991  0.3450 -2.7747  0.7638
  161SAPE  C21418063   6.310   5.235   7.959 -0.0490 -0.6921 -0.1724
  161SAPE  H14R18064   6.408   5.261   7.917  0.1295  0.9498  1.2170
  161SAPE  C21518065   6.292   5.137   8.052  0.0169 -0.2493 -0.4079
  161SAPE  H15R18066   6.372   5.069   8.082 -0.2743 -0.0282  0.8808
  161SAPE  C21618067   6.167   5.110   8.129 -0.0345 -0.7602 -0.6294
  161SAPE  H16R18068   6.142   5.002   8.117  2.0180 -1.4417  0.9102
  161SAPE  H16S18069   6.085   5.179   8.101  0.7373  0.3700 -0.1399
  161SAPE  C21718070   6.176   5.141   8.276  0.0229  0.1629 -0.5769
  161SAPE  H17R18071   6.258   5.080   8.321 -1.6431 -1.1884  0.7252
  161SAPE  H17S18072   6.083   5.102   8.323  0.0743  1.2392  0.4359
  161SAPE  C21818073   6.208   5.288   8.305 -0.9072  0.7507 -0.1407
  161SAPE  H18R18074   6.145   5.368   8.260  0.4990  1.7550 -0.3380
  161SAPE  H18S18075   6.315   5.303   8.280 -0.8396 -0.6474 -0.7868
  161SAPE  C21918076   6.189   5.314   8.454 -1.3246 -0.4746  1.1209
  161SAPE  H19R18077   6.232   5.414   8.476  0.3310 -1.0272  0.5062
  161SAPE  H19S18078   6.262   5.249   8.507 -2.3893 -1.9143  0.8650
  161SAPE  C22018079   6.052   5.311   8.508  0.4611 -0.1742  0.2292
  161SAPE  H20R18080   6.036   5.359   8.606  1.7082 -2.7109  1.7157
  161SAPE  H20S18081   6.013   5.206   8.508  0.3055 -0.1280 -0.8444
  161SAPE  H20T18082   5.992   5.378   8.442  0.4727 -0.3607  0.0270
  161SAPE   C3318083   6.348   5.898   7.140 -0.1948 -0.1902  0.0171
  161SAPE   H3X18084   6.274   5.823   7.176 -1.5504  0.8887 -0.4811
  161SAPE   H3Y18085   6.288   5.991   7.139  0.7934  0.4682  0.4414
  161SAPE   C3418086   6.449   5.932   7.252  0.0333  0.0683 -0.0682
  161SAPE   H4X18087   6.460   6.041   7.235  0.0140 -0.2419 -2.2218
  161SAPE   H4Y18088   6.546   5.883   7.229 -1.1444 -2.2648 -0.2341
  161SAPE   C3518089   6.403   5.904   7.396 -0.0617 -0.3943 -0.2211
  161SAPE   H5X18090   6.387   5.796   7.416 -1.0271 -0.7997 -3.0417
  161SAPE   H5Y18091   6.306   5.954   7.418 -0.4908 -1.2509 -0.1650
  161SAPE   C3618092   6.497   5.954   7.513  0.0524  0.5858 -0.8696
  161SAPE   H6X18093   6.503   6.065   7.513  0.7576  0.5793  1.4214
  161SAPE   H6Y18094   6.596   5.905   7.505  0.0063 -0.1535  2.2973
  161SAPE   C3718095   6.446   5.918   7.657 -0.3220 -0.1363  0.0060
  161SAPE   H7X18096   6.450   5.809   7.676  0.9608 -0.1419 -0.2559
  161SAPE   H7Y18097   6.341   5.948   7.679 -0.0116  0.1841  1.0882
  161SAPE   C3818098   6.532   5.977   7.772  0.1331 -0.2042 -0.0185
  161SAPE   H8X18099   6.520   6.087   7.777  0.4206 -0.1416 -0.5886
  161SAPE   H8Y18100   6.640   5.960   7.750  0.2366  0.0078  0.3200
  161SAPE   C3918101   6.480   5.926   7.912  0.3892 -0.0556 -0.2083
  161SAPE   H9X18102   6.523   5.829   7.946 -0.7739 -0.2451  0.7420
  161SAPE   H9Y18103   6.370   5.910   7.917  0.1228  1.4074 -1.1432
  161SAPE  C31018104   6.520   6.028   8.017  0.1829 -0.1576  0.0539
  161SAPE  H10X18105   6.461   6.122   8.009 -0.0058 -0.2578  0.2889
  161SAPE  H10Y18106   6.629   6.051   8.013  0.1569  0.1266  0.8236
  161SAPE  C31118107   6.485   5.974   8.156  0.8052  0.1341 -0.3611
  161SAPE  H11X18108   6.527   5.875   8.182 -2.1789 -0.4927  2.4682
  161SAPE  H11Y18109   6.374   5.964   8.164  0.8734 -0.0226  0.4707
  161SAPE  C31218110   6.536   6.070   8.268  0.4143  0.6682  0.3543
  161SAPE  H12X18111   6.486   6.169   8.277 -0.8955  0.0078  0.5135
  161SAPE  H12Y18112   6.645   6.088   8.260  0.3781  0.7053 -0.0310
  161SAPE  C31318113   6.506   6.005   8.409 -0.2294  0.2718 -0.0269
  161SAPE  H13X18114   6.556   5.906   8.399 -2.2240 -0.8787  1.3247
  161SAPE  H13Y18115   6.396   5.997   8.422 -0.3088  1.6951  0.2394
  161SAPE  C31418116   6.563   6.081   8.532  0.9296 -0.4097  0.3935
  161SAPE  H14X18117   6.508   6.177   8.539 -0.1861 -1.1099  1.3884
  161SAPE  H14Y18118   6.671   6.108   8.528  0.9637 -0.5140  0.5774
  161SAPE  C31518119   6.525   6.022   8.667 -0.9447 -0.0300 -0.1274
  161SAPE  H15X18120   6.535   6.095   8.750 -0.8236 -2.6943  2.2994
  161SAPE  H15Y18121   6.599   5.942   8.687 -2.4267 -1.8171 -1.5754
  161SAPE  C31618122   6.388   5.963   8.673 -0.7142 -0.7241 -0.4628
  161SAPE  H16X18123   6.366   5.882   8.601  0.6063 -0.0991 -1.5793
  161SAPE  H16Y18124   6.310   6.043   8.664  1.9000  1.9274 -0.4086
  161SAPE  C31718125   6.367   5.896   8.811 -0.6441  0.3647 -0.7676
  161SAPE  H17X18126   6.462   5.845   8.839 -0.6124  0.5985 -0.4427
  161SAPE  H17Y18127   6.303   5.805   8.809  1.7642 -1.5917  3.8940
  161SAPE  C31818128   6.322   5.998   8.921  0.2767 -0.3831 -0.2644
  161SAPE  H18X18129   6.302   5.950   9.020  1.9424  0.6955  0.6162
  161SAPE  H18Y18130   6.238   6.056   8.878 -0.8215 -1.5359  0.2678
  161SAPE  H18Z18131   6.405   6.071   8.933  0.1627 -0.0764 -1.3399
  162SAPE     N18132   4.622   0.975   5.896 -0.2141 -0.2014 -0.4545
  162SAPE   HN118133   4.658   0.887   5.856 -0.1101 -0.4518  0.1870
  162SAPE   HN218134   4.544   1.019   5.842 -0.7753 -0.7843 -0.1171
  162SAPE   HN318135   4.697   1.047   5.893 -2.2526  1.9277 -1.8739
  162SAPE   C1218136   4.577   0.956   6.044  0.5090  0.2682  0.5857
  162SAPE  H12A18137   4.668   0.951   6.109  0.7491 -1.6366  0.1108
  162SAPE  H12B18138   4.526   0.858   6.038  1.9843 -0.4482 -0.3876
  162SAPE   C1118139   4.483   1.066   6.088  0.8205  0.8426  0.3975
  162SAPE  H11A18140   4.548   1.155   6.096  1.5109  0.1660  3.0363
  162SAPE  H11B18141   4.452   1.031   6.189 -2.3318  2.5044  0.0693
  162SAPE     P18142   4.232   1.012   6.005  0.6181  0.5776  0.1813
  162SAPE   O1318143   4.153   1.033   5.879 -0.8247  0.2249  0.4734
  162SAPE   O1418144   4.247   0.877   6.066  0.4656  0.1890 -0.0540
  162SAPE   O1218145   4.377   1.076   5.996 -0.1836 -0.5014  0.1052
  162SAPE   O1118146   4.156   1.102   6.114  0.5686 -0.2319 -0.2152
  162SAPE    C118147   4.124   1.238   6.098 -0.0604  0.0730 -0.2291
  162SAPE    HA18148   4.110   1.274   5.994  1.6084  1.2589 -0.0585
  162SAPE    HB18149   4.025   1.256   6.147  1.2304  2.8149  1.4757
  162SAPE    C218150   4.228   1.332   6.171  0.0090 -0.5930 -0.5062
  162SAPE    HS18151   4.325   1.323   6.117  0.9365  3.1364  0.3951
  162SAPE   O2118152   4.238   1.291   6.311  0.2977 -0.5744 -0.2802
  162SAPE   C2118153   4.361   1.292   6.362  0.6873  0.1991 -0.8124
  162SAPE   O2218154   4.469   1.302   6.306  0.0632 -0.0305  0.2239
  162SAPE   C2218155   4.351   1.275   6.514 -0.0842 -0.6639  0.2653
  162SAPE   H2R18156   4.280   1.349   6.556  2.6632  2.5689 -0.6591
  162SAPE   H2S18157   4.315   1.170   6.525  0.5723 -0.8855  0.3282
  162SAPE    C318158   4.193   1.481   6.162 -0.2511 -0.5208 -0.7840
  162SAPE    HX18159   4.085   1.492   6.187 -0.3815 -1.8467 -0.7351
  162SAPE    HY18160   4.208   1.513   6.056 -1.1324  2.4151 -0.0831
  162SAPE   O3118161   4.282   1.564   6.244 -0.5752 -0.0263  0.3590
  162SAPE   C3118162   4.221   1.635   6.347  0.1157  0.4843  0.9804
  162SAPE   O3218163   4.104   1.633   6.381  0.0577  0.2084 -0.4205
  162SAPE   C3218164   4.328   1.724   6.414  0.3938 -0.0964  0.3080
  162SAPE   H2X18165   4.282   1.825   6.414 -2.9665 -1.5395 -1.6369
  162SAPE   H2Y18166   4.413   1.742   6.344  0.8682 -1.5259  0.5012
  162SAPE   C2318167   4.491   1.283   6.578  0.9084 -0.4993 -0.7890
  162SAPE   H3R18168   4.544   1.379   6.563  0.8856 -0.4901 -0.8090
  162SAPE   H3S18169   4.561   1.217   6.523  2.5571  1.6186 -1.3147
  162SAPE   C2418170   4.485   1.250   6.726  0.3119  0.7066  0.5590
  162SAPE   H4R18171   4.416   1.163   6.728 -0.6339  1.4359  0.3223
  162SAPE   H4S18172   4.425   1.327   6.778  1.3406  0.2672  2.4274
  162SAPE   C2518173   4.616   1.213   6.787  0.3959 -0.4523  0.0844
  162SAPE   H5R18174   4.661   1.123   6.742 -3.0434 -2.0525 -0.3632
  162SAPE   C2618175   4.671   1.265   6.896  0.3122 -0.0358 -0.1912
  162SAPE   H6R18176   4.767   1.224   6.930  0.1865 -0.0533  0.1436
  162SAPE   C2718177   4.615   1.378   6.978  0.8668  0.1283 -0.2444
  162SAPE   H7R18178   4.543   1.451   6.935  0.1375  0.9062  2.1992
  162SAPE   H7S18179   4.694   1.447   7.014 -0.0944  1.1480 -0.0434
  162SAPE   C2818180   4.543   1.320   7.101  0.1453  0.2946 -0.0708
  162SAPE   H8R18181   4.454   1.263   7.071 -1.0888  0.9878  2.1783
  162SAPE   C2918182   4.574   1.344   7.229  0.3266  0.1075 -0.4931
  162SAPE   H9R18183   4.502   1.311   7.306 -0.7454  3.3410 -0.0479
  162SAPE  C21018184   4.699   1.405   7.292  0.4949 -0.7400  0.1367
  162SAPE  H10R18185   4.681   1.513   7.307  2.0795 -0.8360  3.2075
  162SAPE  H10S18186   4.770   1.399   7.208  0.6557 -1.6243  0.3260
  162SAPE  C21118187   4.756   1.343   7.413 -0.0766  0.0719 -0.0809
  162SAPE  H11R18188   4.834   1.266   7.400  0.8031  1.0426 -0.6361
  162SAPE  C21218189   4.719   1.370   7.539 -0.6984 -0.1229  0.1191
  162SAPE  H12R18190   4.770   1.326   7.626 -1.3957 -0.8649  0.1540
  162SAPE  C21318191   4.620   1.481   7.570 -0.1689  0.4147  0.2748
  162SAPE  H13R18192   4.532   1.441   7.625  1.5199 -0.3613  2.5046
  162SAPE  H13S18193   4.568   1.522   7.481  2.8636 -0.1910 -1.8239
  162SAPE  C21418194   4.691   1.591   7.644  0.4386 -0.4055  0.4131
  162SAPE  H14R18195   4.774   1.643   7.594  0.6405 -0.2929  0.8668
  162SAPE  C21518196   4.670   1.625   7.771  0.2894 -0.1050 -0.1649
  162SAPE  H15R18197   4.734   1.707   7.807  0.9928  0.2520 -2.1465
  162SAPE  C21618198   4.568   1.566   7.865  1.1799  0.3847  0.1555
  162SAPE  H16R18199   4.611   1.503   7.945  1.0626  0.1295  0.0151
  162SAPE  H16S18200   4.486   1.513   7.811  2.1007 -0.7196 -0.1689
  162SAPE  C21718201   4.495   1.690   7.926 -0.7119  0.4577  0.6672
  162SAPE  H17R18202   4.409   1.647   7.982 -0.2938 -1.6442 -0.2459
  162SAPE  H17S18203   4.450   1.758   7.852  0.6048 -0.7881 -1.3445
  162SAPE  C21818204   4.587   1.766   8.026 -0.1653 -0.4429 -0.0937
  162SAPE  H18R18205   4.660   1.838   7.982  1.6359 -1.8189  0.5615
  162SAPE  H18S18206   4.659   1.697   8.077 -1.9425 -1.1156  1.5522
  162SAPE  C21918207   4.508   1.843   8.135 -0.7424 -0.4533 -0.3188
  162SAPE  H19R18208   4.455   1.775   8.205 -1.6545  0.3875 -0.1869
  162SAPE  H19S18209   4.419   1.886   8.085 -1.6510 -0.9405  0.8899
  162SAPE  C22018210   4.589   1.958   8.195 -0.1198  0.0599  0.5094
  162SAPE  H20R18211   4.535   2.034   8.255  0.6715  1.8724 -1.0248
  162SAPE  H20S18212   4.633   2.012   8.108 -0.5044 -2.4780 -1.3160
  162SAPE  H20T18213   4.677   1.925   8.254 -0.8073 -2.1499  0.3512
  162SAPE   C3318214   4.383   1.677   6.545  0.3760 -0.6284 -0.2713
  162SAPE   H3X18215   4.467   1.743   6.573 -0.6967  0.6220  0.0296
  162SAPE   H3Y18216   4.413   1.571   6.528  1.1399 -1.1810  3.8205
  162SAPE   C3418217   4.278   1.665   6.653  0.1485  0.5198 -0.7039
  162SAPE   H4X18218   4.202   1.586   6.634  1.1037 -0.2764 -1.2641
  162SAPE   H4Y18219   4.217   1.758   6.650 -1.2616 -0.3794 -0.8533
  162SAPE   C3518220   4.341   1.658   6.791  0.3335  0.0377  0.0899
  162SAPE   H5X18221   4.412   1.744   6.800  0.0027  0.2524  0.6402
  162SAPE   H5Y18222   4.413   1.574   6.797 -1.4830 -1.5688 -0.2142
  162SAPE   C3618223   4.222   1.648   6.897  0.4547 -0.1787  0.7794
  162SAPE   H6X18224   4.154   1.561   6.885 -0.5656  0.9703 -2.2105
  162SAPE   H6Y18225   4.164   1.743   6.905 -0.8343 -0.8515 -0.4436
  162SAPE   C3718226   4.267   1.633   7.040 -0.4372 -0.2172 -0.6377
  162SAPE   H7X18227   4.350   1.705   7.055 -0.3721 -0.4782  0.2792
  162SAPE   H7Y18228   4.322   1.539   7.061  3.2058  2.0935  0.5981
  162SAPE   C3818229   4.150   1.646   7.142 -0.6220 -0.9269 -0.6749
  162SAPE   H8X18230   4.072   1.575   7.111  1.1530 -3.0588 -0.3600
  162SAPE   H8Y18231   4.110   1.750   7.139  2.3807  0.2725 -1.1268
  162SAPE   C3918232   4.197   1.626   7.285 -0.0134 -0.0960 -0.1659
  162SAPE   H9X18233   4.261   1.715   7.302 -0.8451  0.7039 -1.1500
  162SAPE   H9Y18234   4.259   1.535   7.297 -0.1805 -0.0677  0.9493
  162SAPE  C31018235   4.085   1.632   7.391  0.4426  0.2698 -0.2651
  162SAPE  H10X18236   4.010   1.558   7.357  2.0490 -1.5189  0.0054
  162SAPE  H10Y18237   4.041   1.733   7.404 -0.8837 -0.4191  0.7223
  162SAPE  C31118238   4.143   1.602   7.526  0.6281  0.1668 -1.0037
  162SAPE  H11X18239   4.227   1.671   7.547  0.2903  0.7259 -1.4862
  162SAPE  H11Y18240   4.178   1.496   7.530 -1.2607 -0.5161 -1.7998
  162SAPE  C31218241   4.035   1.625   7.636 -0.4983 -0.0375  0.0590
  162SAPE  H12X18242   3.950   1.560   7.607  0.9676 -1.0855 -2.0115
  162SAPE  H12Y18243   3.999   1.730   7.647 -0.2093  0.2777 -1.7266
  162SAPE  C31318244   4.087   1.596   7.779 -0.4199 -0.6740  1.0520
  162SAPE  H13X18245   4.180   1.654   7.796  0.7103 -1.6100 -1.5866
  162SAPE  H13Y18246   4.115   1.489   7.794 -0.0010 -0.4726  1.7447
  162SAPE  C31418247   4.001   1.661   7.884 -0.2407 -0.7932 -0.3271
  162SAPE  H14X18248   3.940   1.587   7.940  0.0272  1.2168  2.6967
  162SAPE  H14Y18249   3.937   1.734   7.830  0.2121 -0.4568 -0.4169
  162SAPE  C31518250   4.078   1.738   7.994  0.0019 -0.5474  0.3142
  162SAPE  H15X18251   4.008   1.805   8.048  0.7338  0.9455 -0.5537
  162SAPE  H15Y18252   4.147   1.815   7.952 -1.8601  1.5199  0.9635
  162SAPE  C31618253   4.150   1.643   8.090  0.7934  0.1273  0.0683
  162SAPE  H16X18254   4.219   1.705   8.151 -0.1512  2.2294 -0.9356
  162SAPE  H16Y18255   4.207   1.567   8.033 -0.1752 -0.4070 -0.2033
  162SAPE  C31718256   4.062   1.569   8.199  0.0277 -0.2156  0.4920
  162SAPE  H17X18257   4.005   1.482   8.159  1.5646 -1.6780  1.4184
  162SAPE  H17Y18258   3.988   1.643   8.238 -0.4575  0.0867 -0.9678
  162SAPE  C31818259   4.150   1.510   8.308 -0.8495 -0.1970  0.4379
  162SAPE  H18X18260   4.212   1.589   8.355 -0.3639  1.1233 -2.2807
  162SAPE  H18Y18261   4.214   1.427   8.271 -1.6331  0.6138 -2.9007
  162SAPE  H18Z18262   4.099   1.452   8.387  0.6619  1.0329  2.3769
  163SAPE     N18263   3.260   6.725   6.500  0.3489 -0.1775 -0.0403
  163SAPE   HN118264   3.187   6.667   6.454 -1.3175  1.1684  0.8813
  163SAPE   HN218265   3.236   6.713   6.600 -2.9988  2.8619 -0.3966
  163SAPE   HN318266   3.231   6.823   6.483 -2.5943 -1.1629 -0.9687
  163SAPE   C1218267   3.394   6.675   6.459 -0.1437 -0.4335 -0.1244
  163SAPE  H12A18268   3.469   6.737   6.513  1.0262 -0.9853 -1.0674
  163SAPE  H12B18269   3.400   6.696   6.350 -1.3646  0.8844  0.0551
  163SAPE   C1118270   3.419   6.527   6.499  0.8650 -0.3023  0.9705
  163SAPE  H11A18271   3.507   6.486   6.445  0.5115  0.3275 -0.1127
  163SAPE  H11B18272   3.332   6.468   6.463  0.4496 -0.1649  1.7401
  163SAPE     P18273   3.542   6.440   6.711  0.0630 -0.0483 -0.4395
  163SAPE   O1318274   3.529   6.293   6.702 -0.2053  0.3277 -0.2004
  163SAPE   O1418275   3.666   6.510   6.658 -0.5374 -0.2768  0.7291
  163SAPE   O1218276   3.427   6.510   6.637  0.1599 -0.4208 -0.3406
  163SAPE   O1118277   3.525   6.487   6.856  0.1916  0.2049 -0.2135
  163SAPE    C118278   3.452   6.438   6.964 -0.0701  0.1315 -0.0770
  163SAPE    HA18279   3.403   6.513   7.029 -0.8111  0.6038 -1.1690
  163SAPE    HB18280   3.358   6.393   6.925 -0.9835  0.4120  1.7516
  163SAPE    C218281   3.529   6.335   7.049 -0.3100 -0.2899  0.2174
  163SAPE    HS18282   3.466   6.317   7.138  0.3966  2.2750  1.2935
  163SAPE   O2118283   3.660   6.383   7.085  0.9704 -0.3259  0.5561
  163SAPE   C2118284   3.659   6.487   7.166 -0.0851 -0.0669  0.1808
  163SAPE   O2218285   3.565   6.544   7.212  0.6195 -0.1211  1.0062
  163SAPE   C2218286   3.802   6.522   7.206 -0.3312  0.0800 -0.1366
  163SAPE   H2R18287   3.849   6.426   7.237  1.0979  0.1125 -2.0644
  163SAPE   H2S18288   3.855   6.561   7.116  3.1755 -0.5952  1.5301
  163SAPE    C318289   3.556   6.199   6.986 -0.2170  0.4435 -0.1023
  163SAPE    HX18290   3.635   6.199   6.908 -0.8689  0.5356 -0.7622
  163SAPE    HY18291   3.469   6.175   6.922  0.1014 -0.4275 -0.2200
  163SAPE   O3118292   3.581   6.107   7.091 -0.4734 -0.1088  0.3064
  163SAPE   C3118293   3.704   6.087   7.128  0.6758 -0.3784  0.6247
  163SAPE   O3218294   3.807   6.133   7.081  0.8820  0.0965 -0.0692
  163SAPE   C3218295   3.698   5.991   7.245 -0.4111 -0.8144 -0.2022
  163SAPE   H2X18296   3.775   5.912   7.235  0.6769 -0.3270  3.3381
  163SAPE   H2Y18297   3.602   5.937   7.245 -1.4427  0.9712  0.3664
  163SAPE   C2318298   3.825   6.631   7.317  0.2214 -0.6067  0.0372
  163SAPE   H3R18299   3.782   6.595   7.413  1.0234 -1.2621  0.1537
  163SAPE   H3S18300   3.765   6.718   7.283 -0.9553 -1.1501  0.7077
  163SAPE   C2418301   3.968   6.681   7.315  0.6497 -0.0763  0.3131
  163SAPE   H4R18302   3.974   6.787   7.346  1.2870  0.3804 -1.3240
  163SAPE   H4S18303   4.003   6.688   7.210  0.9559  1.0437  0.4849
  163SAPE   C2518304   4.053   6.602   7.407 -0.0945 -0.2401  0.0664
  163SAPE   H5R18305   4.112   6.528   7.351  1.6737  0.1838  1.3268
  163SAPE   C2618306   4.073   6.622   7.539 -0.1677  1.2011  0.7646
  163SAPE   H6R18307   4.148   6.564   7.593  1.0399  2.8157  0.8703
  163SAPE   C2718308   4.003   6.728   7.624 -0.0790  0.0653 -0.0687
  163SAPE   H7R18309   3.945   6.803   7.566  0.8354  0.7031 -0.1666
  163SAPE   H7S18310   4.081   6.787   7.677  0.9061 -0.3134 -1.0625
  163SAPE   C2818311   3.915   6.662   7.727  0.7729  0.7371 -0.1073
  163SAPE   H8R18312   3.821   6.637   7.677  1.6234  3.0628 -2.9969
  163SAPE   C2918313   3.951   6.618   7.848 -0.4323  0.0375  0.0816
  163SAPE   H9R18314   3.874   6.584   7.918 -0.6991 -2.1093 -1.2005
  163SAPE  C21018315   4.090   6.646   7.909  0.3997  0.3921 -0.2233
  163SAPE  H10R18316   4.097   6.756   7.926 -1.7255  0.2491  1.8711
  163SAPE  H10S18317   4.165   6.625   7.830  0.5550 -1.7846  0.4669
  163SAPE  C21118318   4.118   6.567   8.032  0.4329 -0.5986 -0.8143
  163SAPE  H11R18319   4.181   6.480   8.010 -0.8961 -1.0219 -3.1382
  163SAPE  C21218320   4.070   6.603   8.150  0.0040  0.1582  0.0565
  163SAPE  H12R18321   4.070   6.528   8.231  1.2836  3.0735  2.8501
  163SAPE  C21318322   3.980   6.724   8.175  0.6736  0.3216  0.3527
  163SAPE  H13R18323   3.894   6.720   8.105 -1.2477 -2.4428  2.7678
  163SAPE  H13S18324   4.029   6.823   8.165  0.3366  0.3170 -1.5120
  163SAPE  C21418325   3.941   6.709   8.319 -0.7965  0.2123 -0.6214
  163SAPE  H14R18326   3.873   6.623   8.323  0.8900 -1.0858  1.5625
  163SAPE  C21518327   3.964   6.785   8.432  0.1693 -0.6561 -0.0668
  163SAPE  H15R18328   3.929   6.750   8.530 -0.7905  1.1309  0.2518
  163SAPE  C21618329   4.046   6.911   8.431  0.8917 -0.2416  0.7159
  163SAPE  H16R18330   3.974   6.991   8.402  0.4669 -1.2419 -1.1384
  163SAPE  H16S18331   4.131   6.904   8.360  1.2851  0.3682  1.1325
  163SAPE  C21718332   4.106   6.935   8.568 -0.3659 -0.0076 -0.0156
  163SAPE  H17R18333   4.147   6.843   8.616 -2.1241 -1.4244 -1.1603
  163SAPE  H17S18334   4.035   6.973   8.644 -0.2023  0.1664  0.0500
  163SAPE  C21818335   4.221   7.041   8.562 -0.5149  0.5151  0.3430
  163SAPE  H18R18336   4.184   7.129   8.506  0.4793  0.8921  0.2548
  163SAPE  H18S18337   4.304   7.006   8.496 -1.3125  1.1399 -1.0040
  163SAPE  C21918338   4.270   7.079   8.699 -1.5301  0.7828  0.3709
  163SAPE  H19R18339   4.236   6.999   8.769 -2.0515 -0.4117 -1.2031
  163SAPE  H19S18340   4.227   7.174   8.735  0.3401  1.4025  0.9869
  163SAPE  C22018341   4.418   7.111   8.704 -0.4730 -0.6294 -0.7774
  163SAPE  H20R18342   4.452   7.116   8.810 -0.6729 -0.5639 -0.7156
  163SAPE  H20S18343   4.459   7.196   8.646  1.5348  0.4046  2.0699
  163SAPE  H20T18344   4.477   7.022   8.674  1.6507  1.1466 -2.0232
  163SAPE   C3318345   3.724   6.051   7.387 -0.3998 -0.1141 -0.3022
  163SAPE   H3X18346   3.812   6.117   7.395  0.3225 -1.2918  1.9933
  163SAPE   H3Y18347   3.741   5.964   7.455 -0.6996  0.3652  0.3860
  163SAPE   C3418348   3.611   6.131   7.444 -0.0063 -0.6250  0.2401
  163SAPE   H4X18349   3.518   6.076   7.418 -1.2433  1.7785 -0.6276
  163SAPE   H4Y18350   3.603   6.236   7.407  1.4718 -0.5420  0.1400
  163SAPE   C3518351   3.624   6.162   7.599 -0.3837  0.1780  0.2133
  163SAPE   H5X18352   3.672   6.072   7.644 -0.5803 -0.1125 -0.1534
  163SAPE   H5Y18353   3.523   6.169   7.645 -1.2113 -0.4898 -1.4629
  163SAPE   C3618354   3.717   6.275   7.634  0.1996  0.7709  0.0693
  163SAPE   H6X18355   3.700   6.364   7.568  0.7878  1.2393  0.5395
  163SAPE   H6Y18356   3.825   6.251   7.624  0.1657  0.0012  1.4590
  163SAPE   C3718357   3.698   6.339   7.778  0.1797  0.0701  0.0729
  163SAPE   H7X18358   3.620   6.418   7.776  1.0540  0.9188 -2.2471
  163SAPE   H7Y18359   3.785   6.403   7.804 -2.6436  3.1710  2.3386
  163SAPE   C3818360   3.680   6.236   7.885 -0.1810 -0.4729 -0.5216
  163SAPE   H8X18361   3.765   6.166   7.872 -0.0477 -0.2156 -1.0127
  163SAPE   H8Y18362   3.594   6.165   7.877  1.2315 -2.3125  0.1702
  163SAPE   C3918363   3.689   6.286   8.028  0.0460  0.3635  0.5638
  163SAPE   H9X18364   3.609   6.361   8.049 -0.2650  0.0269  0.5743
  163SAPE   H9Y18365   3.789   6.333   8.036 -0.3051  1.5755 -1.6826
  163SAPE  C31018366   3.680   6.181   8.143  0.3920  0.4879  0.3443
  163SAPE  H10X18367   3.682   6.234   8.241 -0.7008  1.8834 -0.3794
  163SAPE  H10Y18368   3.774   6.122   8.140  0.6272  0.9215 -1.4248
  163SAPE  C31118369   3.556   6.096   8.130 -0.0879  0.2080  0.1413
  163SAPE  H11X18370   3.583   6.003   8.075  0.8641  0.9580 -0.6798
  163SAPE  H11Y18371   3.478   6.156   8.078 -2.0709 -3.2370 -1.0617
  163SAPE  C31218372   3.489   6.076   8.265 -0.1311 -0.6750 -0.3913
  163SAPE  H12X18373   3.482   6.176   8.313  2.7387 -0.4525 -0.3618
  163SAPE  H12Y18374   3.552   6.025   8.341  0.1326 -1.8062 -1.3695
  163SAPE  C31318375   3.346   6.022   8.258  0.4762 -0.6438 -0.1232
  163SAPE  H13X18376   3.353   5.915   8.231 -1.6203 -0.5561 -1.1527
  163SAPE  H13Y18377   3.286   6.072   8.178  0.8859  1.1858  0.6793
  163SAPE  C31418378   3.259   6.054   8.380 -0.0178 -0.6743 -0.0524
  163SAPE  H14X18379   3.276   6.158   8.414  1.4132 -0.7873 -0.3461
  163SAPE  H14Y18380   3.292   5.990   8.464 -0.9869 -2.0063 -0.6742
  163SAPE  C31518381   3.116   6.038   8.345 -0.1293  0.2057 -0.2087
  163SAPE  H15X18382   3.090   5.937   8.308  0.6641  0.3032 -1.0580
  163SAPE  H15Y18383   3.103   6.108   8.259 -0.1729 -0.5592 -0.8360
  163SAPE  C31618384   3.005   6.083   8.444  0.8483  0.3136  0.0872
  163SAPE  H16X18385   2.907   6.080   8.392  1.5476 -0.6864 -1.2192
  163SAPE  H16Y18386   3.039   6.182   8.479 -0.7373  0.1301  2.2130
  163SAPE  C31718387   2.996   5.984   8.563 -0.8617  0.2196  0.5408
  163SAPE  H17X18388   3.078   6.011   8.633  1.0248 -2.0089 -0.6995
  163SAPE  H17Y18389   3.009   5.877   8.536  0.2917  0.4811  0.0329
  163SAPE  C31818390   2.866   5.995   8.645 -0.1257  0.5229  0.6701
  163SAPE  H18X18391   2.873   5.935   8.738  2.9586  2.8747  2.0634
  163SAPE  H18Y18392   2.772   5.964   8.596  0.3814 -0.0236  0.0306
  163SAPE  H18Z18393   2.860   6.104   8.669  1.3960  1.1099 -1.3866
  164SAPE     N18394   0.242   3.897   6.042  0.0506  0.4689 -0.3717
  164SAPE   HN118395   0.307   3.883   6.122 -0.2931  3.3382  0.4605
  164SAPE   HN218396   0.283   3.836   5.969  0.3574 -0.5237  0.6227
  164SAPE   HN318397   0.250   3.998   6.017 -0.5121  0.3120 -1.2044
  164SAPE   C1218398   0.097   3.858   6.072 -0.6278 -0.1060 -0.5711
  164SAPE  H12A18399   0.037   3.874   5.980  1.4041 -0.3509 -1.9824
  164SAPE  H12B18400   0.070   3.928   6.154 -0.6102  1.1210 -1.5933
  164SAPE   C1118401   0.090   3.715   6.119  0.6974 -0.1224 -0.2192
  164SAPE  H11A18402  -0.014   3.711   6.159  0.1630  0.4043 -1.5211
  164SAPE  H11B18403   0.156   3.692   6.205 -0.3730  0.1567  0.6983
  164SAPE     P18404   0.048   3.481   6.006  0.1231 -0.3058 -0.1272
  164SAPE   O1318405  -0.078   3.493   5.932  0.1781  0.4259  0.2707
  164SAPE   O1418406   0.147   3.383   5.956 -0.1897  0.0907  0.2540
  164SAPE   O1218407   0.113   3.625   6.011 -0.3404  0.6053 -0.0631
  164SAPE   O1118408   0.014   3.455   6.158  0.4557  0.2127  0.4344
  164SAPE    C118409   0.108   3.436   6.261 -0.6120  0.1811 -0.3977
  164SAPE    HA18410   0.200   3.389   6.221 -0.7989 -1.0260  0.5518
  164SAPE    HB18411   0.122   3.530   6.319 -1.3601  0.5871 -0.8695
  164SAPE    C218412   0.055   3.336   6.373 -0.4848 -0.6604 -0.3337
  164SAPE    HS18413  -0.029   3.385   6.427 -3.0311 -3.3458 -1.6958
  164SAPE   O2118414   0.166   3.292   6.449  0.1144  0.0551  0.0493
  164SAPE   C2118415   0.206   3.374   6.541  0.2472  0.2303 -0.0648
  164SAPE   O2218416   0.160   3.484   6.564 -0.1598  0.5406  0.1403
  164SAPE   C2218417   0.320   3.301   6.624 -0.7991  0.1932  0.1451
  164SAPE   H2R18418   0.328   3.199   6.581 -0.5673 -0.4076  1.5778
  164SAPE   H2S18419   0.422   3.342   6.612 -0.8838  0.7421  1.2190
  164SAPE    C318420  -0.021   3.212   6.312  0.0767  0.4427  0.4636
  164SAPE    HX18421   0.046   3.159   6.240 -0.7179 -0.9286  0.7155
  164SAPE    HY18422  -0.105   3.238   6.245  0.1216  1.2901  0.7354
  164SAPE   O3118423  -0.068   3.116   6.411 -0.0126 -0.0168  0.2160
  164SAPE   C3118424  -0.176   3.158   6.478  0.0487  0.3969  0.5990
  164SAPE   O3218425  -0.233   3.266   6.455 -0.4043  0.1619  0.0062
  164SAPE   C3218426  -0.217   3.062   6.588  0.4651 -0.2763 -0.1085
  164SAPE   H2X18427  -0.120   3.046   6.639  0.6981 -0.7887 -0.6968
  164SAPE   H2Y18428  -0.257   2.970   6.540 -2.0665  0.1706  1.0760
  164SAPE   C2318429   0.278   3.308   6.778  1.2658 -0.2084 -0.8167
  164SAPE   H3R18430   0.266   3.412   6.815 -0.4126 -0.1369 -1.4957
  164SAPE   H3S18431   0.367   3.266   6.829  1.3793  0.6900 -0.2633
  164SAPE   C2418432   0.150   3.227   6.801  0.0230 -0.0985  0.1205
  164SAPE   H4R18433   0.073   3.295   6.759 -0.1312  0.7423  1.7281
  164SAPE   H4S18434   0.123   3.224   6.909  2.2368 -0.0974  0.7108
  164SAPE   C2518435   0.147   3.093   6.740  0.1926  0.2525  0.2330
  164SAPE   H5R18436   0.133   3.092   6.631  0.0629  0.0735  0.2505
  164SAPE   C2618437   0.131   2.972   6.800 -0.5093 -0.3501  1.0271
  164SAPE   H6R18438   0.117   2.886   6.732  2.6605 -0.2044  0.1128
  164SAPE   C2718439   0.114   2.940   6.944 -0.5293  0.2354 -0.5427
  164SAPE   H7R18440   0.032   2.865   6.951 -1.5732  1.3752 -0.3101
  164SAPE   H7S18441   0.074   3.022   7.008 -0.6259 -1.3541  1.4662
  164SAPE   C2818442   0.244   2.885   7.010  0.0388  0.9683 -0.1725
  164SAPE   H8R18443   0.329   2.864   6.944  2.0496  1.2276  2.2196
  164SAPE   C2918444   0.279   2.890   7.140  0.0217  0.0394  0.1216
  164SAPE   H9R18445   0.375   2.851   7.176 -0.1659 -0.7984 -0.2808
  164SAPE  C21018446   0.181   2.941   7.252 -0.2558  0.0199 -0.4991
  164SAPE  H10R18447   0.216   2.891   7.345 -0.8480 -0.0693 -0.3209
  164SAPE  H10S18448   0.082   2.893   7.238 -0.1701 -0.7737  1.4343
  164SAPE  C21118449   0.164   3.094   7.270 -0.0908  0.3088 -0.1499
  164SAPE  H11R18450   0.204   3.143   7.180 -0.3793  1.7851  0.5089
  164SAPE  C21218451   0.123   3.157   7.380 -1.1022  0.2491 -0.0599
  164SAPE  H12R18452   0.096   3.264   7.378 -0.3915  0.4905  2.2620
  164SAPE  C21318453   0.088   3.101   7.510 -0.2702  0.3611  0.4279
  164SAPE  H13R18454   0.089   2.990   7.507 -1.4938  0.3272  0.9624
  164SAPE  H13S18455  -0.015   3.133   7.537 -0.9146 -1.1110 -0.2034
  164SAPE  C21418456   0.201   3.146   7.604 -0.0073 -0.2302  0.0678
  164SAPE  H14R18457   0.233   3.251   7.594 -0.5542 -0.1184 -0.5794
  164SAPE  C21518458   0.249   3.079   7.711 -0.9953  0.1327 -0.3920
  164SAPE  H15R18459   0.322   3.126   7.778 -0.5928  0.4293 -1.0440
  164SAPE  C21618460   0.206   2.939   7.750 -0.2594  0.4069  0.0262
  164SAPE  H16R18461   0.262   2.862   7.692 -1.6405 -0.9025  0.4007
  164SAPE  H16S18462   0.097   2.929   7.731 -0.0747 -2.1204  0.1058
  164SAPE  C21718463   0.234   2.907   7.900  0.0431 -0.0503  0.1246
  164SAPE  H17R18464   0.343   2.919   7.919  0.1456  0.2166 -0.6164
  164SAPE  H17S18465   0.190   2.805   7.906  0.9347 -0.4349  0.2694
  164SAPE  C21818466   0.156   2.992   8.002  0.2541  0.0703 -0.0788
  164SAPE  H18R18467   0.047   2.995   7.981  0.2030  0.3668  0.2213
  164SAPE  H18S18468   0.189   3.097   7.988 -0.3789  0.4189  0.9828
  164SAPE  C21918469   0.192   2.939   8.146 -0.0772 -0.1760 -0.1157
  164SAPE  H19R18470   0.299   2.911   8.157 -0.5200 -2.2187 -0.8066
  164SAPE  H19S18471   0.132   2.849   8.170 -0.1644 -0.8979 -2.8522
  164SAPE  C22018472   0.168   3.047   8.253 -0.1792  0.6969  0.2791
  164SAPE  H20R18473   0.232   3.135   8.233  1.5124 -0.5335  0.1868
  164SAPE  H20S18474   0.176   3.008   8.357 -2.6865 -3.1876 -0.9042
  164SAPE  H20T18475   0.066   3.090   8.242  0.0584  1.3190  0.4645
  164SAPE   C3318476  -0.330   3.115   6.681 -0.1839  0.6540  0.6239
  164SAPE   H3X18477  -0.424   3.117   6.622  0.1650 -0.0041  0.0373
  164SAPE   H3Y18478  -0.305   3.218   6.717  1.6105  0.6461 -0.5050
  164SAPE   C3418479  -0.348   3.018   6.797 -0.2294 -0.5601  0.4549
  164SAPE   H4X18480  -0.372   2.917   6.757 -0.6500 -0.5854  0.7683
  164SAPE   H4Y18481  -0.437   3.045   6.857  2.2226  0.4810  3.7989
  164SAPE   C3518482  -0.240   3.024   6.908 -0.2507  0.1666 -0.4143
  164SAPE   H5X18483  -0.223   3.126   6.950  1.4563 -1.5877  3.2960
  164SAPE   H5Y18484  -0.145   2.985   6.866  0.7298  2.1985 -0.1477
  164SAPE   C3618485  -0.269   2.934   7.020 -0.0616  0.4883 -0.1132
  164SAPE   H6X18486  -0.173   2.898   7.061 -1.9701 -3.0494  1.5762
  164SAPE   H6Y18487  -0.325   2.846   6.982  2.9048 -2.4574  2.0508
  164SAPE   C3718488  -0.329   2.999   7.138  0.3327 -0.2704 -0.7861
  164SAPE   H7X18489  -0.425   3.046   7.107 -0.2393 -2.8969 -3.1911
  164SAPE   H7Y18490  -0.267   3.082   7.179  0.6575 -0.5660 -0.6746
  164SAPE   C3818491  -0.358   2.893   7.245  0.0869  0.2483  0.4413
  164SAPE   H8X18492  -0.262   2.859   7.290 -0.6781 -2.2932  0.2188
  164SAPE   H8Y18493  -0.410   2.802   7.209 -0.8066  0.9549 -0.0844
  164SAPE   C3918494  -0.433   2.955   7.358  0.1883  0.4367 -0.7180
  164SAPE   H9X18495  -0.473   2.879   7.429  0.1960  0.0564 -1.1193
  164SAPE   H9Y18496  -0.521   3.009   7.316 -1.3574 -0.4402  1.3133
  164SAPE  C31018497  -0.356   3.064   7.436  0.8235  0.1435 -0.6249
  164SAPE  H10X18498  -0.377   3.165   7.394  1.9312  1.5509  2.0371
  164SAPE  H10Y18499  -0.249   3.038   7.422  1.1071 -0.0275  1.5869
  164SAPE  C31118500  -0.372   3.057   7.581 -0.3091 -0.2862  0.3631
  164SAPE  H11X18501  -0.342   2.958   7.621 -0.4545 -0.2159  0.6509
  164SAPE  H11Y18502  -0.478   3.065   7.614 -0.0170  1.8975  0.8138
  164SAPE  C31218503  -0.297   3.163   7.654  0.1871 -0.2733 -0.6424
  164SAPE  H12X18504  -0.334   3.265   7.629 -0.0374  0.2951  1.8206
  164SAPE  H12Y18505  -0.189   3.162   7.631 -0.4557 -2.6228 -3.7643
  164SAPE  C31318506  -0.313   3.152   7.809  0.6070  0.2123 -0.1192
  164SAPE  H13X18507  -0.421   3.145   7.833  0.7897  0.1621  0.6800
  164SAPE  H13Y18508  -0.296   3.256   7.846 -1.3581  1.1532 -1.7228
  164SAPE  C31418509  -0.213   3.054   7.872 -0.2407  0.5991  0.3394
  164SAPE  H14X18510  -0.112   3.101   7.873  1.1586 -2.2042 -1.2023
  164SAPE  H14Y18511  -0.229   2.959   7.816  0.5056 -0.6081  2.1279
  164SAPE  C31518512  -0.255   3.015   8.014 -0.7140 -0.1397  0.0585
  164SAPE  H15X18513  -0.266   3.101   8.083 -0.6346  0.1219 -0.2571
  164SAPE  H15Y18514  -0.160   2.985   8.063 -0.6550  0.3524  0.2444
  164SAPE  C31618515  -0.355   2.903   8.039  1.3770 -0.8814  0.2632
  164SAPE  H16X18516  -0.312   2.817   7.983  2.8518 -0.8368  1.3026
  164SAPE  H16Y18517  -0.463   2.923   8.021  0.5494 -1.3294  4.3916
  164SAPE  C31718518  -0.353   2.859   8.189 -0.3954  1.1154 -0.4179
  164SAPE  H17X18519  -0.256   2.894   8.231 -0.2707 -0.1717  0.3646
  164SAPE  H17Y18520  -0.371   2.750   8.187 -1.8708  1.3339 -0.0189
  164SAPE  C31818521  -0.483   2.898   8.267 -0.2913 -0.1910  0.2359
  164SAPE  H18X18522  -0.568   2.836   8.233  0.1548 -0.6703 -0.0231
  164SAPE  H18Y18523  -0.510   3.006   8.276 -0.6303 -0.3970  1.6813
  164SAPE  H18Z18524  -0.450   2.859   8.366 -1.6840 -1.1295  0.3428
  165SAPE     N18525   0.399   6.160   6.464  0.3393  0.1076  1.0052
  165SAPE   HN118526   0.488   6.166   6.409 -0.4031 -0.2244 -0.2602
  165SAPE   HN218527   0.417   6.120   6.558  1.7823 -1.0143  0.2697
  165SAPE   HN318528   0.326   6.096   6.430  1.0699 -0.6087  0.7668
  165SAPE   C1218529   0.325   6.290   6.459 -0.4179  0.0945  1.2075
  165SAPE  H12A18530   0.321   6.316   6.351 -1.1182 -1.5016  0.8388
  165SAPE  H12B18531   0.384   6.369   6.510 -0.7870  0.1451  1.5580
  165SAPE   C1118532   0.192   6.273   6.534 -0.2587  0.0875 -0.2321
  165SAPE  H11A18533   0.125   6.360   6.546 -0.9969 -0.5233  0.1304
  165SAPE  H11B18534   0.208   6.242   6.640 -0.1796  0.6175 -0.0899
  165SAPE     P18535   0.039   6.188   6.336 -0.4288  0.2131 -0.4153
  165SAPE   O1318536   0.121   6.248   6.230  0.9437 -0.2121  0.3455
  165SAPE   O1418537  -0.021   6.057   6.302  0.2258 -0.2533 -0.2592
  165SAPE   O1218538   0.120   6.171   6.469 -0.1379 -0.0446 -0.2604
  165SAPE   O1118539  -0.071   6.297   6.383  0.3854  0.3408 -0.3927
  165SAPE    C118540  -0.183   6.250   6.455  0.0726 -0.0297  0.2503
  165SAPE    HA18541  -0.263   6.204   6.392  3.0952 -2.4768 -1.9426
  165SAPE    HB18542  -0.168   6.164   6.525 -0.2280 -1.1296 -1.0068
  165SAPE    C218543  -0.257   6.375   6.509 -0.6206 -0.4285 -0.6150
  165SAPE    HS18544  -0.275   6.437   6.419 -0.9280 -0.5097 -0.6090
  165SAPE   O2118545  -0.175   6.440   6.609  0.0783 -0.0707  0.2028
  165SAPE   C2118546  -0.118   6.556   6.583  0.1209 -0.4375 -0.7631
  165SAPE   O2218547  -0.136   6.616   6.481 -0.0964 -0.2597  0.1669
  165SAPE   C2218548  -0.015   6.588   6.687  0.2954  0.3058 -0.5593
  165SAPE   H2R18549  -0.071   6.638   6.769 -1.1517 -1.1750 -0.6177
  165SAPE   H2S18550   0.030   6.497   6.733  0.8058  1.8908  2.2461
  165SAPE    C318551  -0.387   6.338   6.574  0.5696 -0.2703  0.6760
  165SAPE    HX18552  -0.360   6.247   6.631 -0.3529  0.6195  2.5805
  165SAPE    HY18553  -0.471   6.311   6.507 -0.6795  1.7867  1.3612
  165SAPE   O3118554  -0.433   6.439   6.670 -0.1634 -0.2988 -0.3538
  165SAPE   C3118555  -0.524   6.519   6.624  0.3545 -0.1853  0.1395
  165SAPE   O3218556  -0.577   6.517   6.513 -0.3511  0.0860 -0.1601
  165SAPE   C3218557  -0.559   6.616   6.732 -0.0424  0.2186  0.6150
  165SAPE   H2X18558  -0.555   6.556   6.826 -0.2933  0.3413  0.7056
  165SAPE   H2Y18559  -0.659   6.660   6.711  0.2542  0.2911 -0.6604
  165SAPE   C2318560   0.099   6.680   6.648  0.1635  0.3931  0.1237
  165SAPE   H3R18561   0.049   6.771   6.609  1.8807  0.6477 -1.5742
  165SAPE   H3S18562   0.165   6.638   6.569 -0.8994 -0.3946 -0.3442
  165SAPE   C2418563   0.189   6.726   6.769  0.0982 -0.3685  0.0701
  165SAPE   H4R18564   0.119   6.785   6.832  0.6971  2.4264 -1.7750
  165SAPE   H4S18565   0.271   6.791   6.730  0.0869 -0.5909 -0.3263
  165SAPE   C2518566   0.263   6.615   6.835 -0.5790 -0.1965 -0.7335
  165SAPE   H5R18567   0.343   6.572   6.773 -3.1136 -2.1488 -2.7841
  165SAPE   C2618568   0.242   6.578   6.961  0.5739  0.0910  0.5666
  165SAPE   H6R18569   0.289   6.485   6.997  0.5426  0.5477  1.8170
  165SAPE   C2718570   0.131   6.623   7.058 -0.0185 -0.0081 -0.1249
  165SAPE   H7R18571   0.047   6.550   7.059  2.8173 -3.3936 -0.3888
  165SAPE   H7S18572   0.088   6.717   7.017  0.8450  1.1988  1.6918
  165SAPE   C2818573   0.173   6.646   7.200  0.5017  0.7801 -1.0112
  165SAPE   H8R18574   0.275   6.686   7.208  2.3183 -3.8098  0.3924
  165SAPE   C2918575   0.103   6.615   7.314  0.4693 -0.4497  0.1273
  165SAPE   H9R18576   0.150   6.637   7.411 -1.5621  2.3114  0.5514
  165SAPE  C21018577  -0.035   6.561   7.314 -0.0523  0.2101  0.3511
  165SAPE  H10R18578  -0.053   6.477   7.244 -1.3097 -0.0340  0.9581
  165SAPE  H10S18579  -0.102   6.638   7.270 -0.5018 -0.2620  0.2018
  165SAPE  C21118580  -0.101   6.524   7.445 -0.2262 -0.5727 -1.4787
  165SAPE  H11R18581  -0.175   6.597   7.480  1.1499 -1.6840  4.1252
  165SAPE  C21218582  -0.066   6.426   7.529 -0.2446  0.0619  0.5319
  165SAPE  H12R18583  -0.120   6.417   7.624  2.0524 -1.4105  1.7640
  165SAPE  C21318584   0.042   6.328   7.500 -0.5522  0.2977 -0.0515
  165SAPE  H13R18585   0.119   6.331   7.579 -1.2418  1.0289  0.6025
  165SAPE  H13S18586   0.096   6.358   7.408 -2.2290  0.8675 -0.8870
  165SAPE  C21418587  -0.000   6.188   7.485 -0.0231 -0.3849  0.3896
  165SAPE  H14R18588  -0.013   6.131   7.578 -4.0920 -0.7942 -0.3279
  165SAPE  C21518589   0.008   6.117   7.368 -0.1919 -0.1992 -0.2933
  165SAPE  H15R18590  -0.004   6.008   7.369 -1.0332 -0.1451 -1.8975
  165SAPE  C21618591   0.049   6.166   7.232 -0.3339 -0.1037  0.2562
  165SAPE  H16R18592   0.057   6.276   7.225 -0.6430 -0.0825  0.2167
  165SAPE  H16S18593  -0.019   6.129   7.152  0.0341  0.5667 -0.3621
  165SAPE  C21718594   0.191   6.124   7.201  0.2314  0.4030 -0.3207
  165SAPE  H17R18595   0.257   6.185   7.266 -1.7044 -0.2601  2.4042
  165SAPE  H17S18596   0.204   6.149   7.094  1.0832  1.5366  0.0448
  165SAPE  C21818597   0.232   5.975   7.218  0.5492  0.2107  0.8540
  165SAPE  H18R18598   0.164   5.914   7.155  0.9160  0.1314  0.5337
  165SAPE  H18S18599   0.220   5.942   7.324 -0.5292  0.1293  0.7111
  165SAPE  C21918600   0.382   5.958   7.178 -0.0802 -0.2520  0.6169
  165SAPE  H19R18601   0.411   5.851   7.190  0.9669 -0.1309 -0.6981
  165SAPE  H19S18602   0.441   6.018   7.251  0.9992  1.4138 -1.5780
  165SAPE  C22018603   0.409   5.997   7.041  0.1665 -0.3194 -1.0370
  165SAPE  H20R18604   0.328   5.960   6.974 -2.6799 -1.9819  3.1602
  165SAPE  H20S18605   0.506   5.962   7.000  0.5058 -0.7581  0.1287
  165SAPE  H20T18606   0.413   6.108   7.032  0.5397 -0.0216  2.3457
  165SAPE   C3318607  -0.458   6.732   6.739  0.2213  0.2964 -0.4337
  165SAPE   H3X18608  -0.447   6.777   6.638  0.1085  0.3606 -0.4183
  165SAPE   H3Y18609  -0.356   6.696   6.761 -0.2367 -0.0119  1.3029
  165SAPE   C3418610  -0.487   6.842   6.844  0.4267  0.7645  0.1166
  165SAPE   H4X18611  -0.593   6.877   6.840  0.4540  0.8891  0.4592
  165SAPE   H4Y18612  -0.423   6.932   6.829  0.7053  1.0526  2.8646
  165SAPE   C3518613  -0.470   6.800   6.993 -0.2747  0.8833 -0.1966
  165SAPE   H5X18614  -0.374   6.746   7.011  0.0117  1.5703  0.3299
  165SAPE   H5Y18615  -0.545   6.719   7.006  0.5721  0.2237  0.7056
  165SAPE   C3618616  -0.487   6.925   7.076  0.2655 -0.3980 -0.5708
  165SAPE   H6X18617  -0.584   6.974   7.054  0.4952  0.6390  0.6412
  165SAPE   H6Y18618  -0.407   7.001   7.067 -0.9128  1.1569  1.5450
  165SAPE   C3718619  -0.488   6.879   7.223  0.2430  0.7922 -0.0382
  165SAPE   H7X18620  -0.400   6.814   7.242 -0.2186 -0.0042 -0.6031
  165SAPE   H7Y18621  -0.577   6.815   7.240  0.6679 -0.2824 -1.7476
  165SAPE   C3818622  -0.495   6.995   7.328 -0.6518  0.3620  0.0124
  165SAPE   H8X18623  -0.582   7.059   7.300 -0.1283  1.1275  0.1214
  165SAPE   H8Y18624  -0.413   7.065   7.305 -1.1308  1.3738  1.3119
  165SAPE   C3918625  -0.502   6.942   7.476  0.6050 -0.0012  0.2990
  165SAPE   H9X18626  -0.405   6.900   7.509  1.2414  1.4512  0.2958
  165SAPE   H9Y18627  -0.577   6.859   7.476  2.6816 -1.9404 -1.3012
  165SAPE  C31018628  -0.558   7.050   7.566  0.4369 -0.8017 -0.3249
  165SAPE  H10X18629  -0.667   7.051   7.542  0.1413  1.3253  0.9661
  165SAPE  H10Y18630  -0.510   7.147   7.545  0.6958 -0.8921 -0.1428
  165SAPE  C31118631  -0.519   7.016   7.710  0.4710  0.5140 -0.3753
  165SAPE  H11X18632  -0.409   7.013   7.721  0.6623 -3.6050 -2.5897
  165SAPE  H11Y18633  -0.554   6.912   7.723  1.5256  0.1436 -0.4718
  165SAPE  C31218634  -0.581   7.107   7.823 -0.4879 -0.5701  0.2512
  165SAPE  H12X18635  -0.692   7.102   7.825 -0.7584  4.0613  1.3664
  165SAPE  H12Y18636  -0.549   7.211   7.803 -1.7507  0.0271  1.2294
  165SAPE  C31318637  -0.535   7.063   7.961  0.1264  0.3795  0.8105
  165SAPE  H13X18638  -0.424   7.069   7.963  0.0219  3.1969  0.3212
  165SAPE  H13Y18639  -0.555   6.956   7.981  0.5386  0.0537 -0.4983
  165SAPE  C31418640  -0.595   7.137   8.084 -0.3023 -0.3505  0.4458
  165SAPE  H14X18641  -0.560   7.085   8.175 -0.0837 -1.9093 -0.5168
  165SAPE  H14Y18642  -0.705   7.122   8.082 -0.3514  0.0424  0.0539
  165SAPE  C31518643  -0.558   7.285   8.090  0.1827  0.0278  0.0794
  165SAPE  H15X18644  -0.594   7.340   8.001 -0.4093  1.2690  1.0646
  165SAPE  H15Y18645  -0.448   7.292   8.101 -0.1146  1.6761  2.3782
  165SAPE  C31618646  -0.625   7.349   8.206 -0.5320  0.4192 -0.1170
  165SAPE  H16X18647  -0.597   7.305   8.305 -2.1045 -2.7086 -0.9936
  165SAPE  H16Y18648  -0.735   7.336   8.203 -0.2912 -2.1949  0.6519
  165SAPE  C31718649  -0.594   7.495   8.226 -0.2348  0.7762  0.0266
  165SAPE  H17X18650  -0.633   7.545   8.135 -0.0927 -0.7588 -0.8945
  165SAPE  H17Y18651  -0.486   7.516   8.215 -0.0363  0.6994  1.7233
  165SAPE  C31818652  -0.663   7.558   8.352 -0.8137  0.2525  0.3446
  165SAPE  H18X18653  -0.659   7.668   8.368  0.3647  0.3488 -0.5257
  165SAPE  H18Y18654  -0.615   7.512   8.441 -3.1648 -1.6134  0.6770
  165SAPE  H18Z18655  -0.768   7.523   8.359 -1.4371  2.0096  0.1288
  166SAPE     N18656   6.404   3.448   6.294 -0.0379 -0.1050 -0.6333
  166SAPE   HN118657   6.442   3.449   6.198  0.6055  1.6804 -0.3774
  166SAPE   HN218658   6.401   3.538   6.346  0.2862  0.4177 -1.5196
  166SAPE   HN318659   6.460   3.378   6.347  0.4727  2.2712  2.1208
  166SAPE   C1218660   6.258   3.410   6.282  0.4802  0.5464 -0.5799
  166SAPE  H12A18661   6.223   3.341   6.362 -2.8177 -0.2122 -2.5644
  166SAPE  H12B18662   6.247   3.357   6.185  0.6607 -1.9058  0.7227
  166SAPE   C1118663   6.154   3.524   6.265 -0.0016  0.8020 -0.1433
  166SAPE  H11A18664   6.128   3.576   6.360 -1.1151 -0.0105  0.0079
  166SAPE  H11B18665   6.064   3.471   6.225 -0.2873 -0.9633  2.7497
  166SAPE     P18666   6.130   3.706   6.068  0.0521 -0.2883  0.1265
  166SAPE   O1318667   6.193   3.839   6.068 -0.0480  0.5972 -0.3259
  166SAPE   O1418668   6.122   3.629   5.939  0.3212 -0.4538 -0.3269
  166SAPE   O1218669   6.204   3.617   6.170  0.3608 -0.5824 -0.2324
  166SAPE   O1118670   5.985   3.728   6.118  0.6158  0.5609  0.3012
  166SAPE    C118671   5.960   3.786   6.249  0.4940 -0.0305 -0.1941
  166SAPE    HA18672   6.030   3.743   6.324 -0.0200 -0.2256  0.1738
  166SAPE    HB18673   5.989   3.893   6.244  2.2609 -0.3692  1.8749
  166SAPE    C218674   5.813   3.749   6.287  0.0494  0.0650 -0.5121
  166SAPE    HS18675   5.743   3.799   6.217  1.5496  0.6872 -1.5718
  166SAPE   O2118676   5.792   3.805   6.421 -0.0503 -0.0778 -0.2613
  166SAPE   C2118677   5.796   3.938   6.423  0.2822 -0.9099  0.3272
  166SAPE   O2218678   5.796   4.009   6.323 -0.0684  0.0170 -0.3943
  166SAPE   C2218679   5.805   3.976   6.569 -0.0497  0.1053 -0.0180
  166SAPE   H2R18680   5.701   4.001   6.599  0.1382  0.8196  0.0433
  166SAPE   H2S18681   5.848   3.892   6.628 -0.5671 -0.1139  0.0516
  166SAPE    C318682   5.785   3.598   6.301 -0.4684  0.1837  0.2406
  166SAPE    HX18683   5.797   3.551   6.201 -1.0828 -0.1970  0.3445
  166SAPE    HY18684   5.676   3.593   6.320 -1.1909  0.7570 -3.3810
  166SAPE   O3118685   5.874   3.528   6.394  0.1086 -0.3262  0.5320
  166SAPE   C3118686   5.818   3.511   6.512 -0.0856 -0.5826 -0.4451
  166SAPE   O3218687   5.704   3.546   6.547 -1.0507 -0.5686 -0.5610
  166SAPE   C3218688   5.916   3.422   6.591 -0.6825 -0.3843 -0.5199
  166SAPE   H2X18689   6.014   3.416   6.539  1.0855  0.1469  2.5932
  166SAPE   H2Y18690   5.881   3.317   6.587  2.0873 -1.3060 -1.4051
  166SAPE   C2318691   5.873   4.105   6.605  0.2920 -0.3425 -0.3593
  166SAPE   H3R18692   5.813   4.189   6.564  0.8726  0.5544  0.5925
  166SAPE   H3S18693   5.971   4.102   6.553  0.1530 -1.0583 -0.5840
  166SAPE   C2418694   5.906   4.116   6.751  0.1229 -0.4079  0.2053
  166SAPE   H4R18695   6.004   4.167   6.764  0.0960 -0.1593 -0.5532
  166SAPE   H4S18696   5.923   4.017   6.798  0.1329  0.1569  1.4317
  166SAPE   C2518697   5.792   4.178   6.831 -0.4938 -0.0678  0.3663
  166SAPE   H5R18698   5.703   4.187   6.766  0.2420 -0.7591 -0.7438
  166SAPE   C2618699   5.796   4.208   6.961  0.2036  0.7073 -0.1220
  166SAPE   H6R18700   5.714   4.257   7.014 -0.7667  0.5168 -1.4410
  166SAPE   C2718701   5.919   4.195   7.044  0.6715  0.5318 -0.2255
  166SAPE   H7R18702   5.971   4.291   7.066  0.9448  0.2496  0.3695
  166SAPE   H7S18703   5.996   4.131   6.996 -0.8763 -1.7626  0.2931
  166SAPE   C2818704   5.893   4.119   7.168  0.2517 -0.0646 -0.4238
  166SAPE   H8R18705   5.818   4.039   7.164  1.1385 -0.8484 -2.5632
  166SAPE   C2918706   5.953   4.137   7.291  0.0544 -0.0503 -0.4323
  166SAPE   H9R18707   5.930   4.062   7.369 -1.1063 -0.7982 -1.4758
  166SAPE  C21018708   6.059   4.237   7.317 -0.5841  0.1230  0.6462
  166SAPE  H10R18709   6.111   4.279   7.228 -3.4383  1.0965 -0.6036
  166SAPE  H10S18710   6.138   4.193   7.382 -1.9283 -2.2480  0.6988
  166SAPE  C21118711   6.005   4.355   7.395 -0.1618  0.2089 -0.0335
  166SAPE  H11R18712   5.951   4.435   7.343  0.7135  0.5455 -0.4341
  166SAPE  C21218713   6.002   4.361   7.529  0.0005 -0.0328 -0.4544
  166SAPE  H12R18714   5.950   4.447   7.574 -1.8048  0.1056 -2.7266
  166SAPE  C21318715   6.047   4.261   7.630 -0.1897 -0.2437  0.2712
  166SAPE  H13R18716   6.144   4.291   7.677  0.8268 -1.4533 -1.0028
  166SAPE  H13S18717   6.081   4.171   7.575 -1.7073  0.5101 -1.9901
  166SAPE  C21418718   5.944   4.222   7.728  0.2678  0.4440 -0.5723
  166SAPE  H14R18719   5.876   4.141   7.701 -0.6102  1.1430 -0.4773
  166SAPE  C21518720   5.937   4.259   7.859  0.2350 -0.2934 -0.0279
  166SAPE  H15R18721   5.854   4.228   7.923 -0.1996 -0.6665 -0.7611
  166SAPE  C21618722   6.015   4.369   7.920 -0.0621  0.5204 -0.0659
  166SAPE  H16R18723   5.941   4.442   7.961 -1.6010 -0.9014 -0.2530
  166SAPE  H16S18724   6.089   4.414   7.851 -0.2285 -0.4820 -0.9087
  166SAPE  C21718725   6.088   4.314   8.051  0.4987  0.4552 -0.1095
  166SAPE  H17R18726   6.140   4.409   8.077  0.9752 -0.1761  1.2911
  166SAPE  H17S18727   6.173   4.244   8.039  1.9463  1.9800  1.0538
  166SAPE  C21818728   5.986   4.271   8.163 -0.4939  0.3706  0.7105
  166SAPE  H18R18729   5.909   4.199   8.128 -0.0363  0.8710 -1.3826
  166SAPE  H18S18730   5.918   4.359   8.172  0.9629  1.6604 -0.5042
  166SAPE  C21918731   6.047   4.208   8.289  0.4494 -0.4212  0.4235
  166SAPE  H19R18732   6.101   4.295   8.332 -0.4112  0.9142 -1.1370
  166SAPE  H19S18733   6.113   4.126   8.253 -0.7802 -1.7702  1.2176
  166SAPE  C22018734   5.948   4.157   8.389 -0.5811 -0.2446  0.2868
  166SAPE  H20R18735   5.897   4.245   8.433 -1.6862 -1.2081  0.9788
  166SAPE  H20S18736   6.013   4.110   8.467  1.3033  0.3043 -0.9197
  166SAPE  H20T18737   5.890   4.076   8.341  0.0638  1.3562 -3.3489
  166SAPE   C3318738   5.940   3.476   6.730 -0.2593  1.6091 -0.1887
  166SAPE   H3X18739   6.016   3.406   6.772 -0.4184  2.5026  1.6587
  166SAPE   H3Y18740   5.848   3.453   6.788  0.9721 -0.0933  1.1547
  166SAPE   C3418741   5.986   3.619   6.741 -0.3316 -0.2887 -0.0155
  166SAPE   H4X18742   5.898   3.684   6.719 -0.4192 -0.3733  0.0808
  166SAPE   H4Y18743   6.064   3.618   6.663  0.5174 -0.1070  0.8227
  166SAPE   C3518744   6.056   3.657   6.873  0.2705  0.9602 -0.1129
  166SAPE   H5X18745   6.138   3.585   6.895  1.7761  2.0268 -2.0868
  166SAPE   H5Y18746   5.979   3.636   6.951 -0.6346  3.0545 -0.4038
  166SAPE   C3618747   6.098   3.800   6.885  0.2171  0.4505 -0.5221
  166SAPE   H6X18748   6.008   3.850   6.928  0.2966 -0.5892  0.9024
  166SAPE   H6Y18749   6.124   3.842   6.786  0.5120 -1.1175 -1.1222
  166SAPE   C3718750   6.207   3.828   6.987 -0.7616 -0.2992  0.0440
  166SAPE   H7X18751   6.254   3.928   6.976 -0.0966 -0.5796  0.3232
  166SAPE   H7Y18752   6.289   3.759   6.956 -0.7981 -0.8046  1.0556
  166SAPE   C3818753   6.170   3.822   7.133  0.4718  0.0190 -0.4246
  166SAPE   H8X18754   6.131   3.725   7.172  2.0180  0.2302  1.7943
  166SAPE   H8Y18755   6.103   3.907   7.156  0.8004  0.4454 -1.0188
  166SAPE   C3918756   6.302   3.838   7.209 -0.6109  0.0857 -0.4132
  166SAPE   H9X18757   6.361   3.924   7.172  2.0719 -1.4233  0.1989
  166SAPE   H9Y18758   6.366   3.748   7.198 -0.3795  0.2743 -0.6045
  166SAPE  C31018759   6.274   3.851   7.357  0.1708  0.4891 -0.0221
  166SAPE  H10X18760   6.256   3.752   7.404  1.2431 -0.4685 -1.5640
  166SAPE  H10Y18761   6.189   3.914   7.391  0.6509  1.7180 -1.0474
  166SAPE  C31118762   6.398   3.900   7.434  0.6677 -0.4155  0.0831
  166SAPE  H11X18763   6.421   3.999   7.388  2.6505 -1.2036 -0.6851
  166SAPE  H11Y18764   6.469   3.827   7.391  0.4848 -1.4728  1.5499
  166SAPE  C31218765   6.377   3.913   7.579 -0.4662  0.1220  0.0832
  166SAPE  H12X18766   6.339   3.814   7.613 -1.7610  0.9582  1.1422
  166SAPE  H12Y18767   6.309   3.992   7.617 -1.4257 -0.3026 -0.7367
  166SAPE  C31318768   6.517   3.934   7.647 -0.2695 -0.0695  0.0792
  166SAPE  H13X18769   6.552   4.032   7.606 -1.9110 -0.6275 -2.8242
  166SAPE  H13Y18770   6.579   3.857   7.598 -1.5618 -1.7048  0.9831
  166SAPE  C31418771   6.510   3.908   7.795  0.4911 -0.0851 -0.0077
  166SAPE  H14X18772   6.493   3.801   7.821 -0.1251 -0.4352 -1.7710
  166SAPE  H14Y18773   6.420   3.962   7.831  0.0154 -2.8208  3.1335
  166SAPE  C31518774   6.637   3.949   7.863 -0.8490  0.7498 -0.7472
  166SAPE  H15X18775   6.643   4.058   7.843 -1.3473  0.8534 -0.3426
  166SAPE  H15Y18776   6.725   3.905   7.812  0.9896  1.6663  1.5432
  166SAPE  C31618777   6.651   3.925   8.012  0.9258  0.2299  1.1134
  166SAPE  H16X18778   6.758   3.935   8.039  1.3766 -1.8531  0.2434
  166SAPE  H16Y18779   6.631   3.817   8.027  1.1536  0.0538  0.1824
  166SAPE  C31718780   6.560   3.995   8.113  0.0320 -0.1675  0.1268
  166SAPE  H17X18781   6.451   3.979   8.104  0.0571  0.6139 -1.8026
  166SAPE  H17Y18782   6.581   4.104   8.102 -1.0640 -0.0620 -1.0105
  166SAPE  C31818783   6.579   3.958   8.260  0.3887 -0.2155  0.7113
  166SAPE  H18X18784   6.505   4.000   8.331  0.6513  1.3951  0.0567
  166SAPE  H18Y18785   6.682   3.981   8.298  0.5396  0.1666  0.0722
  166SAPE  H18Z18786   6.562   3.849   8.268 -2.5368  0.2056  0.6652
  167SAPE     N18787   0.615   2.210   6.224 -0.3102  0.0984  0.3279
  167SAPE   HN118788   0.654   2.157   6.304 -1.4693 -1.3107 -0.0243
  167SAPE   HN218789   0.686   2.281   6.195 -2.2470  2.4418  1.1713
  167SAPE   HN318790   0.538   2.268   6.261 -1.9426  0.4114 -3.3012
  167SAPE   C1218791   0.561   2.134   6.106  0.1245  0.0548 -0.1965
  167SAPE  H12A18792   0.575   2.025   6.122  3.0601  0.8027  3.1148
  167SAPE  H12B18793   0.629   2.153   6.021 -0.6771  0.6575 -0.7113
  167SAPE   C1118794   0.411   2.169   6.068 -0.1380 -0.0711  0.1435
  167SAPE  H11A18795   0.371   2.098   5.993  0.3420  0.4020 -0.5690
  167SAPE  H11B18796   0.412   2.266   6.013  2.1488 -1.6495 -2.7692
  167SAPE     P18797   0.165   2.178   6.179  0.3964  0.2141 -0.2182
  167SAPE   O1318798   0.115   2.298   6.250 -0.1919 -0.1268 -0.6965
  167SAPE   O1418799   0.117   2.170   6.036  0.2090  0.5411 -0.5179
  167SAPE   O1218800   0.325   2.168   6.182 -0.4984 -0.3889  0.5680
  167SAPE   O1118801   0.124   2.055   6.267 -0.4423  0.0744  0.3834
  167SAPE    C118802   0.210   2.018   6.376  0.7172 -0.5550 -0.7701
  167SAPE    HA18803   0.279   1.936   6.348  1.7907 -0.1625  0.6863
  167SAPE    HB18804   0.258   2.104   6.426 -1.3189  0.5701 -0.6842
  167SAPE    C218805   0.119   1.948   6.488  0.1182 -0.8448  0.0707
  167SAPE    HS18806   0.068   1.871   6.426 -3.4322  1.4548 -0.0060
  167SAPE   O2118807   0.034   2.052   6.543  0.4253 -0.3592  1.1128
  167SAPE   C2118808  -0.084   2.000   6.584  0.4578  0.0915  0.8395
  167SAPE   O2218809  -0.119   1.885   6.561 -0.2949  0.0571 -0.2985
  167SAPE   C2218810  -0.183   2.098   6.643  0.5462  0.4544 -0.6391
  167SAPE   H2R18811  -0.128   2.194   6.659  1.6047 -0.5439  1.9243
  167SAPE   H2S18812  -0.255   2.117   6.560  0.6040  0.3645 -0.7108
  167SAPE    C318813   0.199   1.891   6.606 -0.4402  1.1923  0.0333
  167SAPE    HX18814   0.270   1.811   6.575  0.7677  1.7350  1.3715
  167SAPE    HY18815   0.119   1.844   6.668 -0.2036 -0.3158 -0.7727
  167SAPE   O3118816   0.276   1.995   6.667 -0.2997  0.5218 -0.2426
  167SAPE   C3118817   0.211   2.050   6.770 -0.7581  0.4943  0.3160
  167SAPE   O3218818   0.108   2.007   6.824 -0.1875  0.5618  0.3228
  167SAPE   C3218819   0.289   2.172   6.810 -0.3427 -0.1205  0.4696
  167SAPE   H2X18820   0.285   2.249   6.729  2.6341  1.7148  2.0102
  167SAPE   H2Y18821   0.392   2.134   6.825  0.9277  2.1978 -1.8322
  167SAPE   C2318822  -0.262   2.048   6.762  0.4354 -0.1745 -0.2880
  167SAPE   H3R18823  -0.205   2.028   6.855 -1.5691  0.8552  1.2016
  167SAPE   H3S18824  -0.318   1.956   6.735  2.0860 -0.0284 -4.5583
  167SAPE   C2418825  -0.366   2.155   6.810 -0.2529  0.4021 -0.3198
  167SAPE   H4R18826  -0.389   2.218   6.721 -1.7195  1.6602  0.9228
  167SAPE   H4S18827  -0.309   2.214   6.885 -1.8794 -0.7692  1.8589
  167SAPE   C2518828  -0.474   2.087   6.882 -0.8093  0.1810  0.2275
  167SAPE   H5R18829  -0.517   2.009   6.817 -2.1129  1.6008 -0.6457
  167SAPE   C2618830  -0.514   2.105   7.010  0.5163 -0.8651  0.3918
  167SAPE   H6R18831  -0.604   2.050   7.042 -2.0525  1.9621 -1.6022
  167SAPE   C2718832  -0.444   2.189   7.111  0.0215 -0.5577  0.2232
  167SAPE   H7R18833  -0.492   2.289   7.100  0.8425 -0.3172 -1.4609
  167SAPE   H7S18834  -0.334   2.195   7.093  0.3109 -0.2187  2.0547
  167SAPE   C2818835  -0.469   2.142   7.249 -0.5409 -0.5813 -0.1372
  167SAPE   H8R18836  -0.500   2.037   7.265  2.4878 -1.2993  1.3662
  167SAPE   C2918837  -0.437   2.205   7.362 -0.0338 -0.4540 -0.1323
  167SAPE   H9R18838  -0.464   2.155   7.457 -1.8427 -1.1494 -0.9938
  167SAPE  C21018839  -0.380   2.342   7.381  0.5071 -0.2499  0.3570
  167SAPE  H10R18840  -0.275   2.358   7.346  1.0184 -1.4187  1.3275
  167SAPE  H10S18841  -0.368   2.336   7.491  0.8986  0.0558  0.3342
  167SAPE  C21118842  -0.470   2.458   7.345  0.0395  0.7230  0.5786
  167SAPE  H11R18843  -0.501   2.472   7.241  1.6732  2.4962  0.2906
  167SAPE  C21218844  -0.528   2.548   7.428 -0.3906  0.2688 -0.4163
  167SAPE  H12R18845  -0.587   2.626   7.378 -0.6595  0.6565  0.4864
  167SAPE  C21318846  -0.514   2.546   7.579  0.1946  0.2378 -0.3922
  167SAPE  H13R18847  -0.424   2.486   7.605  0.7205  1.0830 -0.2643
  167SAPE  H13S18848  -0.606   2.491   7.608 -0.6304  1.2661 -1.0223
  167SAPE  C21418849  -0.500   2.681   7.642 -0.5788 -0.2729  0.7901
  167SAPE  H14R18850  -0.432   2.745   7.584 -0.4541 -0.5738  0.6080
  167SAPE  C21518851  -0.557   2.725   7.760  0.0666 -0.2046  0.7487
  167SAPE  H15R18852  -0.545   2.829   7.794  1.2144 -0.3756  0.8898
  167SAPE  C21618853  -0.652   2.638   7.841 -0.4089 -0.9219 -0.6751
  167SAPE  H16R18854  -0.624   2.626   7.948 -2.1004  0.0581 -0.1112
  167SAPE  H16S18855  -0.660   2.536   7.797  0.5113 -0.1973 -2.5809
  167SAPE  C21718856  -0.792   2.700   7.838  0.4493  0.1917 -0.4524
  167SAPE  H17R18857  -0.824   2.701   7.732 -3.1977  1.1946  0.6065
  167SAPE  H17S18858  -0.800   2.798   7.891  2.4280 -1.3698  2.8751
  167SAPE  C21818859  -0.896   2.590   7.887 -0.2506 -0.3075  0.2759
  167SAPE  H18R18860  -0.873   2.494   7.837  2.3540 -1.2149  3.0826
  167SAPE  H18S18861  -0.995   2.630   7.856  0.7037  2.0708  0.1598
  167SAPE  C21918862  -0.907   2.567   8.033  0.1180 -0.2623  0.2523
  167SAPE  H19R18863  -0.950   2.662   8.072  1.1735  1.6959 -3.1006
  167SAPE  H19S18864  -0.802   2.552   8.067  0.1076 -0.7721  0.0639
  167SAPE  C22018865  -0.994   2.455   8.070 -0.7933  0.7558  0.1256
  167SAPE  H20R18866  -0.972   2.354   8.031 -2.6854 -0.5594  2.3099
  167SAPE  H20S18867  -1.099   2.483   8.044 -1.0862 -0.4201  0.0063
  167SAPE  H20T18868  -0.990   2.426   8.177 -1.0245 -0.8668 -0.3024
  167SAPE   C3318869   0.223   2.239   6.931  0.2476  0.2480 -0.1451
  167SAPE   H3X18870   0.113   2.241   6.923  0.2841 -0.7423 -0.9159
  167SAPE   H3Y18871   0.269   2.340   6.930 -1.1469  0.8959 -2.3351
  167SAPE   C3418872   0.261   2.173   7.061  0.1820 -0.6081 -0.8650
  167SAPE   H4X18873   0.371   2.162   7.067  0.1213 -2.1507 -2.0935
  167SAPE   H4Y18874   0.222   2.069   7.050 -0.3333 -0.4474 -0.5740
  167SAPE   C3518875   0.193   2.229   7.191  0.0172 -0.5023 -0.1144
  167SAPE   H5X18876   0.084   2.233   7.169 -0.5458 -2.2634  2.1395
  167SAPE   H5Y18877   0.227   2.333   7.212  1.2353 -1.2904  1.9978
  167SAPE   C3618878   0.222   2.138   7.313 -0.4654  0.2985 -0.5109
  167SAPE   H6X18879   0.332   2.118   7.314 -0.6410 -0.6807  1.1611
  167SAPE   H6Y18880   0.182   2.039   7.280 -0.6316  0.4863 -0.8748
  167SAPE   C3718881   0.160   2.182   7.445 -0.2083 -0.5313  0.0123
  167SAPE   H7X18882   0.052   2.198   7.423  0.1056  1.3074 -0.2795
  167SAPE   H7Y18883   0.206   2.278   7.475 -0.2965 -0.4608 -0.0761
  167SAPE   C3818884   0.189   2.081   7.548 -0.4636  0.1616  0.6622
  167SAPE   H8X18885   0.292   2.040   7.541  0.0947  1.7810 -0.9388
  167SAPE   H8Y18886   0.119   1.995   7.550  0.9102 -0.9917  0.8094
  167SAPE   C3918887   0.198   2.138   7.689  0.4050  0.2779 -0.6908
  167SAPE   H9X18888   0.288   2.203   7.684 -0.0645  0.8210 -2.4286
  167SAPE   H9Y18889   0.237   2.053   7.750 -2.6612 -1.1124 -0.6064
  167SAPE  C31018890   0.077   2.206   7.751 -0.1366  0.0657 -0.1059
  167SAPE  H10X18891  -0.008   2.136   7.741 -0.5965  0.7817 -1.2255
  167SAPE  H10Y18892   0.046   2.292   7.688 -3.1359 -3.0949 -3.1780
  167SAPE  C31118893   0.112   2.229   7.897 -0.3365 -0.0820 -0.6829
  167SAPE  H11X18894   0.025   2.279   7.945 -0.5891 -0.2360 -0.9818
  167SAPE  H11Y18895   0.192   2.305   7.914 -1.4272  1.0707 -0.5705
  167SAPE  C31218896   0.146   2.106   7.980 -0.2486 -0.7883  0.4324
  167SAPE  H12X18897   0.253   2.084   7.965 -0.0015 -0.4469  1.6076
  167SAPE  H12Y18898   0.079   2.024   7.946  0.2410  0.2269 -3.1914
  167SAPE  C31318899   0.138   2.128   8.132 -0.2802 -0.1482 -0.0775
  167SAPE  H13X18900   0.033   2.142   8.166 -0.9259  0.2813 -2.1904
  167SAPE  H13Y18901   0.191   2.219   8.167 -0.2983  0.1430 -0.7931
  167SAPE  C31418902   0.199   2.008   8.214 -0.2681  0.4060 -0.3589
  167SAPE  H14X18903   0.307   1.982   8.203 -0.8869 -1.7396 -1.7769
  167SAPE  H14Y18904   0.149   1.914   8.180  0.1470  0.1392 -0.2440
  167SAPE  C31518905   0.173   2.016   8.362 -0.4796 -0.5798  0.1610
  167SAPE  H15X18906   0.245   1.951   8.416 -1.2753 -1.0135  0.6872
  167SAPE  H15Y18907   0.067   1.990   8.379 -0.8432  0.0919 -1.0311
  167SAPE  C31618908   0.214   2.153   8.418  0.1113  0.7576 -0.0332
  167SAPE  H16X18909   0.133   2.226   8.397 -1.4608 -0.8436  0.3633
  167SAPE  H16Y18910   0.302   2.195   8.364 -1.1603 -0.9078 -3.5273
  167SAPE  C31718911   0.239   2.155   8.568  0.5282  0.1577 -0.1307
  167SAPE  H17X18912   0.260   2.256   8.608  0.7605  0.4873 -1.0701
  167SAPE  H17Y18913   0.329   2.092   8.579  1.5020  0.9953 -2.7602
  167SAPE  C31818914   0.135   2.086   8.657  0.2081 -0.8737  0.6991
  167SAPE  H18X18915   0.117   1.983   8.618 -2.9942 -0.3455  0.6223
  167SAPE  H18Y18916   0.044   2.149   8.657 -0.0913 -1.3052  0.4115
  167SAPE  H18Z18917   0.184   2.088   8.756  1.1339 -1.1657  0.2570
  168SAPE     N18918   2.860   3.715   6.167  0.3434  0.8894  0.1036
  168SAPE   HN118919   2.842   3.817   6.183  1.5630  1.2195 -0.6125
  168SAPE   HN218920   2.959   3.704   6.138  0.6151  0.5587  1.1119
  168SAPE   HN318921   2.791   3.682   6.097  1.8627  0.2151 -1.0924
  168SAPE   C1218922   2.846   3.647   6.295 -0.0265  0.3182 -0.1613
  168SAPE  H12A18923   2.940   3.658   6.354 -1.7535  0.9540  2.5666
  168SAPE  H12B18924   2.819   3.541   6.277  0.9648  0.1264 -0.5763
  168SAPE   C1118925   2.731   3.699   6.383 -0.8202 -0.0736  0.0377
  168SAPE  H11A18926   2.752   3.802   6.419  0.2725 -1.0209  2.2260
  168SAPE  H11B18927   2.730   3.641   6.478 -0.2806  0.6251  0.4786
  168SAPE     P18928   2.520   3.794   6.245  0.2909  0.7788  0.1871
  168SAPE   O1318929   2.612   3.895   6.180 -0.4378  0.7772 -0.4060
  168SAPE   O1418930   2.421   3.718   6.163  0.1228  0.2503 -0.1120
  168SAPE   O1218931   2.602   3.683   6.326 -0.1429  0.1556 -0.2318
  168SAPE   O1118932   2.430   3.862   6.354  0.0379 -0.4572  0.4549
  168SAPE    C118933   2.333   3.788   6.424 -0.4681 -0.6142  0.2741
  168SAPE    HA18934   2.235   3.790   6.371 -0.3669  2.8571  0.1003
  168SAPE    HB18935   2.361   3.681   6.432  1.0243 -0.2408  0.0561
  168SAPE    C218936   2.307   3.829   6.572  0.1266 -0.0745 -0.0359
  168SAPE    HS18937   2.258   3.742   6.622 -1.6648  2.2988  2.4925
  168SAPE   O2118938   2.220   3.947   6.579  0.3628 -0.1985 -0.2170
  168SAPE   C2118939   2.093   3.927   6.565 -0.1169  0.4102 -0.4720
  168SAPE   O2218940   2.044   3.817   6.536 -0.3605  0.1162  0.1972
  168SAPE   C2218941   2.019   4.051   6.612 -0.1765  0.0353 -0.7269
  168SAPE   H2R18942   2.081   4.143   6.614 -0.2085  0.0357  0.5772
  168SAPE   H2S18943   1.936   4.072   6.541  1.2773 -0.4725 -2.6294
  168SAPE    C318944   2.433   3.855   6.646 -0.1039 -0.2989  0.3313
  168SAPE    HX18945   2.499   3.914   6.579 -0.6579 -0.5017 -0.3921
  168SAPE    HY18946   2.489   3.761   6.666  1.6365  0.8978  1.2558
  168SAPE   O3118947   2.411   3.934   6.758  0.3983  0.4328 -0.6493
  168SAPE   C3118948   2.522   3.963   6.822  0.8853  0.1049  0.3202
  168SAPE   O3218949   2.635   3.924   6.798 -0.3007  0.3427  0.0899
  168SAPE   C3218950   2.489   4.033   6.948 -0.5540  0.0925  0.3285
  168SAPE   H2X18951   2.379   4.024   6.966 -0.5015  0.8098  1.0477
  168SAPE   H2Y18952   2.504   4.141   6.925 -1.8565  0.4653  1.1452
  168SAPE   C2318953   1.955   4.029   6.749  0.1234 -0.3853 -0.0197
  168SAPE   H3R18954   1.920   3.925   6.765  1.7454 -0.8258  0.8061
  168SAPE   H3S18955   1.872   4.100   6.771 -0.8755 -1.6150  0.2697
  168SAPE   C2418956   2.059   4.058   6.858  0.5092 -0.4907  0.0654
  168SAPE   H4R18957   2.068   4.169   6.855 -2.4089 -0.2359 -1.3880
  168SAPE   H4S18958   2.161   4.015   6.849  0.3444 -0.8957  0.1280
  168SAPE   C2518959   2.004   4.004   6.990 -0.0864 -0.5949 -0.0595
  168SAPE   H5R18960   1.940   3.915   6.984  1.1883 -1.5006 -0.3084
  168SAPE   C2618961   2.025   4.060   7.116  0.1814 -0.2526  0.2147
  168SAPE   H6R18962   1.976   4.001   7.195 -0.1079 -2.7169 -1.7618
  168SAPE   C2718963   2.098   4.183   7.158  0.3403  0.5126  0.5377
  168SAPE   H7R18964   2.110   4.238   7.062 -0.3428  1.7691  1.1503
  168SAPE   H7S18965   2.202   4.159   7.188  0.6039  0.5316 -0.3472
  168SAPE   C2818966   2.031   4.270   7.261 -0.3480  0.6346 -0.1910
  168SAPE   H8R18967   1.976   4.356   7.219 -0.7394 -0.1118 -1.2320
  168SAPE   C2918968   2.031   4.267   7.392 -0.3043  0.1341  0.5697
  168SAPE   H9R18969   1.985   4.350   7.446 -2.0316  0.0535 -0.7332
  168SAPE  C21018970   2.113   4.165   7.466  0.7360 -0.5299  0.5578
  168SAPE  H10R18971   2.087   4.061   7.435 -0.7279 -0.0081 -0.0377
  168SAPE  H10S18972   2.079   4.165   7.572 -1.0470 -3.8781  0.0924
  168SAPE  C21118973   2.265   4.175   7.460  0.3714 -0.2734  0.5854
  168SAPE  H11R18974   2.303   4.260   7.401  1.6431 -1.0284  0.3052
  168SAPE  C21218975   2.355   4.098   7.513  0.0498 -0.0713 -0.3022
  168SAPE  H12R18976   2.459   4.133   7.504 -0.7687  2.8467  0.9582
  168SAPE  C21318977   2.315   3.984   7.605 -0.1033 -0.6324  0.6734
  168SAPE  H13R18978   2.269   3.904   7.544 -0.8948  0.1494  0.2294
  168SAPE  H13S18979   2.219   4.012   7.654 -1.2185 -0.5229 -1.5104
  168SAPE  C21418980   2.420   3.922   7.692  0.2433  0.0620 -0.5846
  168SAPE  H14R18981   2.434   3.970   7.790  1.0118 -0.0144 -0.6463
  168SAPE  C21518982   2.504   3.823   7.652 -0.2288  0.1945 -0.1986
  168SAPE  H15R18983   2.588   3.798   7.718 -0.0513  0.3328 -0.3734
  168SAPE  C21618984   2.494   3.756   7.518  0.2010  0.1751  1.1041
  168SAPE  H16R18985   2.468   3.832   7.441  0.7096  1.3370  2.0693
  168SAPE  H16S18986   2.417   3.675   7.521 -0.7661  1.0149 -0.2137
  168SAPE  C21718987   2.609   3.656   7.467  0.0363 -0.1658 -0.3428
  168SAPE  H17R18988   2.657   3.586   7.540 -1.5684 -0.1951  0.7022
  168SAPE  H17S18989   2.694   3.726   7.451 -3.4191  4.6345  1.3517
  168SAPE  C21818990   2.576   3.583   7.336  0.0493  0.3548  0.5614
  168SAPE  H18R18991   2.567   3.663   7.259 -1.3914  1.0272  1.4081
  168SAPE  H18S18992   2.483   3.531   7.367 -0.6144  1.0778 -0.1777
  168SAPE  C21918993   2.680   3.478   7.309 -0.1167 -0.3344  0.3363
  168SAPE  H19R18994   2.687   3.394   7.381  1.1500 -0.8818 -0.4046
  168SAPE  H19S18995   2.781   3.524   7.302 -0.0119 -0.8527 -2.0474
  168SAPE  C22018996   2.653   3.410   7.175  0.4522  0.4433  0.3027
  168SAPE  H20R18997   2.640   3.483   7.092 -1.1145 -0.3626 -0.1577
  168SAPE  H20S18998   2.555   3.359   7.179  0.3568  0.5328 -0.8811
  168SAPE  H20T18999   2.739   3.343   7.153  0.5242  0.1465  1.4118
  168SAPE   C3319000   2.555   3.972   7.073  0.7360  0.3145 -0.5063
  168SAPE   H3X19001   2.664   3.954   7.061  1.2360  1.3757  2.1686
  168SAPE   H3Y19002   2.504   3.875   7.082 -0.9850  1.2560  0.0581
  168SAPE   C3419003   2.528   4.057   7.201  0.0244  1.2166 -0.2160
  168SAPE   H4X19004   2.594   4.024   7.285 -0.9458  0.1896  0.1619
  168SAPE   H4Y19005   2.423   4.053   7.235  0.1434  2.0224  0.2522
  168SAPE   C3519006   2.575   4.205   7.172  0.0831 -0.0970  0.6656
  168SAPE   H5X19007   2.498   4.264   7.118  0.5422 -0.2774 -0.1894
  168SAPE   H5Y19008   2.666   4.199   7.109 -0.6348  1.2625 -0.5148
  168SAPE   C3619009   2.604   4.282   7.295 -0.4116 -0.2053  0.3099
  168SAPE   H6X19010   2.668   4.218   7.360  0.2370 -0.3463 -0.4512
  168SAPE   H6Y19011   2.507   4.298   7.345 -0.4758  1.1488 -0.2434
  168SAPE   C3719012   2.671   4.417   7.261 -0.0818  0.5262  0.2067
  168SAPE   H7X19013   2.611   4.472   7.186  0.8418  1.2960  0.0164
  168SAPE   H7Y19014   2.776   4.406   7.227  0.3347 -0.4840  1.7626
  168SAPE   C3819015   2.685   4.505   7.388 -0.5185 -0.4452  0.5435
  168SAPE   H8X19016   2.755   4.443   7.447  0.3360 -0.3335 -0.3513
  168SAPE   H8Y19017   2.592   4.519   7.447 -0.4534 -0.3385  0.6205
  168SAPE   C3919018   2.737   4.652   7.369 -0.4071 -0.6710 -0.3715
  168SAPE   H9X19019   2.672   4.701   7.294 -0.2491 -0.6169 -0.4712
  168SAPE   H9Y19020   2.842   4.655   7.333  0.1546 -3.5568  0.8504
  168SAPE  C31019021   2.744   4.737   7.500  0.6742 -0.0131  0.6526
  168SAPE  H10X19022   2.653   4.708   7.556  0.0364 -0.4553 -0.6006
  168SAPE  H10Y19023   2.748   4.843   7.468 -0.4083 -0.4671 -1.1041
  168SAPE  C31119024   2.865   4.686   7.584 -0.2780 -1.0343  0.4854
  168SAPE  H11X19025   2.961   4.679   7.529 -1.0122 -1.8339 -0.7309
  168SAPE  H11Y19026   2.833   4.586   7.621 -0.3945 -0.5608  1.6707
  168SAPE  C31219027   2.899   4.793   7.692 -0.3840 -0.4791  0.5099
  168SAPE  H12X19028   2.914   4.882   7.628 -1.3508 -0.8675 -0.2768
  168SAPE  H12Y19029   2.994   4.757   7.736  0.0706  0.8766  0.6544
  168SAPE  C31319030   2.795   4.804   7.808 -0.7320 -1.1880  0.9627
  168SAPE  H13X19031   2.694   4.839   7.776 -0.2085 -0.6198 -0.1061
  168SAPE  H13Y19032   2.840   4.889   7.865 -1.4438 -0.0868 -0.0786
  168SAPE  C31419033   2.775   4.683   7.894 -0.6784 -0.0690  0.3138
  168SAPE  H14X19034   2.861   4.612   7.896 -1.3341 -0.9532  5.6558
  168SAPE  H14Y19035   2.688   4.631   7.849 -0.5658  1.2717 -1.4864
  168SAPE  C31519036   2.740   4.722   8.036 -0.0389  0.7142 -0.1860
  168SAPE  H15X19037   2.641   4.771   8.039 -2.0135 -3.0714  0.0022
  168SAPE  H15Y19038   2.810   4.791   8.087 -1.1773  1.0952  0.8897
  168SAPE  C31619039   2.712   4.593   8.133  0.2932  0.0265 -0.0241
  168SAPE  H16X19040   2.804   4.532   8.147 -0.4495 -1.0213  0.3541
  168SAPE  H16Y19041   2.627   4.534   8.093 -0.8818  0.9661  1.0511
  168SAPE  C31719042   2.650   4.629   8.270 -0.9845 -0.1105  0.6059
  168SAPE  H17X19043   2.553   4.680   8.250 -1.2806 -1.0790 -0.4981
  168SAPE  H17Y19044   2.711   4.705   8.322 -0.0354  0.2170 -0.9426
  168SAPE  C31819045   2.633   4.518   8.369 -0.2550 -0.1265  0.4264
  168SAPE  H18X19046   2.550   4.446   8.349 -0.9511  1.4657 -2.7676
  168SAPE  H18Y19047   2.614   4.565   8.467  2.1558  1.7280  0.0301
  168SAPE  H18Z19048   2.728   4.461   8.380 -0.2844  0.1140  2.0219
  169SAPE     N19049   0.655   5.712   6.511 -0.1265 -0.9952  0.1446
  169SAPE   HN119050   0.612   5.751   6.597  0.7625 -0.2049  0.2372
  169SAPE   HN219051   0.595   5.751   6.436 -1.3691  0.4474  1.8607
  169SAPE   HN319052   0.642   5.609   6.516  2.5989 -1.3104  2.5850
  169SAPE   C1219053   0.809   5.750   6.504 -0.2206 -0.1562 -0.0386
  169SAPE  H12A19054   0.857   5.697   6.419 -0.1472 -0.9580  0.4888
  169SAPE  H12B19055   0.855   5.724   6.602  0.1757 -0.7616 -0.3759
  169SAPE   C1119056   0.831   5.899   6.478  0.8472  0.0175 -0.0090
  169SAPE  H11A19057   0.940   5.921   6.483  0.9383 -0.6455  1.2524
  169SAPE  H11B19058   0.793   5.957   6.565  2.6706  0.9672  0.1784
  169SAPE     P19059   0.764   6.097   6.322 -0.1109  0.1848 -0.2259
  169SAPE   O1319060   0.829   6.110   6.190 -0.3495 -0.6278  0.0520
  169SAPE   O1419061   0.636   6.163   6.336  0.0994  0.4259 -0.0461
  169SAPE   O1219062   0.752   5.943   6.367  0.6723 -0.2065  0.4291
  169SAPE   O1119063   0.848   6.154   6.438 -0.2940  0.5340 -0.0358
  169SAPE    C119064   0.848   6.297   6.469 -0.9236 -0.8373  0.8389
  169SAPE    HA19065   0.950   6.340   6.463  0.0755 -3.4321 -2.2826
  169SAPE    HB19066   0.787   6.352   6.395  1.9154 -1.3407 -1.9737
  169SAPE    C219067   0.802   6.318   6.615 -0.5336 -0.3730  0.1848
  169SAPE    HS19068   0.711   6.255   6.617  0.4123 -1.7634  0.3470
  169SAPE   O2119069   0.766   6.457   6.632 -0.6333 -1.4849 -0.4557
  169SAPE   C2119070   0.693   6.479   6.737 -0.5128 -0.4670  0.4437
  169SAPE   O2219071   0.617   6.400   6.787 -0.1820 -0.3270 -0.3306
  169SAPE   C2219072   0.687   6.629   6.760 -0.4239 -0.7482 -0.0746
  169SAPE   H2R19073   0.786   6.678   6.751 -0.2930 -0.3770  2.8212
  169SAPE   H2S19074   0.623   6.681   6.685  1.1583 -2.2315 -2.5069
  169SAPE    C319075   0.898   6.261   6.728 -1.0234 -0.1963 -0.0934
  169SAPE    HX19076   0.990   6.323   6.734 -1.1946 -0.1348  2.0034
  169SAPE    HY19077   0.938   6.162   6.698 -2.7938 -0.9923  0.0743
  169SAPE   O3119078   0.850   6.266   6.860  0.1398  0.4617  0.1432
  169SAPE   C3119079   0.783   6.160   6.895  0.2276  0.6623 -0.0611
  169SAPE   O3219080   0.748   6.067   6.828  0.9750 -0.6172 -0.0167
  169SAPE   C3219081   0.788   6.162   7.047  0.3979 -0.0429 -0.1863
  169SAPE   H2X19082   0.700   6.101   7.074  1.0220 -0.7576  0.2459
  169SAPE   H2Y19083   0.775   6.271   7.066  0.7024  0.4724 -2.7867
  169SAPE   C2319084   0.628   6.661   6.893 -0.4747 -0.0986  0.0423
  169SAPE   H3R19085   0.534   6.606   6.916 -0.2006 -0.4654  0.2929
  169SAPE   H3S19086   0.590   6.765   6.886 -1.1932 -0.2207  1.8766
  169SAPE   C2419087   0.725   6.638   7.010 -0.5691  0.2081  0.4013
  169SAPE   H4R19088   0.814   6.701   6.987 -0.0577 -0.2915  0.9932
  169SAPE   H4S19089   0.752   6.531   7.001 -1.4129  0.1442 -1.7021
  169SAPE   C2519090   0.662   6.683   7.133  0.5277  0.1480  0.1173
  169SAPE   H5R19091   0.649   6.791   7.144  2.1173  0.2709  0.8625
  169SAPE   C2619092   0.608   6.598   7.220  0.7337  0.2545  0.0639
  169SAPE   H6R19093   0.542   6.639   7.298  1.8147  0.8177  0.7006
  169SAPE   C2719094   0.598   6.444   7.208  0.2874 -0.4909  0.5274
  169SAPE   H7R19095   0.686   6.398   7.257 -0.2945 -1.4296  0.6908
  169SAPE   H7S19096   0.607   6.406   7.104 -0.5489  0.1202  0.2273
  169SAPE   C2819097   0.472   6.390   7.266 -0.2220 -0.2403 -0.7055
  169SAPE   H8R19098   0.385   6.386   7.199  0.4211 -1.9944 -1.4602
  169SAPE   C2919099   0.457   6.347   7.396  0.2372 -0.1537  0.1456
  169SAPE   H9R19100   0.360   6.311   7.433 -0.3959  1.1855 -0.1899
  169SAPE  C21019101   0.570   6.328   7.498 -0.0244 -0.0031  0.2187
  169SAPE  H10R19102   0.535   6.338   7.603 -1.8610 -1.9824 -0.1798
  169SAPE  H10S19103   0.654   6.400   7.485  0.4706 -0.4081  1.2125
  169SAPE  C21119104   0.608   6.181   7.489 -0.4550 -0.1006 -0.4189
  169SAPE  H11R19105   0.691   6.152   7.423  0.6590 -0.3321  1.0476
  169SAPE  C21219106   0.560   6.085   7.574  0.4378  0.4017 -0.0409
  169SAPE  H12R19107   0.594   5.981   7.568  2.6187  0.9968  1.5400
  169SAPE  C21319108   0.457   6.093   7.693  0.0799 -0.9950  0.1174
  169SAPE  H13R19109   0.442   6.199   7.720  3.1431 -0.4615 -0.0567
  169SAPE  H13S19110   0.508   6.055   7.784  0.0244 -0.3088  0.4406
  169SAPE  C21419111   0.323   6.018   7.685  0.4066  0.5450 -0.4558
  169SAPE  H14R19112   0.289   5.965   7.595  1.0892 -0.7033  0.0120
  169SAPE  C21519113   0.235   6.012   7.788  0.3355  0.4478 -0.0714
  169SAPE  H15R19114   0.136   5.967   7.776  0.4493  0.0278  0.5021
  169SAPE  C21619115   0.263   6.079   7.925 -0.5815  0.1689 -0.1933
  169SAPE  H16R19116   0.332   6.166   7.913  0.7852 -1.0525 -1.3349
  169SAPE  H16S19117   0.306   5.998   7.987  1.7102  2.4575  1.3567
  169SAPE  C21719118   0.141   6.145   8.007  1.0978 -0.6461  0.1671
  169SAPE  H17R19119   0.182   6.185   8.103  1.7341  1.9029 -1.1325
  169SAPE  H17S19120   0.071   6.064   8.035  0.3579  0.2485  0.9379
  169SAPE  C21819121   0.069   6.254   7.929  0.2229  0.0000 -0.4019
  169SAPE  H18R19122  -0.016   6.202   7.880 -1.2476 -0.1678  2.2075
  169SAPE  H18S19123   0.131   6.313   7.858 -2.0876  0.7366 -1.8781
  169SAPE  C21919124   0.013   6.365   8.018  0.1986 -0.2342  0.4124
  169SAPE  H19R19125   0.087   6.431   8.068  1.2153  0.3581 -1.8160
  169SAPE  H19S19126  -0.047   6.321   8.101 -0.0032 -0.5503  0.0966
  169SAPE  C22019127  -0.089   6.460   7.949  0.0340 -0.5493 -0.1037
  169SAPE  H20R19128  -0.144   6.522   8.023 -1.0908 -3.1821  1.3480
  169SAPE  H20S19129  -0.166   6.394   7.904  0.2100  0.1091 -1.3937
  169SAPE  H20T19130  -0.047   6.519   7.866  1.1553  0.2521  1.0184
  169SAPE   C3319131   0.913   6.107   7.103  0.1826 -1.0174 -0.1092
  169SAPE   H3X19132   0.995   6.173   7.067  1.2492 -1.8309  0.7795
  169SAPE   H3Y19133   0.927   5.999   7.079 -0.8988 -1.2781  0.4340
  169SAPE   C3419134   0.918   6.110   7.255 -0.6161  0.2165 -0.8085
  169SAPE   H4X19135   0.843   6.040   7.299 -1.7845  1.1569 -1.2725
  169SAPE   H4Y19136   0.899   6.211   7.297 -2.7455 -0.7369  0.6202
  169SAPE   C3519137   1.046   6.055   7.321  0.0659  0.2638 -0.4266
  169SAPE   H5X19138   1.116   6.139   7.343  1.2813 -0.1930 -2.3873
  169SAPE   H5Y19139   1.087   5.982   7.248 -0.3883  0.0462 -0.4648
  169SAPE   C3619140   1.013   5.994   7.457  0.7469 -0.1049  1.1324
  169SAPE   H6X19141   1.102   5.939   7.495  0.7004  0.8069  2.5571
  169SAPE   H6Y19142   0.936   5.915   7.442  1.6653 -0.9852  0.9452
  169SAPE   C3719143   0.968   6.088   7.568  0.2857 -0.3810 -0.4611
  169SAPE   H7X19144   0.875   6.144   7.545  0.4111 -1.1412 -2.9768
  169SAPE   H7Y19145   1.051   6.161   7.581  0.4661 -0.3172 -1.8714
  169SAPE   C3819146   0.938   6.032   7.710 -0.8141 -0.1109  0.2537
  169SAPE   H8X19147   1.041   6.004   7.743 -0.9635  0.2641  1.0649
  169SAPE   H8Y19148   0.866   5.949   7.694 -0.9277  0.4044 -1.9770
  169SAPE   C3919149   0.873   6.118   7.817  0.7690  0.0666  0.2247
  169SAPE   H9X19150   0.789   6.167   7.763  0.2883 -1.4535 -0.4074
  169SAPE   H9Y19151   0.955   6.188   7.848  0.5872  0.0107  0.8494
  169SAPE  C31019152   0.814   6.036   7.937  0.1960 -0.9155  0.7145
  169SAPE  H10X19153   0.886   5.957   7.966  0.2053 -0.5345  1.7404
  169SAPE  H10Y19154   0.722   5.986   7.901  0.0893 -0.8327  0.8717
  169SAPE  C31119155   0.789   6.122   8.064 -0.6096  0.1935  0.0107
  169SAPE  H11X19156   0.711   6.197   8.039 -0.3180  1.0731  1.6272
  169SAPE  H11Y19157   0.881   6.183   8.076  0.5226 -1.9624  3.0218
  169SAPE  C31219158   0.755   6.053   8.195 -0.1321 -0.2993 -0.6022
  169SAPE  H12X19159   0.849   6.002   8.226 -1.1243 -1.0961  1.1375
  169SAPE  H12Y19160   0.680   5.975   8.170  0.4327 -1.1006  0.1751
  169SAPE  C31319161   0.705   6.145   8.299 -0.0814  0.7290  1.1136
  169SAPE  H13X19162   0.615   6.199   8.264 -1.1384 -2.4893 -1.2698
  169SAPE  H13Y19163   0.774   6.231   8.318  0.0268  0.5031  1.7741
  169SAPE  C31419164   0.651   6.079   8.424  0.2592  0.7862  0.5256
  169SAPE  H14X19165   0.715   5.998   8.467 -2.6014 -1.1106  1.3621
  169SAPE  H14Y19166   0.550   6.035   8.410  1.0424 -0.8682 -0.0222
  169SAPE  C31519167   0.624   6.172   8.537 -0.5784  0.1422 -0.8774
  169SAPE  H15X19168   0.545   6.246   8.512 -3.2338 -1.2321  2.8824
  169SAPE  H15Y19169   0.721   6.222   8.554 -1.2266  1.3335 -0.6572
  169SAPE  C31619170   0.593   6.090   8.669  0.5310  0.0127  0.1103
  169SAPE  H16X19171   0.686   6.033   8.686  1.5868  1.9138  0.8341
  169SAPE  H16Y19172   0.505   6.022   8.666 -0.0130  0.5138  3.1840
  169SAPE  C31719173   0.558   6.183   8.788 -0.6019  0.7346  0.3521
  169SAPE  H17X19174   0.629   6.269   8.782 -0.8439  0.7736 -2.3093
  169SAPE  H17Y19175   0.566   6.128   8.884  0.5049 -0.2850 -0.3111
  169SAPE  C31819176   0.418   6.246   8.778  0.0285 -0.2507 -0.0346
  169SAPE  H18X19177   0.344   6.163   8.782 -1.0315  0.5574 -2.1156
  169SAPE  H18Y19178   0.391   6.307   8.689 -1.2321  1.5205  1.5273
  169SAPE  H18Z19179   0.395   6.319   8.859 -1.4505  1.5523 -1.9914
  170SAPE     N19180   1.924   2.795   6.400 -0.1532 -0.8031 -0.5365
  170SAPE   HN119181   1.902   2.806   6.501  1.5800  1.0988 -0.3198
  170SAPE   HN219182   1.841   2.799   6.338  0.1256  0.2294 -0.8672
  170SAPE   HN319183   1.970   2.703   6.388  0.1365 -0.7782  0.3473
  170SAPE   C1219184   2.016   2.907   6.344  0.2098  0.2022  0.1587
  170SAPE  H12A19185   2.108   2.918   6.406 -0.0385 -0.7423  0.7184
  170SAPE  H12B19186   1.958   2.999   6.367  0.8866  0.4873  0.7239
  170SAPE   C1119187   2.038   2.897   6.190 -0.1983  0.3264 -0.7003
  170SAPE  H11A19188   2.093   2.802   6.172  1.5484  0.7019  2.3027
  170SAPE  H11B19189   2.113   2.973   6.159  0.6619  0.0416  0.6075
  170SAPE     P19190   1.841   3.041   6.085  0.3646 -0.0299 -0.2150
  170SAPE   O1319191   1.945   3.120   6.012 -0.6193 -0.3530 -0.3148
  170SAPE   O1419192   1.718   3.011   6.012  0.1079  0.3216 -0.0142
  170SAPE   O1219193   1.911   2.901   6.122  0.1111 -0.5508  0.1356
  170SAPE   O1119194   1.808   3.127   6.217 -0.7112 -0.3827 -0.2478
  170SAPE    C119195   1.694   3.087   6.290 -0.5888  0.2275 -0.3597
  170SAPE    HA19196   1.600   3.095   6.232  0.3042 -1.0553 -2.0083
  170SAPE    HB19197   1.700   2.984   6.332  1.1822  1.3935  2.4892
  170SAPE    C219198   1.669   3.171   6.420 -0.3830  0.5857 -0.2712
  170SAPE    HS19199   1.651   3.268   6.370 -0.2401  1.1437  0.7309
  170SAPE   O2119200   1.785   3.169   6.496  0.0039  0.6180  0.4130
  170SAPE   C2119201   1.804   3.272   6.566 -0.1476  0.1606  0.5254
  170SAPE   O2219202   1.752   3.380   6.558  0.0800  0.7452  0.3355
  170SAPE   C2219203   1.924   3.240   6.656 -0.2955  0.0246  0.5500
  170SAPE   H2R19204   1.926   3.130   6.674  0.6566  0.3744  2.7091
  170SAPE   H2S19205   2.009   3.276   6.595 -0.7530  0.7476  0.3401
  170SAPE    C319206   1.555   3.127   6.508  0.6050 -0.1266 -0.0544
  170SAPE    HX19207   1.560   3.021   6.541  0.8278 -0.3931 -0.9144
  170SAPE    HY19208   1.469   3.130   6.439 -0.4103 -1.1139  1.1447
  170SAPE   O3119209   1.519   3.203   6.625  0.2085 -0.2419  0.1349
  170SAPE   C3119210   1.431   3.304   6.611 -0.6439 -0.1581 -0.0167
  170SAPE   O3219211   1.386   3.336   6.500 -0.0434  0.3688  0.1761
  170SAPE   C3219212   1.393   3.371   6.750 -0.2071 -0.0995  0.3734
  170SAPE   H2X19213   1.282   3.365   6.744 -0.1263 -1.4529  0.0854
  170SAPE   H2Y19214   1.455   3.462   6.737 -0.7006  0.4029  1.5166
  170SAPE   C2319215   1.925   3.316   6.797 -0.1893 -0.2929 -0.2927
  170SAPE   H3R19216   2.016   3.278   6.849 -0.3344 -1.4803 -0.8896
  170SAPE   H3S19217   1.828   3.299   6.848 -0.5256  2.8660  0.2389
  170SAPE   C2419218   1.921   3.469   6.792  0.0526  0.1869  0.6393
  170SAPE   H4R19219   1.890   3.495   6.895  0.5391  0.9502  0.5919
  170SAPE   H4S19220   1.849   3.502   6.714 -0.8582  0.3055  1.5269
  170SAPE   C2519221   2.061   3.524   6.753 -0.2785  1.0239 -0.4674
  170SAPE   H5R19222   2.092   3.490   6.653 -0.5592 -0.5557 -0.0351
  170SAPE   C2619223   2.139   3.588   6.839 -0.3081  0.2568 -0.1317
  170SAPE   H6R19224   2.235   3.619   6.795  0.0029  1.3190  1.2638
  170SAPE   C2719225   2.110   3.618   6.982  0.6762 -0.0976  0.4351
  170SAPE   H7R19226   2.083   3.526   7.038  4.1322 -0.1569  2.1494
  170SAPE   H7S19227   2.020   3.681   6.998 -0.8814 -2.0943 -0.2514
  170SAPE   C2819228   2.237   3.671   7.045 -0.2548  0.1299  0.2472
  170SAPE   H8R19229   2.334   3.661   6.994  0.7551  2.7480  1.5777
  170SAPE   C2919230   2.251   3.722   7.163  0.9625  0.3818  0.8524
  170SAPE   H9R19231   2.349   3.762   7.191 -0.0969  1.7988  2.6700
  170SAPE  C21019232   2.147   3.742   7.268  0.7181 -0.1335 -0.2962
  170SAPE  H10R19233   2.047   3.745   7.220  1.5732 -1.5883 -2.2490
  170SAPE  H10S19234   2.171   3.838   7.319 -1.9376 -0.1662  1.0908
  170SAPE  C21119235   2.145   3.633   7.377  0.4761 -0.4597 -0.1410
  170SAPE  H11R19236   2.159   3.530   7.340  0.8715 -0.2470 -0.5945
  170SAPE  C21219237   2.079   3.643   7.501 -0.7212  0.1026  0.1245
  170SAPE  H12R19238   2.088   3.555   7.566  0.9799 -0.3809 -0.7038
  170SAPE  C21319239   2.008   3.766   7.553 -0.5681 -0.0315  0.5461
  170SAPE  H13R19240   1.997   3.837   7.469 -2.1446  1.3826  1.9140
  170SAPE  H13S19241   2.084   3.805   7.624 -0.3446 -0.4960  0.5607
  170SAPE  C21419242   1.871   3.737   7.605 -0.0959  0.3539  0.1673
  170SAPE  H14R19243   1.800   3.713   7.523 -1.1287 -0.1371  1.1891
  170SAPE  C21519244   1.831   3.747   7.731 -0.7568  0.2035 -0.1545
  170SAPE  H15R19245   1.731   3.705   7.749 -0.2273 -0.9102  0.2095
  170SAPE  C21619246   1.909   3.780   7.848  0.0941  0.1536 -1.0163
  170SAPE  H16R19247   1.853   3.851   7.913  1.2035  0.3841 -0.2938
  170SAPE  H16S19248   2.002   3.833   7.816  0.4480  1.5596  2.0972
  170SAPE  C21719249   1.939   3.671   7.951 -0.5736  0.1628  0.3415
  170SAPE  H17R19250   1.844   3.615   7.963 -1.8423  2.2404  0.2002
  170SAPE  H17S19251   1.954   3.704   8.056 -0.9502  2.1314 -0.2092
  170SAPE  C21819252   2.046   3.566   7.914 -0.8161  0.9589  0.5333
  170SAPE  H18R19253   2.008   3.521   7.819  0.3279 -1.3031  1.1087
  170SAPE  H18S19254   2.052   3.486   7.991 -0.9396  0.4529  0.0295
  170SAPE  C21919255   2.188   3.624   7.898 -0.4706  0.2051  0.1624
  170SAPE  H19R19256   2.214   3.663   7.999  0.7309  0.5756 -0.2782
  170SAPE  H19S19257   2.192   3.704   7.821 -0.7022  0.1846  0.1295
  170SAPE  C22019258   2.286   3.510   7.854 -0.3907  0.3532  0.5655
  170SAPE  H20R19259   2.380   3.551   7.813 -0.6160  0.9004  0.5959
  170SAPE  H20S19260   2.244   3.443   7.776 -1.1163  0.9108  0.4724
  170SAPE  H20T19261   2.308   3.442   7.939 -0.1491  1.1431  1.1327
  170SAPE   C3319262   1.447   3.308   6.874  0.0267 -0.1658 -0.1258
  170SAPE   H3X19263   1.556   3.290   6.868  0.0239 -0.7923  1.4956
  170SAPE   H3Y19264   1.397   3.211   6.896 -0.9255  0.4889  0.6391
  170SAPE   C3419265   1.432   3.396   7.000  0.1921  0.8308 -0.4998
  170SAPE   H4X19266   1.504   3.479   6.989 -1.2004  2.1328  0.0258
  170SAPE   H4Y19267   1.465   3.334   7.086 -1.9683  1.5817  0.9276
  170SAPE   C3519268   1.292   3.462   7.028  0.1932 -0.2907  0.1558
  170SAPE   H5X19269   1.273   3.514   6.932  1.1821 -2.2375 -1.1303
  170SAPE   H5Y19270   1.301   3.536   7.110  0.2675  0.4604 -0.5225
  170SAPE   C3619271   1.176   3.366   7.058  1.0625  0.1741 -1.1910
  170SAPE   H6X19272   1.217   3.262   7.050  0.7016 -0.2820  2.1663
  170SAPE   H6Y19273   1.086   3.385   6.996 -0.8141 -1.7543  0.8865
  170SAPE   C3719274   1.121   3.377   7.203 -0.2964  0.0855  1.4008
  170SAPE   H7X19275   1.081   3.479   7.218  1.1400  1.7858 -4.8841
  170SAPE   H7Y19276   1.198   3.354   7.280  0.4414 -1.9847  0.0906
  170SAPE   C3819277   1.018   3.265   7.227 -0.7273  0.3180 -0.2300
  170SAPE   H8X19278   1.058   3.165   7.199  2.6704  2.1529 -2.2498
  170SAPE   H8Y19279   0.927   3.276   7.164 -0.3683 -0.8665 -0.9694
  170SAPE   C3919280   0.975   3.250   7.381 -0.2913  0.0281 -0.0434
  170SAPE   H9X19281   1.057   3.198   7.435  0.7605 -1.8352 -3.2663
  170SAPE   H9Y19282   0.894   3.176   7.399  2.7587 -3.7134 -0.9671
  170SAPE  C31019283   0.964   3.380   7.455  0.0487  0.2034  0.2861
  170SAPE  H10X19284   0.890   3.446   7.406 -0.9200 -1.2628 -0.2469
  170SAPE  H10Y19285   1.067   3.421   7.467  0.4833 -0.8724  0.2651
  170SAPE  C31119286   0.918   3.359   7.603  0.0816 -0.2885 -0.6998
  170SAPE  H11X19287   0.823   3.301   7.601 -1.1540  1.5437  1.9513
  170SAPE  H11Y19288   0.875   3.455   7.638 -0.6745 -0.8694 -0.0199
  170SAPE  C31219289   1.022   3.308   7.699  0.3337 -0.2012  0.4859
  170SAPE  H12X19290   1.121   3.349   7.670 -0.4100  0.7851 -0.7159
  170SAPE  H12Y19291   1.033   3.198   7.686  0.9119 -0.0248 -0.5646
  170SAPE  C31319292   0.969   3.320   7.841  0.0675 -0.7009  0.0141
  170SAPE  H13X19293   0.870   3.271   7.853  0.2629 -1.5717 -1.8420
  170SAPE  H13Y19294   0.943   3.428   7.854 -0.0043 -0.6209 -0.7483
  170SAPE  C31419295   1.063   3.262   7.939 -0.0526  1.2082  0.7125
  170SAPE  H14X19296   1.097   3.161   7.908  0.4201  1.4926  0.3063
  170SAPE  H14Y19297   1.007   3.249   8.034 -0.8156  0.7366  0.2108
  170SAPE  C31519298   1.189   3.343   7.968 -0.2762  0.0751 -0.0868
  170SAPE  H15X19299   1.243   3.343   7.871 -0.8903  1.4463 -0.4377
  170SAPE  H15Y19300   1.252   3.283   8.038 -1.8219  1.4661  2.5916
  170SAPE  C31619301   1.173   3.480   8.036 -0.3070  0.5521 -0.7125
  170SAPE  H16X19302   1.111   3.545   7.970 -1.1582  0.8269  0.3425
  170SAPE  H16Y19303   1.272   3.528   8.052 -1.3024  1.8605  1.6975
  170SAPE  C31719304   1.101   3.477   8.175  0.0733 -0.4087  0.4698
  170SAPE  H17X19305   1.134   3.392   8.238 -1.3277 -0.3545  1.2875
  170SAPE  H17Y19306   0.994   3.459   8.152 -0.3078  0.2473  1.6919
  170SAPE  C31819307   1.106   3.616   8.239  0.4763  0.3924 -0.1965
  170SAPE  H18X19308   1.044   3.688   8.181 -0.9892 -0.9186 -0.2826
  170SAPE  H18Y19309   1.214   3.641   8.247  0.7621 -0.6717 -0.6612
  170SAPE  H18Z19310   1.073   3.602   8.344  0.4358  1.9124  0.0172
  171SAPE     N19311   3.764   3.261   6.230 -0.1898 -1.3013  0.4331
  171SAPE   HN119312   3.745   3.164   6.199 -0.7273 -0.7831 -0.9029
  171SAPE   HN219313   3.828   3.302   6.158 -0.6937 -1.0204  0.1438
  171SAPE   HN319314   3.815   3.250   6.320 -0.4363  0.4427  0.8031
  171SAPE   C1219315   3.638   3.340   6.249  0.1391 -0.2047  0.6895
  171SAPE  H12A19316   3.576   3.290   6.328 -0.3518 -0.5613  0.0849
  171SAPE  H12B19317   3.586   3.326   6.152  0.6861  0.3980  0.3110
  171SAPE   C1119318   3.671   3.484   6.282  0.3124  0.9043  0.6618
  171SAPE  H11A19319   3.722   3.488   6.380  1.0284  0.1641  0.3302
  171SAPE  H11B19320   3.577   3.541   6.295 -0.6073 -0.3973 -0.1629
  171SAPE     P19321   3.813   3.685   6.182 -0.0967  0.0256 -0.0895
  171SAPE   O1319322   3.937   3.687   6.265 -0.0279  0.4283 -0.0238
  171SAPE   O1419323   3.820   3.742   6.048  0.9155 -0.1107 -0.0439
  171SAPE   O1219324   3.749   3.540   6.174 -0.0058 -0.8187  0.2996
  171SAPE   O1119325   3.699   3.754   6.260 -0.2442 -0.0985  0.4507
  171SAPE    C119326   3.718   3.888   6.312 -0.0252  0.4421  0.4836
  171SAPE    HA19327   3.824   3.921   6.317  0.2167 -0.3682  0.9382
  171SAPE    HB19328   3.659   3.954   6.246 -0.2393 -1.0708 -0.8597
  171SAPE    C219329   3.659   3.890   6.456  0.2097  0.2394  0.4274
  171SAPE    HS19330   3.556   3.850   6.440  0.7123 -1.4467  1.2419
  171SAPE   O2119331   3.662   4.029   6.502  0.5324  0.2988 -0.0852
  171SAPE   C2119332   3.567   4.107   6.459 -0.8215 -0.2876 -0.2263
  171SAPE   O2219333   3.467   4.081   6.397  0.1405  0.1627 -0.0668
  171SAPE   C2219334   3.609   4.248   6.502  0.2812 -0.5988  0.3428
  171SAPE   H2R19335   3.710   4.256   6.547 -0.0983  0.2169  1.0463
  171SAPE   H2S19336   3.618   4.307   6.408  0.3482  0.8748  1.2555
  171SAPE    C319337   3.743   3.795   6.540 -0.2149  0.6119  0.0428
  171SAPE    HX19338   3.841   3.841   6.514 -0.6349  0.8505 -1.1552
  171SAPE    HY19339   3.754   3.692   6.500  1.1050  0.2993  1.1519
  171SAPE   O3119340   3.721   3.802   6.682 -0.4593  0.2120 -0.3848
  171SAPE   C3119341   3.622   3.724   6.729  0.3222 -0.6227  0.5554
  171SAPE   O3219342   3.534   3.678   6.658  0.2948 -0.0704 -0.7935
  171SAPE   C3219343   3.641   3.717   6.885  0.3272 -0.5852  0.7938
  171SAPE   H2X19344   3.616   3.819   6.921 -4.3619 -0.8218 -1.4881
  171SAPE   H2Y19345   3.743   3.682   6.912  0.3054 -0.9222  0.4468
  171SAPE   C2319346   3.508   4.323   6.593  0.2605 -0.0564 -0.0600
  171SAPE   H3R19347   3.400   4.304   6.572  0.0394  0.8908  0.1719
  171SAPE   H3S19348   3.519   4.432   6.574 -1.6880  0.2357  0.3204
  171SAPE   C2419349   3.534   4.296   6.739 -0.2483  0.0105 -0.6333
  171SAPE   H4R19350   3.643   4.302   6.761 -0.5181 -1.4028  1.1545
  171SAPE   H4S19351   3.506   4.189   6.743  2.0743 -0.6451 -1.4215
  171SAPE   C2519352   3.443   4.382   6.822 -0.0484  0.0554 -0.7584
  171SAPE   H5R19353   3.367   4.437   6.766  0.4106  1.3502 -0.1159
  171SAPE   C2619354   3.456   4.400   6.956  0.0701  0.0978  0.3592
  171SAPE   H6R19355   3.378   4.467   6.994 -0.9673 -0.4200 -0.7730
  171SAPE   C2719356   3.560   4.337   7.045  0.2294 -1.1086  0.3043
  171SAPE   H7R19357   3.623   4.413   7.098 -0.6904  0.4459 -0.7918
  171SAPE   H7S19358   3.628   4.276   6.982 -0.2782 -0.4129 -0.9263
  171SAPE   C2819359   3.493   4.250   7.146 -0.0569 -0.0681 -0.0508
  171SAPE   H8R19360   3.432   4.170   7.102  1.3912 -0.5822 -1.1755
  171SAPE   C2919361   3.472   4.275   7.280  0.3563 -0.3751 -0.1243
  171SAPE   H9R19362   3.406   4.209   7.338  0.2310  0.8667  1.1803
  171SAPE  C21019363   3.521   4.394   7.361 -0.3858 -0.8216  0.1316
  171SAPE  H10R19364   3.438   4.434   7.423 -3.0806 -2.8085 -2.0988
  171SAPE  H10S19365   3.549   4.474   7.289 -1.9487 -2.0206 -1.8364
  171SAPE  C21119366   3.647   4.377   7.448  0.5490  0.4048 -0.3204
  171SAPE  H11R19367   3.741   4.370   7.392 -0.7745 -2.2778 -2.3613
  171SAPE  C21219368   3.669   4.398   7.578 -0.3112 -0.2268  0.0074
  171SAPE  H12R19369   3.770   4.376   7.614 -0.1549  0.5939  0.0902
  171SAPE  C21319370   3.576   4.428   7.695 -1.0525 -0.1588 -0.2361
  171SAPE  H13R19371   3.473   4.439   7.655 -0.5703  1.1092 -1.1924
  171SAPE  H13S19372   3.604   4.527   7.736  2.4611 -0.3774 -1.8903
  171SAPE  C21419373   3.571   4.330   7.809 -0.6565 -0.4600  0.2002
  171SAPE  H14R19374   3.541   4.229   7.777  2.8660 -1.7473  0.7126
  171SAPE  C21519375   3.599   4.343   7.939 -0.3465  0.0273  0.8903
  171SAPE  H15R19376   3.581   4.253   8.000  0.1877 -0.8960 -0.2925
  171SAPE  C21619377   3.651   4.472   8.003 -0.1831  0.0266  0.0394
  171SAPE  H16R19378   3.724   4.538   7.951  1.7830  0.1025  2.7627
  171SAPE  H16S19379   3.718   4.429   8.081 -0.2801  1.3431  0.8656
  171SAPE  C21719380   3.535   4.547   8.071 -1.0415 -0.0024  0.2950
  171SAPE  H17R19381   3.458   4.579   7.996 -0.2148  0.1442 -0.4991
  171SAPE  H17S19382   3.576   4.643   8.110  0.9797 -0.5404 -0.4903
  171SAPE  C21819383   3.466   4.478   8.191  0.3049 -0.3717 -0.4745
  171SAPE  H18R19384   3.544   4.474   8.269 -0.0300 -0.8821 -0.1631
  171SAPE  H18S19385   3.451   4.371   8.165 -0.8727 -0.7281  1.5560
  171SAPE  C21919386   3.353   4.556   8.264 -0.1276 -0.3392  0.4677
  171SAPE  H19R19387   3.309   4.481   8.333  1.0191 -1.6474 -0.1997
  171SAPE  H19S19388   3.284   4.596   8.187 -0.5140 -0.8300  0.5560
  171SAPE  C22019389   3.407   4.669   8.354 -0.1036 -0.9200  0.2199
  171SAPE  H20R19390   3.429   4.620   8.452  3.9353  2.7376  1.3104
  171SAPE  H20S19391   3.334   4.752   8.361 -2.1982 -2.3485 -3.4976
  171SAPE  H20T19392   3.504   4.698   8.307  0.1592 -0.0391  1.2707
  171SAPE   C3319393   3.534   3.626   6.949  0.3152  0.1297  0.4886
  171SAPE   H3X19394   3.570   3.602   7.052 -0.6205  0.6577  0.9514
  171SAPE   H3Y19395   3.526   3.537   6.883  0.1869  2.2392 -2.4157
  171SAPE   C3419396   3.400   3.692   6.961 -0.0771  0.0199 -1.1424
  171SAPE   H4X19397   3.323   3.617   6.991  0.7139 -0.5159 -0.4356
  171SAPE   H4Y19398   3.368   3.745   6.869  0.3271 -1.0760 -1.9284
  171SAPE   C3519399   3.374   3.800   7.063  0.3585  0.0357 -0.3935
  171SAPE   H5X19400   3.269   3.829   7.042  0.2324 -0.3944 -0.3660
  171SAPE   H5Y19401   3.444   3.885   7.052  0.3566  0.3003  1.5480
  171SAPE   C3619402   3.385   3.752   7.204 -0.2513 -0.1763 -1.0002
  171SAPE   H6X19403   3.474   3.685   7.206  0.5669  0.8566 -2.0279
  171SAPE   H6Y19404   3.299   3.690   7.235 -0.0827  0.8271  1.6633
  171SAPE   C3719405   3.399   3.866   7.309 -0.2036  0.5013  0.4324
  171SAPE   H7X19406   3.326   3.943   7.276  0.0592 -0.0698 -1.5964
  171SAPE   H7Y19407   3.500   3.910   7.293  0.4016 -0.1470  2.3188
  171SAPE   C3819408   3.387   3.809   7.446  0.0574  0.1557 -0.2895
  171SAPE   H8X19409   3.452   3.720   7.465 -1.2083 -0.7543 -0.1491
  171SAPE   H8Y19410   3.282   3.775   7.438 -0.2379  1.1865 -0.7807
  171SAPE   C3919411   3.402   3.903   7.563  0.0384 -0.2979  0.9317
  171SAPE   H9X19412   3.333   3.988   7.547 -0.5353 -0.9494 -0.1658
  171SAPE   H9Y19413   3.503   3.946   7.579 -1.2952  1.7123  4.6068
  171SAPE  C31019414   3.357   3.828   7.690  0.0908 -0.1131 -0.4604
  171SAPE  H10X19415   3.425   3.742   7.711 -1.0033 -0.8482  0.0857
  171SAPE  H10Y19416   3.261   3.777   7.665  0.2071 -0.6913  0.2733
  171SAPE  C31119417   3.346   3.918   7.814  0.4954 -0.7551  0.1337
  171SAPE  H11X19418   3.291   4.010   7.785  0.1863 -1.7516 -2.4949
  171SAPE  H11Y19419   3.446   3.951   7.849 -0.1559  0.2285  1.1221
  171SAPE  C31219420   3.280   3.832   7.921  0.2355 -0.1708 -0.7440
  171SAPE  H12X19421   3.312   3.728   7.940  1.5915  0.1701 -1.1475
  171SAPE  H12Y19422   3.177   3.818   7.880 -0.0320 -1.3217  0.3121
  171SAPE  C31319423   3.269   3.910   8.046 -0.2401 -0.1934 -0.3434
  171SAPE  H13X19424   3.197   3.872   8.122 -0.0675  0.1228 -0.0174
  171SAPE  H13Y19425   3.229   4.010   8.020 -0.2060  0.0252  0.4314
  171SAPE  C31419426   3.401   3.934   8.119  0.6760  0.5010  0.1496
  171SAPE  H14X19427   3.492   3.945   8.057  1.2784 -1.7134  0.6059
  171SAPE  H14Y19428   3.417   3.841   8.178 -2.8271 -0.1130  0.2462
  171SAPE  C31519429   3.390   4.045   8.219 -0.0601 -0.2027 -0.0598
  171SAPE  H15X19430   3.316   4.036   8.301  0.9529 -3.2484  0.5835
  171SAPE  H15Y19431   3.356   4.135   8.163 -0.0576  0.0149  0.2855
  171SAPE  C31619432   3.524   4.066   8.300  0.0001  0.3697  0.4495
  171SAPE  H16X19433   3.598   4.094   8.222 -0.9339  0.6686 -0.3421
  171SAPE  H16Y19434   3.558   3.968   8.339  0.9112  0.6182  0.2818
  171SAPE  C31719435   3.506   4.166   8.414 -0.4045 -0.2463  0.1433
  171SAPE  H17X19436   3.441   4.119   8.491  1.2825  0.7939  2.2664
  171SAPE  H17Y19437   3.458   4.256   8.370  0.0955  0.1249  0.3487
  171SAPE  C31819438   3.643   4.215   8.480  0.1955 -0.2385 -0.0474
  171SAPE  H18X19439   3.697   4.275   8.404 -0.5406  0.5756  0.0705
  171SAPE  H18Y19440   3.707   4.135   8.523  0.0461 -0.5149 -0.3309
  171SAPE  H18Z19441   3.631   4.281   8.568 -1.9010  0.3516 -0.7451
  172SAPE     N19442   2.820   2.837   6.157  0.5604  0.9256 -0.2711
  172SAPE   HN119443   2.863   2.773   6.088 -1.2414  0.3297 -0.8608
  172SAPE   HN219444   2.804   2.932   6.116 -1.3534  0.0404 -1.6494
  172SAPE   HN319445   2.877   2.846   6.243  0.5169  1.1276 -0.2626
  172SAPE   C1219446   2.688   2.779   6.206 -0.5082  0.1263  0.2055
  172SAPE  H12A19447   2.617   2.759   6.123  0.2687  0.4203 -0.5443
  172SAPE  H12B19448   2.635   2.840   6.283 -2.3370 -1.9102  0.6135
  172SAPE   C1119449   2.734   2.651   6.275 -0.0249 -0.2435  0.5797
  172SAPE  H11A19450   2.766   2.583   6.193 -0.9392 -0.1621  0.1462
  172SAPE  H11B19451   2.641   2.614   6.323  0.9672 -2.2936  0.9737
  172SAPE     P19452   2.877   2.578   6.480 -0.2233  0.0564 -0.6233
  172SAPE   O1319453   2.885   2.450   6.405 -0.2159  0.1233 -0.8059
  172SAPE   O1419454   2.991   2.633   6.555 -0.4733  0.1295  0.2363
  172SAPE   O1219455   2.834   2.685   6.375  0.1526  0.0911 -0.2548
  172SAPE   O1119456   2.750   2.568   6.574 -0.0233  0.3000 -0.0604
  172SAPE    C119457   2.691   2.687   6.626  0.6509  0.0697 -0.4397
  172SAPE    HA19458   2.768   2.763   6.651  0.5186  0.6898 -1.8562
  172SAPE    HB19459   2.630   2.733   6.546  0.5366 -1.8832 -1.4982
  172SAPE    C219460   2.606   2.663   6.750 -0.6777 -0.0924  0.2511
  172SAPE    HS19461   2.557   2.760   6.775  2.3931  1.4684  0.4160
  172SAPE   O2119462   2.695   2.612   6.849  0.0491  0.3720 -0.0355
  172SAPE   C2119463   2.661   2.625   6.978  0.1900  0.3377 -0.3190
  172SAPE   O2219464   2.598   2.726   7.014 -0.1784  0.2059 -0.0465
  172SAPE   C2219465   2.724   2.517   7.061 -0.1190 -0.6610  0.5998
  172SAPE   H2R19466   2.792   2.564   7.136  0.4391 -1.1872  0.4347
  172SAPE   H2S19467   2.644   2.479   7.128 -2.5142 -0.2917 -1.9712
  172SAPE    C319468   2.496   2.557   6.723  0.3423 -0.4021 -0.2865
  172SAPE    HX19469   2.552   2.462   6.711  1.7612  0.5891 -1.9204
  172SAPE    HY19470   2.456   2.568   6.620  0.1776 -0.4102 -0.2224
  172SAPE   O3119471   2.400   2.550   6.831  0.2539 -0.2845  0.3322
  172SAPE   C3119472   2.288   2.615   6.814 -1.1375  0.8820  0.3289
  172SAPE   O3219473   2.266   2.686   6.716  0.0107  0.0017 -0.0393
  172SAPE   C3219474   2.203   2.603   6.931  0.3490 -0.6551 -0.5013
  172SAPE   H2X19475   2.195   2.493   6.946  1.2711 -0.8747 -1.5422
  172SAPE   H2Y19476   2.108   2.659   6.918  0.9977  0.0847 -2.1817
  172SAPE   C2319477   2.795   2.403   6.986 -0.3398  0.1755 -0.3835
  172SAPE   H3R19478   2.871   2.445   6.917  1.3991  0.2332  1.5267
  172SAPE   H3S19479   2.721   2.348   6.923 -2.4128  1.4217  0.8933
  172SAPE   C2419480   2.872   2.298   7.070  0.1399 -0.8111 -0.3178
  172SAPE   H4R19481   2.924   2.227   7.002 -0.3444 -2.5494  1.0837
  172SAPE   H4S19482   2.793   2.242   7.125 -0.7342 -0.6076 -1.3288
  172SAPE   C2519483   2.967   2.355   7.171 -0.3602  0.2179  0.2932
  172SAPE   H5R19484   3.043   2.423   7.129 -1.1031  2.2182  2.0867
  172SAPE   C2619485   2.988   2.318   7.300 -0.1658 -0.0979 -0.1269
  172SAPE   H6R19486   3.058   2.368   7.368 -0.6255  0.7302 -0.2648
  172SAPE   C2719487   2.891   2.236   7.377 -0.5797 -1.4903  0.2200
  172SAPE   H7R19488   2.950   2.187   7.457 -0.7588 -1.7625  0.1880
  172SAPE   H7S19489   2.855   2.158   7.307 -1.4299 -1.2822  0.4161
  172SAPE   C2819490   2.776   2.320   7.430  0.2475 -0.2650  0.7239
  172SAPE   H8R19491   2.746   2.403   7.364  0.9993  1.1623  2.1221
  172SAPE   C2919492   2.712   2.311   7.549 -0.3436  0.1097  0.4435
  172SAPE   H9R19493   2.631   2.386   7.547 -0.1649  0.2964 -0.0193
  172SAPE  C21019494   2.742   2.236   7.675  0.2696  0.0052 -0.0639
  172SAPE  H10R19495   2.835   2.177   7.660  0.5810  0.6482 -0.6836
  172SAPE  H10S19496   2.671   2.150   7.680 -0.0481  0.3953  2.8982
  172SAPE  C21119497   2.752   2.313   7.806  0.5195 -0.0072  0.4464
  172SAPE  H11R19498   2.672   2.385   7.828  0.2021 -0.2028 -0.0527
  172SAPE  C21219499   2.850   2.293   7.898 -0.2173 -0.1325  0.3140
  172SAPE  H12R19500   2.862   2.367   7.979  0.2868 -1.3374  1.3633
  172SAPE  C21319501   2.977   2.206   7.894  0.0866  0.7447  0.3181
  172SAPE  H13R19502   2.974   2.130   7.812  0.1739 -0.3399  1.3082
  172SAPE  H13S19503   2.998   2.140   7.981 -2.6230 -1.0530 -0.3256
  172SAPE  C21419504   3.096   2.297   7.862 -0.1400 -0.3479 -0.3457
  172SAPE  H14R19505   3.068   2.360   7.777  0.8634  0.8810  0.2163
  172SAPE  C21519506   3.223   2.310   7.900  0.2847  0.0994  0.0193
  172SAPE  H15R19507   3.293   2.378   7.848  2.5456 -1.8900  0.3550
  172SAPE  C21619508   3.293   2.217   8.000  0.0967 -0.3005  0.3283
  172SAPE  H16R19509   3.378   2.173   7.943  0.4589 -2.7449  2.6642
  172SAPE  H16S19510   3.226   2.134   8.029 -1.0103 -0.3094 -2.1360
  172SAPE  C21719511   3.352   2.267   8.131  0.1352 -0.9287 -0.3486
  172SAPE  H17R19512   3.387   2.178   8.188 -3.4878 -2.6535 -0.6658
  172SAPE  H17S19513   3.292   2.339   8.191  1.8491 -0.1379  0.4368
  172SAPE  C21819514   3.483   2.346   8.094 -0.5721 -0.4209 -0.1413
  172SAPE  H18R19515   3.471   2.440   8.036  0.2869 -0.3049 -0.1413
  172SAPE  H18S19516   3.536   2.292   8.013 -0.2186 -0.3816  0.0654
  172SAPE  C21919517   3.576   2.374   8.215  0.4275 -0.0625  0.0529
  172SAPE  H19R19518   3.557   2.285   8.280 -1.1846  0.5931  0.4905
  172SAPE  H19S19519   3.547   2.465   8.271 -1.1387 -0.5388  0.0474
  172SAPE  C22019520   3.719   2.389   8.161 -0.7341  0.4893 -0.1446
  172SAPE  H20R19521   3.762   2.289   8.141 -0.8575  0.0545  1.6970
  172SAPE  H20S19522   3.781   2.437   8.240 -3.1289  1.9675  0.9022
  172SAPE  H20T19523   3.722   2.442   8.063 -0.7932 -2.0205 -1.5409
  172SAPE   C3319524   2.274   2.659   7.052  0.3923  0.3831 -0.0229
  172SAPE   H3X19525   2.327   2.752   7.023  1.9234 -1.0592 -1.9906
  172SAPE   H3Y19526   2.343   2.592   7.108  0.4488  0.0143 -0.5257
  172SAPE   C3419527   2.168   2.701   7.157 -0.0738  0.3794  0.5922
  172SAPE   H4X19528   2.116   2.610   7.194  1.2228 -0.2213  0.9496
  172SAPE   H4Y19529   2.094   2.759   7.099  0.0663 -0.4960 -0.4858
  172SAPE   C3519530   2.228   2.784   7.266  0.3776 -0.7083 -0.3428
  172SAPE   H5X19531   2.145   2.822   7.330  2.3611  0.5674  1.5425
  172SAPE   H5Y19532   2.277   2.878   7.233  0.0418 -0.2452  0.4596
  172SAPE   C3619533   2.317   2.708   7.364  0.3396  0.4302 -0.3759
  172SAPE   H6X19534   2.382   2.633   7.313  1.1789 -0.5343  2.0517
  172SAPE   H6Y19535   2.253   2.638   7.421  0.5533 -0.1553 -0.8519
  172SAPE   C3719536   2.396   2.795   7.469 -0.0329 -0.1312 -0.1154
  172SAPE   H7X19537   2.432   2.882   7.410 -1.5004 -1.1043 -2.5014
  172SAPE   H7Y19538   2.488   2.745   7.505  0.6647 -0.0978 -1.8095
  172SAPE   C3819539   2.310   2.842   7.582 -0.0637  0.0857 -0.7852
  172SAPE   H8X19540   2.259   2.758   7.634 -2.3586  1.1338 -1.2626
  172SAPE   H8Y19541   2.229   2.914   7.557 -2.2488 -1.7562  0.7120
  172SAPE   C3919542   2.397   2.890   7.705 -0.7133  0.2683 -0.1756
  172SAPE   H9X19543   2.472   2.819   7.746 -1.3620  1.5072  3.3728
  172SAPE   H9Y19544   2.327   2.907   7.790 -1.6995 -0.7983 -0.7478
  172SAPE  C31019545   2.469   3.019   7.675  0.2110 -0.0719 -0.1656
  172SAPE  H10X19546   2.397   3.088   7.624 -0.5578 -1.8293 -1.4937
  172SAPE  H10Y19547   2.550   2.987   7.606 -1.0908  0.0604 -1.7927
  172SAPE  C31119548   2.531   3.093   7.803 -0.7399 -0.5884 -0.3517
  172SAPE  H11X19549   2.621   3.045   7.848 -0.1549  0.6649 -0.1678
  172SAPE  H11Y19550   2.455   3.076   7.883 -1.3919 -0.6838 -0.9876
  172SAPE  C31219551   2.549   3.243   7.796 -0.3513  0.6514 -0.1235
  172SAPE  H12X19552   2.450   3.282   7.830 -1.6988 -0.9489 -2.1218
  172SAPE  H12Y19553   2.571   3.267   7.690 -1.7760 -1.2841 -0.9018
  172SAPE  C31319554   2.659   3.300   7.882 -0.3050 -0.1568 -0.1978
  172SAPE  H13X19555   2.746   3.247   7.839 -0.3815 -0.2284 -0.2636
  172SAPE  H13Y19556   2.653   3.273   7.990  1.6052 -2.1746 -0.5657
  172SAPE  C31419557   2.682   3.451   7.867  0.1156 -0.2743  0.3636
  172SAPE  H14X19558   2.582   3.498   7.881  0.3374  0.4245 -0.3583
  172SAPE  H14Y19559   2.703   3.467   7.759  0.6969  3.1172  0.9324
  172SAPE  C31519560   2.795   3.509   7.954 -0.4760 -0.6879 -0.1884
  172SAPE  H15X19561   2.887   3.456   7.923  0.0173 -0.2155  0.4304
  172SAPE  H15Y19562   2.764   3.482   8.057 -0.8094  0.4187  0.0161
  172SAPE  C31619563   2.809   3.662   7.952 -0.3836  0.0049 -0.2595
  172SAPE  H16X19564   2.863   3.707   8.038 -0.1812 -1.1082  0.2045
  172SAPE  H16Y19565   2.706   3.703   7.963 -0.2652  0.2525 -0.0748
  172SAPE  C31719566   2.883   3.730   7.835 -0.3647 -0.3955  0.1762
  172SAPE  H17X19567   2.854   3.686   7.738  1.8166 -1.7814  0.1211
  172SAPE  H17Y19568   2.993   3.712   7.836  0.1204  2.2627  0.8317
  172SAPE  C31819569   2.859   3.877   7.842 -0.1121 -0.6898 -0.4656
  172SAPE  H18X19570   2.939   3.928   7.785  0.0208  0.2155  0.5060
  172SAPE  H18Y19571   2.866   3.918   7.945  0.6970  2.7848 -1.8275
  172SAPE  H18Z19572   2.772   3.922   7.789  0.9718  2.0599 -0.0153
  173SOPE     N19573   2.978   0.071  11.219 -0.0357  0.2096 -0.3167
  173SOPE   HN119574   3.027  -0.006  11.169  0.6472 -1.2630  2.4895
  173SOPE   HN219575   3.002   0.064  11.320 -2.1383 -0.7740  0.1460
  173SOPE   HN319576   2.877   0.046  11.210  0.2274 -0.1668 -2.6428
  173SOPE   C1219577   3.027   0.203  11.184 -0.0300 -0.5934  0.2475
  173SOPE  H12A19578   3.124   0.226  11.233  1.1362 -0.4531 -2.0427
  173SOPE  H12B19579   2.953   0.269  11.233  0.3259  0.6263 -0.8380
  173SOPE   C1119580   3.053   0.226  11.035 -0.6298  0.3081  0.4252
  173SOPE  H11A19581   3.147   0.169  11.019 -1.5214 -1.3519  0.9724
  173SOPE  H11B19582   3.087   0.326  11.002  1.3075 -0.9700 -1.6351
  173SOPE     P19583   2.842   0.242  10.878  0.0943 -0.2439 -0.0472
  173SOPE   O1319584   2.781   0.338  10.976 -0.5573 -0.5169  1.0212
  173SOPE   O1419585   2.754   0.140  10.815  0.2862  0.2915 -0.2080
  173SOPE   O1219586   2.957   0.161  10.953  0.1404  0.0741 -0.4327
  173SOPE   O1119587   2.931   0.315  10.768 -0.4034 -0.0297  0.1317
  173SOPE    C119588   3.034   0.249  10.690 -0.0721 -0.6235 -0.1430
  173SOPE    HA19589   2.980   0.189  10.614 -0.3046  0.5644 -0.9329
  173SOPE    HB19590   3.105   0.183  10.744  0.1760 -0.9123 -0.8142
  173SOPE    C219591   3.130   0.349  10.614  0.5022  0.0665 -0.5735
  173SOPE    HS19592   3.185   0.404  10.694 -1.1938  0.4683  0.3220
  173SOPE   O2119593   3.050   0.440  10.535  0.2097  0.4070 -0.6452
  173SOPE   C2119594   3.123   0.545  10.480 -0.4966  0.8372  0.0038
  173SOPE   O2219595   3.242   0.562  10.507  0.8155  0.0548  0.2633
  173SOPE   C2219596   3.043   0.626  10.373  0.0380  0.0156  0.5668
  173SOPE   H2R19597   3.014   0.724  10.418  0.9622  1.3915 -1.7202
  173SOPE   H2S19598   2.941   0.581  10.379 -0.6523  1.3029 -0.8789
  173SOPE    C319599   3.244   0.265  10.535  0.5807 -0.1587 -0.3910
  173SOPE    HX19600   3.264   0.169  10.587  1.5096  1.0521  1.5296
  173SOPE    HY19601   3.335   0.329  10.529 -0.6877  1.6527 -0.9069
  173SOPE   O3119602   3.200   0.239  10.401 -0.8236  0.2446  0.3110
  173SOPE   C3119603   3.267   0.140  10.338  0.1666  0.1109 -0.0924
  173SOPE   O3219604   3.353   0.071  10.390 -0.5390  0.0268  0.4909
  173SOPE   C3219605   3.234   0.133  10.191 -0.7069 -0.6892 -0.0053
  173SOPE   H2X19606   3.261   0.233  10.151 -0.8029 -0.3851  0.6755
  173SOPE   H2Y19607   3.125   0.116  10.179 -0.7390 -0.6702  0.2605
  173SOPE   C2319608   3.096   0.638  10.228 -0.1922  0.5951  0.2690
  173SOPE   H3R19609   3.192   0.693  10.244  0.4999 -0.0768 -1.5227
  173SOPE   H3S19610   3.030   0.696  10.160 -2.1516  0.5082  2.0471
  173SOPE   C2419611   3.144   0.502  10.168 -0.3989 -0.0284  0.5501
  173SOPE   H4R19612   3.216   0.459  10.241 -0.9286  1.2713  1.8715
  173SOPE   H4S19613   3.061   0.430  10.155 -0.4354 -0.1386  1.3620
  173SOPE   C2519614   3.222   0.517  10.037 -0.7725  0.2322 -0.0403
  173SOPE   H5R19615   3.310   0.583  10.051 -0.5856 -0.0304  0.0139
  173SOPE   H5S19616   3.267   0.418  10.015  0.5824  0.9753 -0.6405
  173SOPE   C2619617   3.132   0.562   9.919  0.3555 -0.4920  0.2541
  173SOPE   H6R19618   3.064   0.478   9.893 -1.5000  1.0971 -0.0666
  173SOPE   H6S19619   3.076   0.647   9.964 -1.0306 -0.8665 -0.7569
  173SOPE   C2719620   3.193   0.631   9.802  0.3347  0.5496 -0.9793
  173SOPE   H7R19621   3.111   0.681   9.746  0.5465  2.7681  0.6016
  173SOPE   H7S19622   3.253   0.715   9.843 -0.6739 -0.8632  3.6922
  173SOPE   C2819623   3.266   0.542   9.704 -0.0666  0.1141 -0.6059
  173SOPE   H8R19624   3.340   0.493   9.771  1.4328  0.2951 -2.0847
  173SOPE   H8S19625   3.204   0.456   9.672  0.7167 -1.1249  1.1836
  173SOPE   C2919626   3.344   0.614   9.593  0.1035  0.0093 -0.3921
  173SOPE   H9119627   3.405   0.698   9.630 -0.5907 -0.2292  1.3117
  173SOPE  C21019628   3.328   0.593   9.461 -0.6608  0.0731  0.5460
  173SOPE  H10119629   3.407   0.627   9.392  0.0432  0.1015  1.3606
  173SOPE  C21119630   3.232   0.489   9.401  0.4483 -0.1882 -0.3341
  173SOPE  H11R19631   3.140   0.490   9.463  1.9274  1.6557  1.8851
  173SOPE  H11S19632   3.271   0.385   9.400  2.5680  0.5664 -2.8492
  173SOPE  C21219633   3.197   0.535   9.255  0.1978 -0.3356  0.1539
  173SOPE  H12R19634   3.157   0.638   9.249  0.0407 -0.4764 -1.3081
  173SOPE  H12S19635   3.117   0.463   9.226 -0.9489  0.5702  1.0352
  173SOPE  C21319636   3.313   0.529   9.155  0.2196  0.1684 -0.6351
  173SOPE  H13R19637   3.357   0.427   9.149  0.5801 -0.0255  3.6837
  173SOPE  H13S19638   3.400   0.587   9.190  0.7002 -0.2841 -1.0739
  173SOPE  C21419639   3.282   0.576   9.007 -0.1198  0.5749  0.1759
  173SOPE  H14R19640   3.238   0.676   9.029 -1.8983 -0.5665  1.9385
  173SOPE  H14S19641   3.214   0.500   8.965  1.4268 -1.7129  1.7314
  173SOPE  C21519642   3.410   0.594   8.911  0.2092  0.5625  0.1448
  173SOPE  H15R19643   3.459   0.496   8.893  0.7960  0.7723  0.5812
  173SOPE  H15S19644   3.487   0.657   8.962 -0.2097 -0.0408  1.5180
  173SOPE  C21619645   3.395   0.662   8.772  0.1560 -0.0462 -0.2834
  173SOPE  H16R19646   3.348   0.761   8.786 -1.1619 -0.3768 -2.1626
  173SOPE  H16S19647   3.334   0.598   8.704  0.3967 -0.1662 -0.3896
  173SOPE  C21719648   3.528   0.688   8.704 -0.1349  0.4461  0.5813
  173SOPE  H17R19649   3.563   0.584   8.686  0.2152  0.7110 -0.3583
  173SOPE  H17S19650   3.594   0.742   8.775 -0.3837 -1.4723  2.2901
  173SOPE  C21819651   3.514   0.762   8.570 -0.4795  0.0867 -0.5731
  173SOPE  H18R19652   3.614   0.756   8.522 -1.0662 -0.8757 -1.6632
  173SOPE  H18S19653   3.494   0.870   8.590  0.9377  0.3418 -0.4677
  173SOPE  H18T19654   3.437   0.710   8.509  0.9952 -0.9814 -1.5430
  173SOPE   C3319655   3.298   0.021  10.109  0.5049 -0.3920  0.3503
  173SOPE   H3X19656   3.243   0.010  10.014  0.9517  0.5601 -0.0275
  173SOPE   H3Y19657   3.298  -0.075  10.165  0.5412  0.0904  1.1824
  173SOPE   C3419658   3.443   0.061  10.069 -0.0107  0.0966  0.7431
  173SOPE   H4X19659   3.498   0.067  10.166 -1.1549 -0.9475  1.4761
  173SOPE   H4Y19660   3.439   0.161  10.021  1.7412 -0.5140 -0.7346
  173SOPE   C3519661   3.503  -0.035   9.971 -0.0613 -0.3480  0.7787
  173SOPE   H5X19662   3.491  -0.139  10.008 -1.2029 -1.1179 -1.6297
  173SOPE   H5Y19663   3.610  -0.020   9.946 -0.2704 -1.0394 -0.6070
  173SOPE   C3619664   3.447  -0.038   9.827 -0.3253  0.1459 -0.0902
  173SOPE   H6X19665   3.346  -0.084   9.830  0.3854 -1.4066  0.0850
  173SOPE   H6Y19666   3.513  -0.106   9.770  0.3097 -0.0334  0.8438
  173SOPE   C3719667   3.433   0.092   9.753 -0.0623 -0.0467 -0.3771
  173SOPE   H7X19668   3.517   0.155   9.788  0.6217 -0.9832 -0.3176
  173SOPE   H7Y19669   3.347   0.149   9.793  0.3367  0.7006 -0.5759
  173SOPE   C3819670   3.445   0.078   9.598  0.4591 -0.7157  0.4034
  173SOPE   H8X19671   3.541   0.035   9.562  1.0425  0.1093  0.9625
  173SOPE   H8Y19672   3.449   0.182   9.559 -0.8310 -0.6539  0.4153
  173SOPE   C3919673   3.341  -0.003   9.519 -0.8837 -0.2886  0.1050
  173SOPE   H9X19674   3.245   0.052   9.512 -0.8804 -0.0392  1.7059
  173SOPE   H9Y19675   3.342  -0.093   9.585 -0.0813  0.4885  1.1600
  173SOPE  C31019676   3.383  -0.024   9.377 -0.3638  0.0639  0.1450
  173SOPE  H10X19677   3.472  -0.088   9.396 -1.4334 -1.9252 -1.2888
  173SOPE  H10Y19678   3.411   0.068   9.322  2.2587 -0.1337  1.0746
  173SOPE  C31119679   3.288  -0.110   9.288  0.7464  0.2673 -0.5471
  173SOPE  H11X19680   3.183  -0.075   9.290 -0.1810 -2.1972 -2.5128
  173SOPE  H11Y19681   3.278  -0.214   9.326  2.5089  1.1362  2.5440
  173SOPE  C31219682   3.321  -0.114   9.133 -0.6011  0.4518 -0.5154
  173SOPE  H12X19683   3.314  -0.012   9.089 -1.7062  0.2054 -0.9108
  173SOPE  H12Y19684   3.249  -0.176   9.076  0.8470 -0.8992 -0.9200
  173SOPE  C31319685   3.461  -0.164   9.105  0.1350 -0.3699 -0.2451
  173SOPE  H13X19686   3.462  -0.273   9.125 -2.9050 -0.0408  2.0275
  173SOPE  H13Y19687   3.530  -0.107   9.171  0.7282 -0.7442 -0.5361
  173SOPE  C31419688   3.518  -0.125   8.967  0.3028 -0.1539  0.6200
  173SOPE  H14X19689   3.613  -0.182   8.960 -0.5987 -1.6885  0.6761
  173SOPE  H14Y19690   3.525  -0.014   8.969 -0.6246 -0.1047  1.1706
  173SOPE  C31519691   3.451  -0.192   8.845 -0.4197  0.4715 -0.3872
  173SOPE  H15X19692   3.347  -0.156   8.832 -1.2995 -2.2352 -1.2204
  173SOPE  H15Y19693   3.445  -0.302   8.859  0.9055  0.1847 -1.9306
  173SOPE  C31619694   3.523  -0.180   8.706  0.0479 -0.0250  0.0802
  173SOPE  H16X19695   3.495  -0.248   8.622 -2.3666  1.6745 -0.5198
  173SOPE  H16Y19696   3.627  -0.206   8.735 -0.3598 -0.9386  0.7401
  173SOPE  C31719697   3.525  -0.029   8.669 -0.9968 -0.4898 -0.0101
  173SOPE  H17X19698   3.571   0.041   8.743  1.2740 -3.0816  1.1140
  173SOPE  H17Y19699   3.418  -0.000   8.667 -0.8237  0.1244 -0.6249
  173SOPE  C31819700   3.599  -0.008   8.528 -0.1218  0.0237  0.1121
  173SOPE  H18X19701   3.704  -0.045   8.537 -0.8940 -1.8090  2.1063
  173SOPE  H18Y19702   3.596   0.100   8.502  2.4916  0.3207  0.8923
  173SOPE  H18Z19703   3.548  -0.067   8.449  0.8471  1.1909 -1.4131
  174SOPE     N19704   2.291   5.866  10.811  0.1965 -0.2358  0.0869
  174SOPE   HN119705   2.289   5.968  10.830  2.3071 -0.2679  0.5967
  174SOPE   HN219706   2.192   5.836  10.813  0.2870 -0.8626 -2.7390
  174SOPE   HN319707   2.341   5.811  10.883  1.6244  1.3945  0.3733
  174SOPE   C1219708   2.350   5.840  10.673  0.3198  0.7204 -0.1033
  174SOPE  H12A19709   2.277   5.872  10.595 -2.0724 -0.5761  1.5607
  174SOPE  H12B19710   2.357   5.730  10.667 -2.6807  0.3922  1.5156
  174SOPE   C1119711   2.485   5.915  10.654  0.0211 -0.3101  0.5873
  174SOPE  H11A19712   2.480   6.021  10.685  0.5391 -0.4538  1.1826
  174SOPE  H11B19713   2.508   5.920  10.546  2.8021  0.1710  1.1491
  174SOPE     P19714   2.690   5.905  10.821 -0.2492  0.2911 -0.4109
  174SOPE   O1319715   2.794   5.809  10.878  0.2166  0.8622  0.2809
  174SOPE   O1419716   2.611   5.968  10.928  0.0700  0.5142 -0.2454
  174SOPE   O1219717   2.599   5.841  10.707 -0.5854  0.2290 -0.2842
  174SOPE   O1119718   2.760   6.022  10.746  0.4065 -0.1671 -0.1178
  174SOPE    C119719   2.853   5.974  10.645  1.3344  0.0754  0.3418
  174SOPE    HA19720   2.825   6.015  10.546 -1.8653 -1.6706  0.4628
  174SOPE    HB19721   2.847   5.866  10.622  1.2569 -0.3312  2.1679
  174SOPE    C219722   2.995   6.011  10.680  0.8589  0.3879 -0.5682
  174SOPE    HS19723   3.021   5.963  10.777  0.4624  1.2116 -0.0487
  174SOPE   O2119724   2.981   6.149  10.709 -0.2229 -0.6666  0.0974
  174SOPE   C2119725   3.103   6.214  10.718 -0.3459  0.1083  0.0158
  174SOPE   O2219726   3.206   6.165  10.755 -0.5515  0.4219  0.2537
  174SOPE   C2219727   3.089   6.363  10.680 -0.5996 -0.0449 -0.1096
  174SOPE   H2R19728   3.193   6.401  10.673 -0.8962  0.5187 -1.4817
  174SOPE   H2S19729   3.035   6.412  10.764 -1.4146 -1.9891  0.5325
  174SOPE    C319730   3.102   5.971  10.578 -0.0288 -0.2622 -0.2656
  174SOPE    HX19731   3.106   5.860  10.575  1.2415 -0.2033 -1.0225
  174SOPE    HY19732   3.202   6.003  10.616 -0.9644  0.7294  1.4330
  174SOPE   O3119733   3.070   6.014  10.445  0.4627  0.4953 -0.1972
  174SOPE   C3119734   3.175   6.018  10.365  0.6033  0.8892 -0.0233
  174SOPE   O3219735   3.290   5.985  10.388 -0.1225 -0.4382 -0.0151
  174SOPE   C3219736   3.131   6.055  10.221 -0.2479 -0.4555 -0.0159
  174SOPE   H2X19737   3.147   6.162  10.199  0.4529 -0.6404 -0.4283
  174SOPE   H2Y19738   3.021   6.048  10.213 -0.2391 -1.5140  0.6622
  174SOPE   C2319739   3.018   6.381  10.543  0.0455 -0.1895 -0.5637
  174SOPE   H3R19740   2.909   6.362  10.548  0.4154 -2.2591  0.4145
  174SOPE   H3S19741   3.068   6.301  10.483  2.2085 -1.3681  2.6672
  174SOPE   C2419742   3.063   6.519  10.489 -0.3369  0.1956 -0.0180
  174SOPE   H4R19743   3.027   6.606  10.548  2.1428  0.5069  1.0836
  174SOPE   H4S19744   3.174   6.523  10.490 -0.3480  0.3287  0.8013
  174SOPE   C2519745   3.021   6.554  10.348 -0.2242  0.9338 -0.0739
  174SOPE   H5R19746   2.913   6.581  10.343 -0.3579  0.6605  1.1271
  174SOPE   H5S19747   3.081   6.643  10.318  0.5574  0.4351  0.0032
  174SOPE   C2619748   3.036   6.442  10.250  0.1055  0.5531  0.9035
  174SOPE   H6R19749   3.139   6.400  10.250 -0.9938 -2.4168 -3.3602
  174SOPE   H6S19750   2.957   6.364  10.257  1.0004 -0.4225  0.3835
  174SOPE   C2719751   3.022   6.507  10.118 -0.3581 -0.2013 -0.4126
  174SOPE   H7R19752   2.917   6.533  10.094 -0.3730 -0.9995 -1.2231
  174SOPE   H7S19753   3.078   6.601  10.103  0.7889 -0.9745 -1.0434
  174SOPE   C2819754   3.064   6.417   9.991 -0.1930 -0.1996 -0.2201
  174SOPE   H8R19755   3.136   6.343  10.028 -2.3857 -1.6626  1.2393
  174SOPE   H8S19756   2.969   6.365   9.965  0.3749 -0.8311 -1.0620
  174SOPE   C2919757   3.107   6.495   9.868  0.1336 -0.3216 -0.1957
  174SOPE   H9119758   3.174   6.576   9.902 -2.8466  2.5096 -0.7455
  174SOPE  C21019759   3.067   6.490   9.745 -0.1289 -0.2733  0.3513
  174SOPE  H10119760   3.113   6.559   9.673 -0.2470  1.4653  1.9094
  174SOPE  C21119761   2.964   6.392   9.697  0.5115 -0.1312  0.4533
  174SOPE  H11R19762   2.877   6.453   9.664  1.5212  1.0325 -0.1347
  174SOPE  H11S19763   2.921   6.328   9.777 -0.8136  1.6428  1.1891
  174SOPE  C21219764   3.003   6.304   9.585  0.6608 -0.0880  0.4693
  174SOPE  H12R19765   2.921   6.235   9.556 -0.3442  2.1338 -2.1882
  174SOPE  H12S19766   3.085   6.246   9.631  0.0274 -0.4108  1.2041
  174SOPE  C21319767   3.060   6.370   9.466 -0.1945 -0.4030  0.2544
  174SOPE  H13R19768   3.160   6.417   9.476 -0.0249 -0.7728  0.2961
  174SOPE  H13S19769   3.000   6.455   9.426  0.4598 -0.3439 -0.6150
  174SOPE  C21419770   3.063   6.274   9.342  0.0881 -0.3196 -0.6561
  174SOPE  H14R19771   2.955   6.251   9.339  0.2643 -1.1020 -1.0609
  174SOPE  H14S19772   3.106   6.177   9.373  2.0253  1.6677  3.2371
  174SOPE  C21519773   3.114   6.335   9.215 -0.3830  0.0701 -0.2841
  174SOPE  H15R19774   3.223   6.358   9.220 -0.5136  0.4616  0.8729
  174SOPE  H15S19775   3.069   6.436   9.198  0.6352  0.3850 -1.1545
  174SOPE  C21619776   3.090   6.252   9.093 -0.2363 -0.2204  0.1058
  174SOPE  H16R19777   2.995   6.195   9.105 -1.1966  1.5944  1.2853
  174SOPE  H16S19778   3.172   6.177   9.092 -2.1300 -2.3381  0.2550
  174SOPE  C21719779   3.094   6.332   8.961  0.7082  0.3802  0.0945
  174SOPE  H17R19780   3.195   6.377   8.954  0.9813  0.0834  1.9899
  174SOPE  H17S19781   3.011   6.406   8.961  0.3062 -0.0421  2.3051
  174SOPE  C21819782   3.075   6.247   8.839  0.8647 -0.8910  0.3763
  174SOPE  H18R19783   3.148   6.163   8.840 -2.5938 -4.0256 -2.0577
  174SOPE  H18S19784   3.091   6.310   8.749  1.1983 -0.0295  1.0280
  174SOPE  H18T19785   2.971   6.212   8.828  0.6956 -0.2139 -0.2109
  174SOPE   C3319786   3.193   5.964  10.108 -0.0390  0.0598 -0.2902
  174SOPE   H3X19787   3.194   5.855  10.130 -0.8953 -0.0484 -0.7662
  174SOPE   H3Y19788   3.302   5.984  10.103 -0.4058  2.9814  1.9502
  174SOPE   C3419789   3.123   5.976   9.976  0.7846 -0.5486  0.0320
  174SOPE   H4X19790   3.137   6.078   9.933  1.4097 -1.6251 -2.3934
  174SOPE   H4Y19791   3.015   5.969  10.003 -0.0037  0.7910 -2.6178
  174SOPE   C3519792   3.152   5.876   9.865 -0.3982  0.4871 -0.4740
  174SOPE   H5X19793   3.081   5.792   9.880 -1.0459  1.2139  0.5853
  174SOPE   H5Y19794   3.255   5.835   9.880 -0.9561 -0.3004  1.3595
  174SOPE   C3619795   3.145   5.943   9.728  0.0200  0.2072 -0.5848
  174SOPE   H6X19796   3.230   6.013   9.713 -0.2708  0.4619 -1.0485
  174SOPE   H6Y19797   3.049   5.999   9.721 -0.2837  0.5583  4.4989
  174SOPE   C3719798   3.151   5.835   9.622  0.1295 -0.1778  0.3862
  174SOPE   H7X19799   3.065   5.765   9.625 -1.1621  1.3952  0.2413
  174SOPE   H7Y19800   3.235   5.768   9.652 -0.6911 -0.2939  2.5038
  174SOPE   C3819801   3.153   5.890   9.478 -0.2706 -0.2673 -0.2114
  174SOPE   H8X19802   3.227   5.972   9.488 -0.9926  0.4564 -0.7207
  174SOPE   H8Y19803   3.053   5.936   9.461 -0.2871 -0.0255  0.4931
  174SOPE   C3919804   3.188   5.798   9.359 -0.0906  0.1587  0.6912
  174SOPE   H9X19805   3.130   5.703   9.358 -0.5079  0.4108 -1.6430
  174SOPE   H9Y19806   3.292   5.758   9.363 -1.0049 -2.6162 -1.8618
  174SOPE  C31019807   3.177   5.869   9.219  0.0077  0.6467 -0.5701
  174SOPE  H10X19808   3.233   5.965   9.224  0.8349  0.2032 -1.2850
  174SOPE  H10Y19809   3.071   5.897   9.202 -0.5775  0.0777  1.8982
  174SOPE  C31119810   3.233   5.779   9.110 -0.1270 -0.4654 -0.4036
  174SOPE  H11X19811   3.181   5.681   9.111  0.0011 -0.5346  1.0666
  174SOPE  H11Y19812   3.340   5.754   9.125  0.0583  1.4376  1.8160
  174SOPE  C31219813   3.220   5.846   8.976 -0.4452  0.4386 -0.1578
  174SOPE  H12X19814   3.239   5.953   8.998  0.9489 -0.2072  2.0145
  174SOPE  H12Y19815   3.117   5.843   8.936 -0.4619  3.3182 -0.4586
  174SOPE  C31319816   3.328   5.805   8.873 -0.3050 -0.1718  0.6588
  174SOPE  H13X19817   3.332   5.694   8.870 -2.4382 -0.2788  1.1572
  174SOPE  H13Y19818   3.420   5.844   8.923  0.8292 -0.9334 -0.7854
  174SOPE  C31419819   3.308   5.867   8.737  0.5693  0.2672 -0.3197
  174SOPE  H14X19820   3.299   5.977   8.745  1.0171  0.3304 -0.6776
  174SOPE  H14Y19821   3.219   5.822   8.687  0.8624  0.7582 -1.2839
  174SOPE  C31519822   3.436   5.841   8.649  0.0939 -0.0531 -0.3644
  174SOPE  H15X19823   3.523   5.817   8.714 -0.5413 -0.3065  0.3955
  174SOPE  H15Y19824   3.465   5.933   8.594 -0.5184 -0.2525 -1.0228
  174SOPE  C31619825   3.424   5.727   8.550  0.3583 -0.2735 -0.1015
  174SOPE  H16X19826   3.330   5.751   8.495 -0.7398 -3.0870  0.4393
  174SOPE  H16Y19827   3.396   5.624   8.582  0.7746 -0.6393 -0.9084
  174SOPE  C31719828   3.542   5.703   8.450  0.0467 -0.7566  0.0423
  174SOPE  H17X19829   3.572   5.793   8.392 -1.7033 -0.4351 -0.3855
  174SOPE  H17Y19830   3.504   5.638   8.368 -1.4341 -0.0207  0.1312
  174SOPE  C31819831   3.659   5.635   8.522  0.2592 -0.3775  0.0566
  174SOPE  H18X19832   3.729   5.589   8.449  0.9811 -0.9464  1.0899
  174SOPE  H18Y19833   3.620   5.553   8.587  1.9215  0.3843  2.0306
  174SOPE  H18Z19834   3.712   5.698   8.595 -1.2763  1.4671 -0.3708
  175SOPE     N19835   5.297   1.226  10.637  0.3097 -0.4430 -0.6880
  175SOPE   HN119836   5.391   1.181  10.646  1.1223  1.0189 -1.6777
  175SOPE   HN219837   5.288   1.282  10.551  3.9188 -1.1538 -1.6052
  175SOPE   HN319838   5.280   1.301  10.707 -0.1066  0.3333 -1.6184
  175SOPE   C1219839   5.191   1.116  10.621 -0.2990  0.2463 -0.0857
  175SOPE  H12A19840   5.089   1.157  10.606 -1.5900 -3.0047 -0.5944
  175SOPE  H12B19841   5.189   1.063  10.718 -1.6555  1.7382  0.7327
  175SOPE   C1119842   5.227   1.020  10.502 -0.0256 -0.0988  0.0995
  175SOPE  H11A19843   5.210   1.085  10.414  1.0609  0.2542  0.1442
  175SOPE  H11B19844   5.154   0.936  10.494 -0.6848  0.5872 -1.2317
  175SOPE     P19845   5.416   0.835  10.559  0.2139  0.1502  0.0040
  175SOPE   O1319846   5.400   0.834  10.706 -0.1411 -0.3633  0.4708
  175SOPE   O1419847   5.550   0.804  10.511 -0.7551  0.4411  0.1510
  175SOPE   O1219848   5.370   0.973  10.501 -0.6780 -0.0922 -0.1013
  175SOPE   O1119849   5.313   0.734  10.501  0.0296 -0.0612 -0.0506
  175SOPE    C119850   5.294   0.693  10.362  0.6638 -0.8518 -0.8321
  175SOPE    HA19851   5.306   0.582  10.359  2.3726 -0.6649 -1.3314
  175SOPE    HB19852   5.373   0.734  10.297  2.0289  0.3879  1.5351
  175SOPE    C219853   5.157   0.736  10.302  0.0560 -0.8065  0.4952
  175SOPE    HS19854   5.144   0.844  10.325  1.6986 -0.6203  0.5519
  175SOPE   O2119855   5.046   0.653  10.342  0.7785 -0.0192 -0.1832
  175SOPE   C2119856   4.941   0.715  10.394  0.2612  0.4447  0.0933
  175SOPE   O2219857   4.925   0.835  10.408 -0.3661  0.4412  0.4130
  175SOPE   C2219858   4.832   0.620  10.441  0.0818 -0.0624  0.3012
  175SOPE   H2R19859   4.848   0.599  10.549  1.2468  1.2413  0.4090
  175SOPE   H2S19860   4.849   0.523  10.389 -0.2147  0.1389 -0.1747
  175SOPE    C319861   5.172   0.708  10.154 -0.0583  0.2469  0.6906
  175SOPE    HX19862   5.178   0.599  10.136  0.0149  0.4471 -0.5041
  175SOPE    HY19863   5.272   0.733  10.114 -0.9528  0.3873 -1.4979
  175SOPE   O3119864   5.065   0.761  10.075  0.3856 -0.5810  0.4995
  175SOPE   C3119865   5.069   0.893  10.061 -0.3474 -0.0332 -0.1380
  175SOPE   O3219866   5.159   0.970  10.095 -0.2789 -0.2967  0.1174
  175SOPE   C3219867   4.944   0.931   9.978  0.3805  0.3420 -1.0722
  175SOPE   H2X19868   4.962   0.909   9.870  1.7960  1.7398 -1.1421
  175SOPE   H2Y19869   4.944   1.041   9.995  1.1336  0.1169  0.4272
  175SOPE   C2319870   4.691   0.672  10.420 -0.5979 -0.7936 -0.1548
  175SOPE   H3R19871   4.681   0.779  10.445  1.6628 -0.8944  1.4149
  175SOPE   H3S19872   4.635   0.615  10.497 -1.9169  0.7084 -0.0047
  175SOPE   C2419873   4.631   0.630  10.288 -0.2446 -0.1923  0.1105
  175SOPE   H4R19874   4.694   0.675  10.209 -0.2707 -2.3723 -1.1992
  175SOPE   H4S19875   4.644   0.520  10.280 -0.0625  0.0472 -3.4260
  175SOPE   C2519876   4.480   0.661  10.262  0.2428  0.8181  0.3215
  175SOPE   H5R19877   4.434   0.668  10.363  1.1889  0.9383  0.7451
  175SOPE   H5S19878   4.479   0.765  10.222  0.9509  1.3304  1.6347
  175SOPE   C2619879   4.412   0.575  10.160  0.3108  0.8438  0.0522
  175SOPE   H6R19880   4.411   0.472  10.201 -0.4488  0.5959 -0.5819
  175SOPE   H6S19881   4.305   0.598  10.144  0.9243  3.5351 -0.4492
  175SOPE   C2719882   4.488   0.566  10.027  0.1660  0.0446  0.6447
  175SOPE   H7R19883   4.518   0.671  10.012 -2.8160  0.7351 -1.0817
  175SOPE   H7S19884   4.572   0.493  10.032 -0.0346 -0.0242  4.2994
  175SOPE   C2819885   4.389   0.527   9.909  0.6547 -0.0024  0.5445
  175SOPE   H8R19886   4.305   0.599   9.907  1.2293  0.7622  2.1356
  175SOPE   H8S19887   4.439   0.539   9.811 -2.4761  1.0141 -0.9502
  175SOPE   C2919888   4.341   0.380   9.926 -0.1019 -0.6273  0.7238
  175SOPE   H9119889   4.393   0.325  10.005 -2.1613 -2.7736  0.6264
  175SOPE  C21019890   4.241   0.329   9.852 -0.5578  0.0518  0.1288
  175SOPE  H10119891   4.215   0.223   9.864  1.3391 -0.7262 -2.1955
  175SOPE  C21119892   4.163   0.398   9.743  0.1879  0.1831  0.5362
  175SOPE  H11R19893   4.137   0.500   9.781 -1.8133  0.1169 -0.5388
  175SOPE  H11S19894   4.073   0.340   9.714  0.5471  0.1714 -0.5998
  175SOPE  C21219895   4.247   0.404   9.616  0.7866 -0.3619 -0.8283
  175SOPE  H12R19896   4.220   0.319   9.550  1.8790 -0.6904 -0.8640
  175SOPE  H12S19897   4.356   0.410   9.639  0.1412  2.2300  1.8751
  175SOPE  C21319898   4.207   0.532   9.541  0.3291 -0.4469  1.0975
  175SOPE  H13R19899   4.210   0.611   9.618  0.3124 -0.1532  0.7950
  175SOPE  H13S19900   4.100   0.528   9.510  1.8237 -0.6612 -4.4187
  175SOPE  C21419901   4.299   0.575   9.419 -0.5216  0.7437  0.0148
  175SOPE  H14R19902   4.396   0.596   9.470 -0.4274 -1.4058  0.7908
  175SOPE  H14S19903   4.257   0.664   9.368  1.4751  1.5884 -0.1868
  175SOPE  C21519904   4.308   0.459   9.314  1.4201 -0.2561  0.6123
  175SOPE  H15R19905   4.353   0.369   9.363 -1.3081 -1.8186  0.3398
  175SOPE  H15S19906   4.387   0.487   9.241  0.7518  2.6042  0.9230
  175SOPE  C21619907   4.175   0.446   9.234  0.5683  0.1190 -0.0541
  175SOPE  H16R19908   4.149   0.552   9.210  1.1806  0.1988 -0.3853
  175SOPE  H16S19909   4.099   0.399   9.298 -0.6245 -0.0173 -1.5409
  175SOPE  C21719910   4.184   0.376   9.094  0.5931  0.0504 -0.5853
  175SOPE  H17R19911   4.244   0.434   9.020  2.3033  0.7192  1.2964
  175SOPE  H17S19912   4.082   0.358   9.053  0.7059 -0.0719 -0.8176
  175SOPE  C21819913   4.251   0.233   9.109  0.0966 -0.7058  0.6149
  175SOPE  H18R19914   4.192   0.178   9.185  2.0592 -0.7542  2.1428
  175SOPE  H18S19915   4.359   0.242   9.132  0.0637 -2.0544  1.3884
  175SOPE  H18T19916   4.233   0.173   9.017 -0.1527 -2.1302  1.5666
  175SOPE   C3319917   4.813   0.869  10.036  0.7227  0.0968  0.1884
  175SOPE   H3X19918   4.808   0.871  10.147  0.3774  1.3806  0.1571
  175SOPE   H3Y19919   4.801   0.762  10.008 -2.7553  0.2465  0.8528
  175SOPE   C3419920   4.695   0.960  10.003  0.0048  0.2726  1.0753
  175SOPE   H4X19921   4.717   1.064  10.037  1.5850  0.5276 -0.6612
  175SOPE   H4Y19922   4.604   0.928  10.059  0.0316 -1.5193  0.1331
  175SOPE   C3519923   4.659   0.963   9.851 -0.3349  0.2067 -0.0162
  175SOPE   H5X19924   4.642   0.855   9.831  2.9888 -0.3936  0.1366
  175SOPE   H5Y19925   4.746   0.988   9.786  1.9129  0.0967  2.8131
  175SOPE   C3619926   4.529   1.046   9.817  0.5377  0.1239  0.9261
  175SOPE   H6X19927   4.551   1.152   9.794  0.8444  0.2729  1.8814
  175SOPE   H6Y19928   4.458   1.038   9.902  0.2827 -0.4414  0.6615
  175SOPE   C3719929   4.459   0.987   9.695  0.1283  0.5820 -0.0430
  175SOPE   H7X19930   4.362   1.036   9.669  0.4416  2.0372  1.4631
  175SOPE   H7Y19931   4.421   0.885   9.717 -1.3504  0.9063 -0.9660
  175SOPE   C3819932   4.548   0.988   9.571 -0.0562 -0.1528 -0.3013
  175SOPE   H8X19933   4.643   0.935   9.594  0.1272  0.6296  0.8189
  175SOPE   H8Y19934   4.580   1.093   9.557 -1.5837  0.1560 -1.6004
  175SOPE   C3919935   4.487   0.930   9.441 -0.2824 -0.3322  0.0112
  175SOPE   H9X19936   4.400   0.996   9.420 -0.3700 -0.5121 -0.1863
  175SOPE   H9Y19937   4.465   0.823   9.460  0.4861 -0.2340  1.4945
  175SOPE  C31019938   4.575   0.922   9.320  0.6829  0.0101 -0.3063
  175SOPE  H10X19939   4.647   0.839   9.334 -1.1877 -1.2388  2.1550
  175SOPE  H10Y19940   4.641   1.011   9.315  0.6597  0.2161  2.3275
  175SOPE  C31119941   4.493   0.901   9.196 -0.0481 -0.0182  0.3174
  175SOPE  H11X19942   4.403   0.965   9.207  1.1662  1.9993 -1.1926
  175SOPE  H11Y19943   4.462   0.794   9.194 -5.5002  1.2496  4.7261
  175SOPE  C31219944   4.569   0.932   9.063 -0.0685  0.2172  0.7017
  175SOPE  H12X19945   4.544   0.864   8.978 -0.3228  0.1893  0.7979
  175SOPE  H12Y19946   4.678   0.920   9.080  0.1998 -2.6534 -2.3282
  175SOPE  C31319947   4.525   1.067   9.006  0.2341  0.2464  0.7618
  175SOPE  H13X19948   4.603   1.100   8.934  0.6559  0.0824  1.1438
  175SOPE  H13Y19949   4.528   1.156   9.073 -0.0008  0.7544  0.1148
  175SOPE  C31419950   4.390   1.069   8.921  0.1846  0.1326 -0.4469
  175SOPE  H14X19951   4.304   1.047   8.987  0.8020 -1.0771 -0.0397
  175SOPE  H14Y19952   4.401   0.989   8.845  3.1319 -0.8691  0.9676
  175SOPE  C31519953   4.363   1.205   8.857 -0.9219 -0.2171 -0.0243
  175SOPE  H15X19954   4.436   1.229   8.777 -1.9005 -1.0455 -1.1909
  175SOPE  H15Y19955   4.377   1.283   8.934 -0.0493 -0.4221  0.0333
  175SOPE  C31619956   4.221   1.209   8.796  0.0113  0.5345  0.2690
  175SOPE  H16X19957   4.154   1.146   8.860  1.5129 -0.0950  1.2452
  175SOPE  H16Y19958   4.217   1.155   8.699 -1.5178 -1.5535  1.4400
  175SOPE  C31719959   4.165   1.350   8.781  0.2568 -0.0925 -0.2600
  175SOPE  H17X19960   4.251   1.420   8.778 -0.6696  1.1958  1.8775
  175SOPE  H17Y19961   4.125   1.389   8.877 -0.6785 -0.4592 -0.4924
  175SOPE  C31819962   4.088   1.374   8.652  0.3698 -0.5169 -0.1110
  175SOPE  H18X19963   4.075   1.484   8.640 -2.1612 -0.7176  0.5437
  175SOPE  H18Y19964   3.988   1.326   8.650  1.0991 -2.0182 -0.5785
  175SOPE  H18Z19965   4.154   1.341   8.569 -1.7208  1.1316 -2.4900
  176SOPE     N19966   4.138   1.180  10.948  0.4987  0.0646 -0.4057
  176SOPE   HN119967   4.215   1.231  10.900 -0.9141  1.0445 -1.6789
  176SOPE   HN219968   4.061   1.250  10.958  1.2442  0.7566  0.5697
  176SOPE   HN319969   4.172   1.162  11.044 -1.4590  0.7392  0.4400
  176SOPE   C1219970   4.080   1.063  10.871 -0.5399 -1.0389 -0.4645
  176SOPE  H12A19971   4.170   1.011  10.834  0.6859  2.0541 -2.0205
  176SOPE  H12B19972   4.007   1.102  10.797 -0.3440  1.7561  0.7320
  176SOPE   C1119973   4.013   0.981  10.976  0.2692  0.7057  0.0096
  176SOPE  H11A19974   3.952   0.902  10.927  0.7118 -0.9649  2.0478
  176SOPE  H11B19975   3.950   1.038  11.048  1.0036  1.4814  0.0508
  176SOPE     P19976   4.133   0.765  11.081 -0.2569  0.2062 -0.0916
  176SOPE   O1319977   4.069   0.725  11.207 -0.1259  0.1775 -0.1068
  176SOPE   O1419978   4.280   0.748  11.066 -0.6581  0.3712  0.2179
  176SOPE   O1219979   4.109   0.921  11.060 -0.4479  0.4268 -0.0771
  176SOPE   O1119980   4.048   0.690  10.967 -0.6724  0.2240 -0.3230
  176SOPE    C119981   4.028   0.550  10.971  0.1787  0.1497 -0.1136
  176SOPE    HA19982   3.953   0.522  11.047 -0.5875 -0.4740 -1.0900
  176SOPE    HB19983   4.123   0.498  10.995  1.0191 -0.0686 -3.6083
  176SOPE    C219984   3.972   0.492  10.842  0.8836 -0.6756  0.3123
  176SOPE    HS19985   3.952   0.383  10.848 -1.7655 -0.2892 -0.7781
  176SOPE   O2119986   4.062   0.534  10.732 -0.0903 -0.0104  0.0041
  176SOPE   C2119987   4.138   0.436  10.688 -0.0971  0.0966 -0.6839
  176SOPE   O2219988   4.150   0.325  10.740  0.0381 -0.0503  0.8540
  176SOPE   C2219989   4.178   0.464  10.535 -1.5514 -0.6124 -0.2832
  176SOPE   H2R19990   4.279   0.507  10.553 -2.2178  0.9861 -0.2961
  176SOPE   H2S19991   4.114   0.550  10.507  1.2503  1.3262 -1.0102
  176SOPE    C319992   3.827   0.539  10.819 -0.2225  0.4352  0.5367
  176SOPE    HX19993   3.815   0.650  10.827  0.5429  0.3624  3.0782
  176SOPE    HY19994   3.767   0.492  10.900  0.1151 -1.4898 -0.3143
  176SOPE   O3119995   3.764   0.476  10.704  0.5157  0.2081  0.5103
  176SOPE   C3119996   3.751   0.560  10.601 -0.0269  1.2707  0.2641
  176SOPE   O3219997   3.786   0.676  10.601  0.0467  0.4179 -0.0607
  176SOPE   C3219998   3.682   0.491  10.486  0.2370  0.1804 -0.7489
  176SOPE   H2X19999   3.580   0.478  10.529  0.0663  0.5900 -1.0260
  176SOPE   H2Y20000   3.721   0.388  10.470 -0.0485 -0.2373  1.0323
  176SOPE   C2320001   4.178   0.346  10.446  0.6231  0.5434 -0.5717
  176SOPE   H3R20002   4.225   0.261  10.499  0.4778  0.6984 -0.1908
  176SOPE   H3S20003   4.240   0.381  10.361  1.4282  0.2737 -0.0945
  176SOPE   C2420004   4.047   0.300  10.399 -0.0416 -0.2671  0.1284
  176SOPE   H4R20005   3.981   0.278  10.486 -0.3170 -2.0611 -0.5092
  176SOPE   H4S20006   3.993   0.377  10.340 -0.3094 -0.3225  0.3010
  176SOPE   C2520007   4.056   0.173  10.314  0.1556  0.6118 -0.3825
  176SOPE   H5R20008   4.153   0.119  10.327  0.3677  1.2002  0.5234
  176SOPE   H5S20009   3.981   0.105  10.360  1.1283 -0.0226  0.2903
  176SOPE   C2620010   4.038   0.207  10.170  0.3075 -0.4912 -0.2364
  176SOPE   H6R20011   3.933   0.240  10.152 -0.7542 -2.2374  2.5621
  176SOPE   H6S20012   4.098   0.293  10.131 -0.1199 -0.8030 -1.6201
  176SOPE   C2720013   4.052   0.082  10.074  0.3308 -1.3164  0.1432
  176SOPE   H7R20014   4.110   0.096   9.980  0.1754  0.6072  0.3088
  176SOPE   H7S20015   4.122   0.023  10.137  0.3336 -2.5330 -0.9731
  176SOPE   C2820016   3.918   0.020  10.036  0.1548 -0.3482 -0.1794
  176SOPE   H8R20017   3.881  -0.010  10.137  3.8513  0.7230  1.5935
  176SOPE   H8S20018   3.838   0.091  10.007 -0.2749 -1.1479 -0.9742
  176SOPE   C2920019   3.921  -0.085   9.931 -0.6058  0.0778 -0.1027
  176SOPE   H9120020   3.927  -0.187   9.972  1.9073  0.7875  1.4347
  176SOPE  C21020021   3.952  -0.069   9.803 -0.0893 -0.1505 -0.1889
  176SOPE  H10120022   3.968  -0.158   9.741  0.5887 -1.4793  1.8369
  176SOPE  C21120023   3.969   0.068   9.740 -0.9669  0.1894 -0.1408
  176SOPE  H11R20024   4.077   0.076   9.713 -1.4015  1.7490 -1.4924
  176SOPE  H11S20025   3.940   0.149   9.811  1.1937  1.4848 -0.6890
  176SOPE  C21220026   3.888   0.087   9.610 -0.4413  0.3148  0.1238
  176SOPE  H12R20027   3.900   0.190   9.571 -0.1205 -0.4197 -1.7656
  176SOPE  H12S20028   3.784   0.072   9.646 -0.5489 -2.5443 -1.2433
  176SOPE  C21320029   3.932  -0.008   9.489 -0.2143 -0.9920 -0.2158
  176SOPE  H13R20030   3.882  -0.101   9.521  0.6345 -1.0477  0.9819
  176SOPE  H13S20031   4.043  -0.017   9.485  0.2023  2.1530  1.9450
  176SOPE  C21420032   3.880   0.042   9.346 -0.1128 -0.2065 -0.6616
  176SOPE  H14R20033   3.943   0.131   9.325 -1.6761  1.2091  0.4586
  176SOPE  H14S20034   3.772   0.066   9.353  0.1480  1.1597 -1.2737
  176SOPE  C21520035   3.904  -0.068   9.238  0.0481  0.2438 -0.0757
  176SOPE  H15R20036   3.837  -0.151   9.267  0.7530 -0.5735 -0.7793
  176SOPE  H15S20037   4.010  -0.099   9.243  0.5443  2.0548  1.3514
  176SOPE  C21620038   3.875  -0.023   9.097 -0.0859  0.4002 -0.2978
  176SOPE  H16R20039   3.958   0.049   9.082 -1.2580  1.8803  0.3204
  176SOPE  H16S20040   3.776   0.024   9.080 -1.1473 -0.3993  3.2618
  176SOPE  C21720041   3.888  -0.135   8.992 -0.0225  0.1285  0.3917
  176SOPE  H17R20042   3.816  -0.219   9.009 -1.6951  0.9887 -2.1231
  176SOPE  H17S20043   3.995  -0.166   8.991 -0.3885 -1.1425 -0.8375
  176SOPE  C21820044   3.860  -0.078   8.851  0.5168  0.2694 -0.1387
  176SOPE  H18R20045   3.762  -0.028   8.841  1.2107  1.4655 -1.1431
  176SOPE  H18S20046   3.870  -0.152   8.768 -1.1943 -0.4837  0.3145
  176SOPE  H18T20047   3.934   0.003   8.830 -0.4133  1.6700  1.9223
  176SOPE   C3320048   3.679   0.585  10.364 -0.0424  0.1694 -0.1143
  176SOPE   H3X20049   3.775   0.560  10.313  0.6789  2.8371 -0.1130
  176SOPE   H3Y20050   3.688   0.692  10.392  1.4658 -0.8427  3.6502
  176SOPE   C3420051   3.549   0.560  10.292 -0.3533 -0.3093  0.1195
  176SOPE   H4X20052   3.503   0.656  10.260 -0.5667 -0.6398 -0.5782
  176SOPE   H4Y20053   3.476   0.511  10.361 -1.5056 -0.1135 -0.9449
  176SOPE   C3520054   3.558   0.463  10.181 -0.4988 -0.1121  0.3311
  176SOPE   H5X20055   3.460   0.424  10.148  0.0553 -0.8649 -0.4546
  176SOPE   H5Y20056   3.618   0.375  10.213 -1.4114 -0.4646  1.0821
  176SOPE   C3620057   3.624   0.524  10.053  0.9416 -0.2981  0.0256
  176SOPE   H6X20058   3.719   0.576  10.080  1.2240 -1.1338  0.7011
  176SOPE   H6Y20059   3.551   0.600  10.019 -0.7322 -2.9532 -2.5453
  176SOPE   C3720060   3.654   0.425   9.938 -0.2317  0.2866  0.5210
  176SOPE   H7X20061   3.561   0.375   9.904 -0.5381  0.9362  0.3936
  176SOPE   H7Y20062   3.714   0.339   9.973  0.2777 -0.0132 -1.0480
  176SOPE   C3820063   3.713   0.495   9.813  0.5839  0.3484  0.4127
  176SOPE   H8X20064   3.815   0.535   9.829  2.0839 -3.2535  0.3901
  176SOPE   H8Y20065   3.647   0.572   9.768 -1.7911 -0.1991  2.8302
  176SOPE   C3920066   3.724   0.393   9.697 -0.8659 -0.6510  0.0723
  176SOPE   H9X20067   3.625   0.343   9.691 -2.3424  1.9155  2.0566
  176SOPE   H9Y20068   3.797   0.314   9.726 -1.3025 -1.3646 -0.7332
  176SOPE  C31020069   3.759   0.458   9.564  0.5570 -0.1115  0.3258
  176SOPE  H10X20070   3.869   0.454   9.549  0.3914 -0.2091 -0.9573
  176SOPE  H10Y20071   3.732   0.566   9.561 -0.3746 -0.2860  1.9127
  176SOPE  C31120072   3.693   0.389   9.449 -0.4445 -0.3080  0.3110
  176SOPE  H11X20073   3.585   0.371   9.469 -0.6333  0.4262 -0.0255
  176SOPE  H11Y20074   3.735   0.286   9.439 -0.2075 -0.0977 -0.9426
  176SOPE  C31220075   3.733   0.461   9.316 -0.2059 -0.1661 -0.7682
  176SOPE  H12X20076   3.828   0.514   9.340  1.5360 -3.0453 -1.0719
  176SOPE  H12Y20077   3.653   0.527   9.277  0.2775 -0.7825 -2.8510
  176SOPE  C31320078   3.744   0.361   9.200 -0.1234  0.4462  0.1551
  176SOPE  H13X20079   3.662   0.286   9.193 -1.6298  1.7100  3.1835
  176SOPE  H13Y20080   3.823   0.283   9.206 -1.6457 -1.1085  0.4745
  176SOPE  C31420081   3.762   0.440   9.073  0.8581  0.3025  0.8007
  176SOPE  H14X20082   3.868   0.472   9.078  1.2605 -1.1625  2.1586
  176SOPE  H14Y20083   3.694   0.528   9.065  1.5205  0.5673 -3.1585
  176SOPE  C31520084   3.747   0.350   8.950 -0.3864  1.0510  0.7611
  176SOPE  H15X20085   3.641   0.318   8.944  0.4951 -1.4575 -2.4729
  176SOPE  H15Y20086   3.806   0.256   8.956  0.1493  1.3759  0.5812
  176SOPE  C31620087   3.795   0.416   8.819  0.5016  0.1866  0.2784
  176SOPE  H16X20088   3.906   0.417   8.823  0.6470  1.1594 -2.4784
  176SOPE  H16Y20089   3.754   0.519   8.824  2.0754  0.7455  2.1288
  176SOPE  C31720090   3.744   0.343   8.689 -0.1314  0.3497 -0.1888
  176SOPE  H17X20091   3.634   0.336   8.695 -0.2039 -1.8441 -2.8819
  176SOPE  H17Y20092   3.787   0.240   8.683  0.5017  0.7454 -2.8612
  176SOPE  C31820093   3.798   0.412   8.558 -0.3059  0.0559  0.5392
  176SOPE  H18X20094   3.908   0.412   8.574 -0.4106  3.3634  1.4879
  176SOPE  H18Y20095   3.771   0.518   8.541  0.7854  0.3002  0.2541
  176SOPE  H18Z20096   3.775   0.349   8.469  0.4886  2.9977 -1.8213
  177SOPE     N20097   4.452   5.181  11.059 -0.3671  0.0724  0.0326
  177SOPE   HN120098   4.475   5.278  11.027 -0.2005  0.0041 -0.0539
  177SOPE   HN220099   4.350   5.170  11.042 -0.5993 -0.2259  1.5387
  177SOPE   HN320100   4.465   5.163  11.161 -2.3016 -0.2280  0.2556
  177SOPE   C1220101   4.518   5.064  10.983  0.1479 -0.5204 -0.9218
  177SOPE  H12A20102   4.536   4.983  11.058 -3.7606 -0.6106  0.0337
  177SOPE  H12B20103   4.608   5.102  10.931  0.7610  0.7296  0.9736
  177SOPE   C1120104   4.421   5.009  10.879 -0.6955 -0.1094 -0.1416
  177SOPE  H11A20105   4.477   4.927  10.830  1.0038  1.2889 -0.6034
  177SOPE  H11B20106   4.400   5.091  10.806  0.8490  0.5377  0.1167
  177SOPE     P20107   4.167   4.929  10.900  0.0609  0.1207 -0.0636
  177SOPE   O1320108   4.057   5.018  10.951  0.4352  0.1378 -0.2378
  177SOPE   O1420109   4.144   4.783  10.914  0.6080  0.1630  0.0218
  177SOPE   O1220110   4.308   4.970  10.957  0.5457 -0.5782 -0.2529
  177SOPE   O1120111   4.189   4.959  10.743  0.1752  0.0717 -0.0243
  177SOPE    C120112   4.244   4.852  10.664 -0.1934 -1.3540  0.2543
  177SOPE    HA20113   4.244   4.748  10.705  2.1286 -1.9396 -1.1302
  177SOPE    HB20114   4.353   4.870  10.651 -0.9323  0.8068 -3.4579
  177SOPE    C220115   4.171   4.847  10.528  0.4567 -0.2967 -0.3720
  177SOPE    HS20116   4.218   4.769  10.465  0.4926 -0.4730 -0.1267
  177SOPE   O2120117   4.174   4.980  10.471 -0.4538  0.2928 -0.1718
  177SOPE   C2120118   4.268   4.998  10.385 -1.2415  0.1688  0.1834
  177SOPE   O2220119   4.354   4.916  10.346 -0.2823  0.0762 -0.5639
  177SOPE   C2220120   4.266   5.145  10.351  0.2211 -0.7439 -0.0098
  177SOPE   H2R20121   4.367   5.190  10.352 -0.2143  0.2945  2.5881
  177SOPE   H2S20122   4.199   5.197  10.423  1.2791  0.4377  0.1404
  177SOPE    C320123   4.024   4.797  10.548 -0.3431  0.9623  0.1111
  177SOPE    HX20124   3.989   4.858  10.634 -1.1308 -0.2440  0.6540
  177SOPE    HY20125   4.017   4.689  10.574  1.4754  1.0226  0.9565
  177SOPE   O3120126   3.952   4.827  10.421  0.3284  0.0930 -0.2955
  177SOPE   C3120127   3.888   4.941  10.429 -0.2073 -0.4018 -0.1786
  177SOPE   O3220128   3.868   5.012  10.525  0.2250  0.0074 -0.2838
  177SOPE   C3220129   3.829   4.976  10.287  0.6928  0.1442 -0.7564
  177SOPE   H2X20130   3.840   5.087  10.280 -1.5210  0.5420  1.4576
  177SOPE   H2Y20131   3.719   4.961  10.297  0.9041 -0.3929  0.9728
  177SOPE   C2320132   4.212   5.185  10.212 -0.6369  0.7194  0.1434
  177SOPE   H3R20133   4.244   5.287  10.182  1.4049 -0.5176 -2.0364
  177SOPE   H3S20134   4.101   5.187  10.212 -0.6351  1.4081 -0.7395
  177SOPE   C2420135   4.265   5.087  10.100 -0.1207  0.1553  0.0267
  177SOPE   H4R20136   4.374   5.072  10.112 -0.2490 -2.3862 -1.5306
  177SOPE   H4S20137   4.225   4.985  10.121  2.6795 -1.4876 -2.1952
  177SOPE   C2520138   4.228   5.133   9.964 -0.1106 -0.3239 -0.0795
  177SOPE   H5R20139   4.119   5.140   9.941 -0.0739 -0.6174 -0.3529
  177SOPE   H5S20140   4.264   5.237   9.946  0.4268 -0.5725 -0.4650
  177SOPE   C2620141   4.296   5.049   9.849 -0.8220  0.0453 -0.3184
  177SOPE   H6R20142   4.406   5.053   9.856 -0.8667 -0.5448  0.7172
  177SOPE   H6S20143   4.261   4.943   9.852 -2.4083  0.5447 -0.6160
  177SOPE   C2720144   4.261   5.108   9.708  0.3563  0.5734  0.3419
  177SOPE   H7R20145   4.150   5.108   9.713  0.3927 -0.7087  1.2859
  177SOPE   H7S20146   4.308   5.209   9.706 -0.4359  0.9558  0.7409
  177SOPE   C2820147   4.288   5.026   9.583  0.4070 -0.3946 -0.5215
  177SOPE   H8R20148   4.398   5.012   9.576  0.5682  1.2178 -1.4952
  177SOPE   H8S20149   4.254   4.924   9.614 -0.9029  0.2444  0.1806
  177SOPE   C2920150   4.221   5.072   9.460 -0.6391  0.1673 -0.3118
  177SOPE   H9120151   4.119   5.112   9.471  0.1019  1.2483  3.7151
  177SOPE  C21020152   4.271   5.074   9.331  0.2566  0.9541 -0.2060
  177SOPE  H10120153   4.203   5.096   9.247  0.2774  1.7552 -0.0148
  177SOPE  C21120154   4.408   5.025   9.290  0.2906  0.4176 -0.0793
  177SOPE  H11R20155   4.468   5.002   9.381  0.2190 -3.4091 -0.9376
  177SOPE  H11S20156   4.463   5.099   9.228  0.4159 -0.9107 -1.5911
  177SOPE  C21220157   4.395   4.901   9.205 -0.1687  0.1371  0.4273
  177SOPE  H12R20158   4.326   4.921   9.121 -0.7476  1.2801  1.1675
  177SOPE  H12S20159   4.352   4.829   9.278 -2.3857 -0.7002 -1.6608
  177SOPE  C21320160   4.524   4.849   9.144  0.6325  0.2692 -0.5229
  177SOPE  H13R20161   4.560   4.770   9.213  1.4427  0.4075 -0.7740
  177SOPE  H13S20162   4.602   4.929   9.147  0.7179  0.1302  3.1637
  177SOPE  C21420163   4.506   4.806   8.996 -0.5042 -0.3025 -0.4313
  177SOPE  H14R20164   4.510   4.885   8.918 -1.0241  1.0408  0.8788
  177SOPE  H14S20165   4.397   4.781   8.993 -1.0813  1.5943  2.6233
  177SOPE  C21520166   4.584   4.678   8.959 -0.0203  0.2481 -0.2263
  177SOPE  H15R20167   4.692   4.680   8.986 -0.4012 -1.4843  1.5617
  177SOPE  H15S20168   4.578   4.669   8.849  0.4403 -2.3518 -0.0862
  177SOPE  C21620169   4.517   4.543   9.025 -0.6800 -0.3223 -0.4334
  177SOPE  H16R20170   4.412   4.524   8.995  0.0575 -0.7227 -2.8892
  177SOPE  H16S20171   4.507   4.546   9.136 -2.0919  1.3106 -0.5842
  177SOPE  C21720172   4.600   4.421   8.983  0.3334  0.7340 -0.3397
  177SOPE  H17R20173   4.699   4.418   9.034 -0.2090 -1.4352  0.6566
  177SOPE  H17S20174   4.630   4.428   8.876 -0.0544  0.0108 -0.5001
  177SOPE  C21820175   4.526   4.290   9.012  0.0411 -0.2190  0.5690
  177SOPE  H18R20176   4.573   4.209   8.952  1.2405  0.7976  0.1145
  177SOPE  H18S20177   4.416   4.305   9.002 -0.0488 -0.8416  0.6163
  177SOPE  H18T20178   4.536   4.260   9.118 -1.3751 -1.4536  0.3681
  177SOPE   C3320179   3.902   4.912  10.165 -0.6292  0.1346 -0.2985
  177SOPE   H3X20180   3.905   4.801  10.176  1.9298  0.4747  3.5782
  177SOPE   H3Y20181   4.011   4.931  10.170 -0.7890  0.5586  2.9138
  177SOPE   C3420182   3.836   4.962  10.039  0.2780  0.0838  0.4663
  177SOPE   H4X20183   3.827   5.073  10.033  0.5766  0.0787 -0.1143
  177SOPE   H4Y20184   3.730   4.930  10.037 -0.5979  2.3636  4.1433
  177SOPE   C3520185   3.897   4.906   9.913  0.2647 -0.6020 -0.3320
  177SOPE   H5X20186   3.865   4.800   9.901  0.0141 -0.7097  1.1850
  177SOPE   H5Y20187   4.008   4.911   9.910  0.4347 -3.2449  0.4636
  177SOPE   C3620188   3.873   4.994   9.791 -0.2537 -0.2194  0.1584
  177SOPE   H6X20189   3.953   5.070   9.779  0.2266 -0.8240 -0.5231
  177SOPE   H6Y20190   3.780   5.055   9.793 -0.7325 -0.8967 -0.8155
  177SOPE   C3720191   3.856   4.918   9.662 -0.0127 -0.6359  0.8639
  177SOPE   H7X20192   3.783   4.837   9.682  0.7663 -2.1367 -2.0433
  177SOPE   H7Y20193   3.951   4.866   9.639 -0.3167  0.4112 -3.2769
  177SOPE   C3820194   3.825   5.013   9.538 -0.4294 -0.3478 -0.9735
  177SOPE   H8X20195   3.923   5.044   9.494 -0.9456 -0.0364 -1.9272
  177SOPE   H8Y20196   3.777   5.109   9.568  0.2314 -1.2010  2.9886
  177SOPE   C3920197   3.755   4.935   9.423 -0.8628 -0.0632 -0.5806
  177SOPE   H9X20198   3.654   4.905   9.457 -0.7347  1.0286  0.8344
  177SOPE   H9Y20199   3.798   4.835   9.401 -0.2463 -0.3181  1.5745
  177SOPE  C31020200   3.732   5.027   9.302 -0.0000  0.0781  0.0557
  177SOPE  H10X20201   3.833   5.043   9.259 -0.6799  1.2870 -1.1168
  177SOPE  H10Y20202   3.698   5.127   9.337 -0.4390 -0.0793  0.0868
  177SOPE  C31120203   3.632   4.967   9.200 -0.3168  0.1739  0.6746
  177SOPE  H11X20204   3.532   4.989   9.244 -0.9551 -1.1903 -0.0668
  177SOPE  H11Y20205   3.653   4.858   9.193 -0.8808  0.0444  0.9864
  177SOPE  C31220206   3.635   5.033   9.060  0.0196 -0.6013  0.4506
  177SOPE  H12X20207   3.633   5.142   9.078 -3.3147 -0.7605  1.3672
  177SOPE  H12Y20208   3.540   5.016   9.004 -0.6352 -1.3852  1.7605
  177SOPE  C31320209   3.748   4.988   8.963  0.5129 -0.5285 -0.1778
  177SOPE  H13X20210   3.841   4.992   9.025  0.7237  1.2148 -0.5809
  177SOPE  H13Y20211   3.748   5.068   8.885 -0.9360  0.6764  1.0421
  177SOPE  C31420212   3.735   4.844   8.904 -0.5741 -0.4272 -0.5252
  177SOPE  H14X20213   3.652   4.871   8.835 -0.6268  1.1165  0.1007
  177SOPE  H14Y20214   3.692   4.777   8.981  0.2009  0.0646  0.3381
  177SOPE  C31520215   3.858   4.792   8.833  0.0712  0.5103  0.3649
  177SOPE  H15X20216   3.948   4.780   8.897  0.7213  1.9675 -0.2534
  177SOPE  H15Y20217   3.880   4.873   8.760 -1.1049  0.2338 -0.3008
  177SOPE  C31620218   3.835   4.663   8.760  0.0239  0.7145 -0.1590
  177SOPE  H16X20219   3.779   4.585   8.815 -0.5211 -0.9235 -2.9193
  177SOPE  H16Y20220   3.928   4.621   8.716 -0.4456 -0.5875  0.0826
  177SOPE  C31720221   3.752   4.692   8.632  0.7914 -0.2012 -0.1749
  177SOPE  H17X20222   3.803   4.771   8.573  0.0331  0.9307  0.6536
  177SOPE  H17Y20223   3.661   4.747   8.665  2.0058  2.4723 -1.1801
  177SOPE  C31820224   3.737   4.579   8.542  0.3706  0.8506  0.0023
  177SOPE  H18X20225   3.832   4.544   8.498  1.0722  0.3884  1.8536
  177SOPE  H18Y20226   3.668   4.604   8.458  0.2822  0.0492 -0.1658
  177SOPE  H18Z20227   3.695   4.489   8.592  0.7912  1.5051  1.5461
  178SOPE     N20228   0.500   3.685  10.994 -0.3888 -0.5165  0.2185
  178SOPE   HN120229   0.583   3.623  10.993 -0.2426 -0.3322 -1.8442
  178SOPE   HN220230   0.513   3.772  11.050 -0.3792 -1.3371  1.5188
  178SOPE   HN320231   0.426   3.620  11.028 -1.0659  0.0750 -0.1131
  178SOPE   C1220232   0.475   3.740  10.852  0.2921  0.4105 -0.4850
  178SOPE  H12A20233   0.411   3.827  10.874  0.0265  0.1320 -0.1495
  178SOPE  H12B20234   0.405   3.665  10.809  1.3400 -0.1732 -1.2098
  178SOPE   C1120235   0.600   3.770  10.769 -0.4389  0.5516  0.2639
  178SOPE  H11A20236   0.571   3.793  10.664 -0.5941 -1.8608 -0.2511
  178SOPE  H11B20237   0.669   3.683  10.768  0.4664  1.2718 -0.1332
  178SOPE     P20238   0.647   4.024  10.775 -0.2985  0.0518  0.3417
  178SOPE   O1320239   0.755   4.112  10.825 -0.7310  0.2979 -0.3749
  178SOPE   O1420240   0.506   4.046  10.813 -0.0282 -0.1789  0.4762
  178SOPE   O1220241   0.684   3.880  10.822 -0.3972  0.0981 -0.0593
  178SOPE   O1120242   0.658   4.021  10.615  0.0529 -0.3589  0.0639
  178SOPE    C120243   0.776   3.968  10.551  0.1399 -0.0633 -0.0820
  178SOPE    HA20244   0.842   3.902  10.612  0.8674  2.5377  2.0631
  178SOPE    HB20245   0.841   4.051  10.514 -1.1090  0.6406 -0.7013
  178SOPE    C220246   0.728   3.876  10.437 -0.5815  0.5160  0.0156
  178SOPE    HS20247   0.682   3.779  10.463 -0.6237  0.3866 -0.5280
  178SOPE   O2120248   0.832   3.855  10.342 -0.0369 -0.0826  0.0709
  178SOPE   C2120249   0.932   3.774  10.383 -0.4593 -0.7359 -0.2711
  178SOPE   O2220250   0.921   3.712  10.490 -0.3613  0.2321 -0.1108
  178SOPE   C2220251   1.050   3.781  10.280  0.7100  0.0199 -0.1026
  178SOPE   H2R20252   1.142   3.784  10.342  0.5694  0.6876  0.0721
  178SOPE   H2S20253   1.036   3.881  10.234  1.1324 -0.4034 -1.1848
  178SOPE    C320254   0.617   3.951  10.364  0.5236 -0.6073  0.0568
  178SOPE    HX20255   0.625   4.060  10.383 -0.9146 -0.2656 -1.2415
  178SOPE    HY20256   0.522   3.929  10.417  0.8168 -0.0946  0.8021
  178SOPE   O3120257   0.610   3.923  10.221 -0.0801 -0.2315 -0.8350
  178SOPE   C3120258   0.560   3.804  10.194  0.6348 -0.0187  0.1281
  178SOPE   O3220259   0.497   3.729  10.274  0.1942  0.2218  0.0103
  178SOPE   C3220260   0.579   3.775  10.037  0.0594 -0.4955 -0.3702
  178SOPE   H2X20261   0.577   3.875   9.988  0.9730 -0.1337  0.3058
  178SOPE   H2Y20262   0.491   3.721   9.997 -0.1685 -0.3675 -0.0441
  178SOPE   C2320263   1.056   3.666  10.189 -0.1333 -0.9233  0.1446
  178SOPE   H3R20264   0.971   3.670  10.118 -0.3134 -2.7879  0.2105
  178SOPE   H3S20265   1.053   3.567  10.240  0.9666 -2.0801 -1.9282
  178SOPE   C2420266   1.188   3.661  10.114  0.1357  0.5125  1.1502
  178SOPE   H4R20267   1.211   3.753  10.054 -1.7357 -0.5471 -1.2901
  178SOPE   H4S20268   1.258   3.652  10.199  2.4571  0.3091 -0.7076
  178SOPE   C2520269   1.186   3.538  10.020  0.3267  0.0911  0.2279
  178SOPE   H5R20270   1.184   3.444  10.079  0.1807  0.1295  0.2856
  178SOPE   H5S20271   1.095   3.541   9.956 -0.7108 -1.3904  1.5825
  178SOPE   C2620272   1.307   3.532   9.920  0.3068 -0.6512  0.5951
  178SOPE   H6R20273   1.404   3.547   9.972  0.3375 -1.4338  0.7701
  178SOPE   H6S20274   1.310   3.432   9.870  0.9401 -0.5580  0.4455
  178SOPE   C2720275   1.308   3.641   9.810 -0.1570 -0.1368 -0.1736
  178SOPE   H7R20276   1.212   3.641   9.753  0.3048 -1.1398 -0.9634
  178SOPE   H7S20277   1.321   3.737   9.865  1.2167  0.5035 -1.5582
  178SOPE   C2820278   1.425   3.619   9.711 -0.2229 -0.2059 -0.1990
  178SOPE   H8R20279   1.399   3.526   9.657 -2.4561 -0.6988  1.6683
  178SOPE   H8S20280   1.418   3.696   9.631 -0.2199 -0.2953 -0.2858
  178SOPE   C2920281   1.565   3.624   9.775  0.1556  0.1633  0.1421
  178SOPE   H9120282   1.591   3.528   9.823 -0.3433  1.0346  2.1691
  178SOPE  C21020283   1.658   3.723   9.757 -0.2169 -0.0854 -0.0727
  178SOPE  H10120284   1.759   3.702   9.795 -0.3602 -2.2027 -0.7968
  178SOPE  C21120285   1.649   3.848   9.675 -0.2897 -0.0375 -0.3711
  178SOPE  H11R20286   1.713   3.920   9.730  0.6319 -1.1737  0.0667
  178SOPE  H11S20287   1.547   3.892   9.676  1.0329  3.1230 -1.3625
  178SOPE  C21220288   1.692   3.850   9.524 -0.3802 -0.4879  0.0115
  178SOPE  H12R20289   1.793   3.808   9.505 -0.2441  0.9224 -2.6678
  178SOPE  H12S20290   1.709   3.958   9.501  0.2931 -1.0626 -2.2735
  178SOPE  C21320291   1.574   3.800   9.437 -0.5100 -0.4182  0.2254
  178SOPE  H13R20292   1.489   3.870   9.454  2.6323  3.5634  0.1760
  178SOPE  H13S20293   1.539   3.696   9.455 -3.0325  0.3642  0.0848
  178SOPE  C21420294   1.612   3.800   9.287  0.8514 -0.3526 -0.1589
  178SOPE  H14R20295   1.707   3.745   9.272  0.8890 -0.2794 -0.1846
  178SOPE  H14S20296   1.621   3.907   9.258 -0.8222 -0.7792 -2.3801
  178SOPE  C21520297   1.513   3.736   9.199  0.4594  0.2943 -0.4123
  178SOPE  H15R20298   1.428   3.806   9.202  0.8751  0.7883  0.0716
  178SOPE  H15S20299   1.497   3.638   9.249  1.0050  0.4122  0.0094
  178SOPE  C21620300   1.561   3.724   9.051  0.4941  0.0157  0.1872
  178SOPE  H16R20301   1.476   3.676   8.999 -0.0409  0.7998  0.3400
  178SOPE  H16S20302   1.654   3.663   9.042  1.7095  1.5216  2.1489
  178SOPE  C21720303   1.563   3.859   8.978 -0.4854 -0.0727 -0.1281
  178SOPE  H17R20304   1.616   3.930   9.045 -0.4939 -0.3167  0.1405
  178SOPE  H17S20305   1.459   3.891   8.961 -0.7486 -0.0417  1.5094
  178SOPE  C21820306   1.641   3.840   8.842  0.2071 -0.6726 -0.4827
  178SOPE  H18R20307   1.601   3.763   8.773 -0.8069 -0.1931 -0.4324
  178SOPE  H18S20308   1.745   3.811   8.870  0.6012 -1.5133 -2.7281
  178SOPE  H18T20309   1.643   3.937   8.787  0.4683 -0.5980 -0.3422
  178SOPE   C3320310   0.711   3.706   9.996  0.5242 -0.7704 -0.4528
  178SOPE   H3X20311   0.707   3.598  10.024  0.3448 -1.0962 -1.6745
  178SOPE   H3Y20312   0.806   3.753  10.029  0.2763  0.8494 -1.9885
  178SOPE   C3420313   0.728   3.698   9.836  0.4243  0.7642  0.0386
  178SOPE   H4X20314   0.642   3.635   9.804 -0.4372  1.5689  0.7409
  178SOPE   H4Y20315   0.828   3.662   9.805  1.5181  2.8951  0.9267
  178SOPE   C3520316   0.715   3.835   9.762  0.1254  0.2804  0.2458
  178SOPE   H5X20317   0.793   3.901   9.807  2.4415 -1.2515 -1.4064
  178SOPE   H5Y20318   0.610   3.870   9.776  0.3580  1.3636 -0.6169
  178SOPE   C3620319   0.751   3.820   9.611  0.5299 -0.4931 -1.0040
  178SOPE   H6X20320   0.857   3.797   9.588  0.9612  0.2037  0.2586
  178SOPE   H6Y20321   0.745   3.917   9.556  0.2036 -0.1008 -0.2805
  178SOPE   C3720322   0.660   3.718   9.538  0.2742 -0.4848  0.0858
  178SOPE   H7X20323   0.569   3.779   9.519 -1.4716 -3.2703 -0.9355
  178SOPE   H7Y20324   0.637   3.622   9.589  2.7029 -0.4979  1.2040
  178SOPE   C3820325   0.717   3.676   9.398  0.2455 -0.0050  0.1202
  178SOPE   H8X20326   0.810   3.616   9.404  2.4768  2.9563 -3.2425
  178SOPE   H8Y20327   0.739   3.765   9.335  0.3730 -0.9784 -1.2229
  178SOPE   C3920328   0.599   3.626   9.305 -0.4583  0.5783 -0.7753
  178SOPE   H9X20329   0.528   3.706   9.277 -0.3671  1.1122  0.4824
  178SOPE   H9Y20330   0.552   3.543   9.363  0.2672  0.8623  0.2395
  178SOPE  C31020331   0.649   3.559   9.182 -0.0522 -0.8332 -0.0029
  178SOPE  H10X20332   0.599   3.460   9.177 -2.1479  0.1431  0.7681
  178SOPE  H10Y20333   0.759   3.548   9.182  0.0826  0.2690 -1.9645
  178SOPE  C31120334   0.619   3.628   9.045  0.3472 -0.3182  0.2404
  178SOPE  H11X20335   0.671   3.726   9.044  2.6816 -1.5342  0.0251
  178SOPE  H11Y20336   0.514   3.658   9.028  1.0787  1.9838 -0.3959
  178SOPE  C31220337   0.673   3.537   8.926 -0.8088 -0.1402  0.6402
  178SOPE  H12X20338   0.621   3.439   8.924  1.2511 -1.2469 -0.2381
  178SOPE  H12Y20339   0.779   3.512   8.947 -0.8072 -2.3344 -1.6824
  178SOPE  C31320340   0.656   3.593   8.784 -0.1998 -0.4202 -0.0410
  178SOPE  H13X20341   0.702   3.694   8.782  0.1238 -0.5365  0.9137
  178SOPE  H13Y20342   0.551   3.609   8.753 -0.2617  1.5298  1.0742
  178SOPE  C31420343   0.735   3.506   8.680 -0.0600  0.1240 -0.2214
  178SOPE  H14X20344   0.675   3.413   8.682  2.7124 -1.7297 -0.0330
  178SOPE  H14Y20345   0.826   3.469   8.732  0.3732  0.6855 -0.5836
  178SOPE  C31520346   0.762   3.576   8.549  0.6903  0.0891 -0.6781
  178SOPE  H15X20347   0.808   3.670   8.585 -2.9192  1.1912  1.2411
  178SOPE  H15Y20348   0.672   3.608   8.492  1.5636 -0.0224 -2.1479
  178SOPE  C31620349   0.845   3.483   8.458 -0.5819 -0.1085 -1.1981
  178SOPE  H16X20350   0.941   3.455   8.506 -1.1797  0.7137  0.5187
  178SOPE  H16Y20351   0.857   3.544   8.366  3.4154  1.4039  0.2166
  178SOPE  C31720352   0.772   3.350   8.420 -0.0595  0.4998  0.1426
  178SOPE  H17X20353   0.774   3.291   8.515  2.8228 -0.7496 -0.6375
  178SOPE  H17Y20354   0.836   3.292   8.350  2.4775  0.2410  2.5656
  178SOPE  C31820355   0.628   3.364   8.371  0.1421  0.4175 -0.1904
  178SOPE  H18X20356   0.590   3.267   8.332 -0.4041  0.7849 -0.5783
  178SOPE  H18Y20357   0.634   3.429   8.281  0.6750  0.7206  0.0576
  178SOPE  H18Z20358   0.573   3.415   8.453 -0.0298 -1.4399  0.8738
  179SOPE     N20359   6.781   4.055   6.560  0.0418  0.2137 -0.3912
  179SOPE   HN120360   6.705   4.002   6.511 -0.4879  0.9976 -0.4313
  179SOPE   HN220361   6.871   4.011   6.534 -1.0386 -0.4446 -3.2401
  179SOPE   HN320362   6.762   4.025   6.658  1.5594 -1.2558 -0.5289
  179SOPE   C1220363   6.784   4.201   6.549 -0.0626 -1.5360  0.2508
  179SOPE  H12A20364   6.683   4.241   6.573  0.0316 -0.2967 -1.3674
  179SOPE  H12B20365   6.803   4.222   6.442  0.0910  1.5154  0.8520
  179SOPE   C1120366   6.901   4.253   6.629  0.3610  0.0343 -0.4286
  179SOPE  H11A20367   6.999   4.230   6.582  0.5079 -3.4807  1.4419
  179SOPE  H11B20368   6.908   4.212   6.732 -0.1874 -0.3994 -0.5616
  179SOPE     P20369   6.901   4.494   6.536 -0.0748  0.4871  0.2147
  179SOPE   O1320370   6.786   4.469   6.443  0.4840 -0.6939 -0.4176
  179SOPE   O1420371   7.036   4.480   6.482 -0.2146 -0.2502 -0.3588
  179SOPE   O1220372   6.880   4.392   6.656 -0.2131 -0.3449 -0.0187
  179SOPE   O1120373   6.895   4.633   6.607  0.0469 -0.9419 -0.3412
  179SOPE    C120374   6.998   4.690   6.683  0.5294 -0.3172 -0.2739
  179SOPE    HA20375   6.967   4.787   6.727  0.4753  0.8881 -2.8641
  179SOPE    HB20376   7.089   4.708   6.621 -0.0682 -0.0137 -1.0669
  179SOPE    C220377   7.038   4.613   6.813  0.2704 -0.5061  0.1135
  179SOPE    HS20378   7.083   4.516   6.783  2.0356  0.6615 -1.1461
  179SOPE   O2120379   6.920   4.594   6.894  0.2609  0.1689 -0.3659
  179SOPE   C2120380   6.914   4.482   6.966  0.3975 -0.6782 -0.1670
  179SOPE   O2220381   7.003   4.397   6.968  0.1351  0.1462  0.1953
  179SOPE   C2220382   6.790   4.479   7.054 -0.1776 -0.3935  0.6566
  179SOPE   H2R20383   6.768   4.370   7.051  0.3649 -0.4950  0.1999
  179SOPE   H2S20384   6.707   4.528   6.998  0.0403 -0.0061  0.6691
  179SOPE    C320385   7.154   4.678   6.892  0.0611 -0.4812  0.7623
  179SOPE    HX20386   7.115   4.782   6.899  0.3179 -0.3610  0.4167
  179SOPE    HY20387   7.251   4.677   6.838 -1.4560  2.6434 -2.3036
  179SOPE   O3120388   7.165   4.643   7.025  0.1257 -0.6202  0.3577
  179SOPE   C3120389   7.234   4.730   7.105 -0.2455  0.0475 -0.0993
  179SOPE   O3220390   7.304   4.822   7.071  0.3145 -0.2673  0.1815
  179SOPE   C3220391   7.230   4.689   7.247 -0.2161 -0.3503  0.1929
  179SOPE   H2X20392   7.330   4.644   7.264 -0.8550 -1.7961  0.1978
  179SOPE   H2Y20393   7.161   4.604   7.267  0.5130 -1.2157 -0.9464
  179SOPE   C2320394   6.811   4.542   7.200 -0.0506 -0.0897  0.4603
  179SOPE   H3R20395   6.709   4.557   7.243 -1.2558 -0.5347 -2.1544
  179SOPE   H3S20396   6.868   4.635   7.179  1.4554 -0.7402  1.5645
  179SOPE   C2420397   6.897   4.453   7.289 -0.2869  0.5376  0.4517
  179SOPE   H4R20398   6.843   4.357   7.275  0.6790  0.0501  0.0065
  179SOPE   H4S20399   7.002   4.441   7.255  0.4097  0.6823  2.4862
  179SOPE   C2520400   6.883   4.498   7.436 -0.0231  0.3477  0.0973
  179SOPE   H5R20401   6.914   4.605   7.445 -1.0756  0.6973 -0.4074
  179SOPE   H5S20402   6.780   4.479   7.470 -0.0901  0.1431 -0.2175
  179SOPE   C2620403   6.982   4.416   7.525  0.5602 -0.3922 -0.1148
  179SOPE   H6R20404   6.974   4.315   7.478 -0.3486 -0.3801  0.0026
  179SOPE   H6S20405   7.087   4.451   7.515  0.0247  1.2157 -0.1715
  179SOPE   C2720406   6.930   4.406   7.664  0.3768 -0.4244 -0.7401
  179SOPE   H7R20407   6.826   4.367   7.662 -0.2467  1.2148 -0.7205
  179SOPE   H7S20408   6.987   4.336   7.728  1.0985  0.4089 -0.4585
  179SOPE   C2820409   6.926   4.538   7.750  0.1961 -0.1965 -0.4212
  179SOPE   H8R20410   6.864   4.609   7.691 -2.3765 -1.3548  0.8110
  179SOPE   H8S20411   6.866   4.512   7.840 -1.2324  2.3525 -0.6003
  179SOPE   C2920412   7.062   4.590   7.793  0.1341 -0.0211 -0.4949
  179SOPE   H9120413   7.113   4.648   7.715 -2.7429  2.6630 -0.4653
  179SOPE  C21020414   7.124   4.571   7.911 -0.3210 -0.0632  0.1759
  179SOPE  H10120415   7.220   4.624   7.923 -1.3019  1.5846  0.9178
  179SOPE  C21120416   7.069   4.491   8.025 -0.1211 -1.1579  0.0788
  179SOPE  H11R20417   7.153   4.441   8.079  2.0999  2.0471 -0.2807
  179SOPE  H11S20418   6.998   4.413   7.990 -2.1081  0.8110 -0.3517
  179SOPE  C21220419   6.989   4.582   8.114 -0.1616  0.2471 -0.3224
  179SOPE  H12R20420   6.931   4.517   8.184 -0.9167  0.5834 -0.6262
  179SOPE  H12S20421   6.915   4.645   8.061 -0.3744  0.5568  0.3319
  179SOPE  C21320422   7.082   4.671   8.201  0.4689  0.3483  0.3327
  179SOPE  H13R20423   7.015   4.743   8.254  1.3680 -0.0351  2.0460
  179SOPE  H13S20424   7.164   4.721   8.145  2.4363 -1.8858  1.1606
  179SOPE  C21420425   7.155   4.587   8.306 -0.2463 -0.0870  0.1339
  179SOPE  H14R20426   7.233   4.516   8.271  3.0459  1.7977  3.1764
  179SOPE  H14S20427   7.079   4.526   8.359  0.7202 -0.6166  0.9470
  179SOPE  C21520428   7.228   4.681   8.408 -0.0726  0.3225  0.3078
  179SOPE  H15R20429   7.155   4.753   8.452  0.2525  1.2649 -0.6642
  179SOPE  H15S20430   7.305   4.747   8.363 -0.2357  1.0400  1.0711
  179SOPE  C21620431   7.298   4.603   8.512  1.2317  0.7526  0.2697
  179SOPE  H16R20432   7.376   4.547   8.456  0.6455  0.6594 -0.4513
  179SOPE  H16S20433   7.238   4.528   8.568 -0.1831 -1.1151 -3.5567
  179SOPE  C21720434   7.340   4.700   8.623 -0.2635  0.7002  0.4301
  179SOPE  H17R20435   7.416   4.770   8.581  0.7598 -1.4612 -1.4132
  179SOPE  H17S20436   7.402   4.635   8.687  1.6586 -0.2512 -2.2926
  179SOPE  C21820437   7.249   4.775   8.711  0.0191 -0.6851 -0.4225
  179SOPE  H18R20438   7.305   4.853   8.766 -1.2324 -0.0492 -0.0450
  179SOPE  H18S20439   7.190   4.712   8.782 -1.0490 -1.6093 -2.0888
  179SOPE  H18T20440   7.171   4.827   8.652  0.2855  0.6628  0.4166
  179SOPE   C3320441   7.205   4.814   7.340 -0.3754  0.0163  0.4371
  179SOPE   H3X20442   7.110   4.861   7.310 -0.8057 -1.0754  0.0642
  179SOPE   H3Y20443   7.296   4.878   7.341  0.1065 -0.5469 -2.2363
  179SOPE   C3420444   7.199   4.781   7.493  0.2356  0.1665 -0.4240
  179SOPE   H4X20445   7.290   4.721   7.513  1.0758  1.7885  0.6849
  179SOPE   H4Y20446   7.101   4.730   7.503  1.0328 -1.8781 -2.5061
  179SOPE   C3520447   7.199   4.914   7.574 -1.0547 -0.3252  0.4473
  179SOPE   H5X20448   7.123   4.985   7.536 -0.9790 -0.6338 -0.2892
  179SOPE   H5Y20449   7.297   4.961   7.550 -0.7987 -0.9494  0.2592
  179SOPE   C3620450   7.192   4.903   7.727  0.1309  0.3773 -0.1387
  179SOPE   H6X20451   7.248   4.811   7.755  1.0208  0.5072 -1.4540
  179SOPE   H6Y20452   7.085   4.903   7.757  0.3657 -1.5325  0.7584
  179SOPE   C3720453   7.244   5.028   7.803  0.3081  0.3788 -0.9976
  179SOPE   H7X20454   7.181   5.116   7.777  1.7107  1.8040  0.3158
  179SOPE   H7Y20455   7.343   5.065   7.770  0.0373  1.5878 -0.4799
  179SOPE   C3820456   7.244   5.002   7.956 -0.3259 -0.0236 -0.5072
  179SOPE   H8X20457   7.283   4.899   7.969 -1.4554 -0.2983  0.7216
  179SOPE   H8Y20458   7.144   4.995   8.004 -0.3469  0.1822 -0.5180
  179SOPE   C3920459   7.348   5.080   8.041  0.3521 -0.2700 -0.1606
  179SOPE   H9X20460   7.410   5.132   7.965 -0.8576 -0.0640 -1.0225
  179SOPE   H9Y20461   7.408   5.005   8.098  0.5906  0.9370  1.2013
  179SOPE  C31020462   7.273   5.184   8.127 -0.3061  0.2670  0.6698
  179SOPE  H10X20463   7.186   5.219   8.068  1.1180 -1.6027 -2.6722
  179SOPE  H10Y20464   7.336   5.273   8.146  0.7833 -0.2844 -0.3032
  179SOPE  C31120465   7.216   5.131   8.260  0.4006  0.2576 -0.4318
  179SOPE  H11X20466   7.301   5.142   8.331 -0.0431  1.2643 -0.0308
  179SOPE  H11Y20467   7.178   5.027   8.254 -2.9265  1.2739  1.2288
  179SOPE  C31220468   7.097   5.220   8.304  0.0596  0.0239  0.1862
  179SOPE  H12X20469   7.015   5.201   8.232  0.6764 -2.4872  0.1191
  179SOPE  H12Y20470   7.120   5.329   8.310  2.2081 -0.4951  2.2662
  179SOPE  C31320471   7.036   5.189   8.445 -0.5679 -0.2907  0.7380
  179SOPE  H13X20472   6.947   5.124   8.433  0.5112 -1.5777 -0.5713
  179SOPE  H13Y20473   6.993   5.286   8.476 -0.8781 -0.9257  2.3480
  179SOPE  C31420474   7.129   5.133   8.554  0.0873  1.0360 -0.2513
  179SOPE  H14X20475   7.226   5.187   8.553  1.3617 -1.2008 -0.5637
  179SOPE  H14Y20476   7.171   5.033   8.532 -1.6699  0.1028  0.5372
  179SOPE  C31520477   7.056   5.142   8.692  0.6810  0.3664  0.3625
  179SOPE  H15X20478   6.967   5.078   8.676  1.9116 -1.2065 -0.2665
  179SOPE  H15Y20479   7.022   5.247   8.707 -1.3029 -0.4539  1.8329
  179SOPE  C31620480   7.136   5.110   8.818  0.0243  0.6802 -0.7057
  179SOPE  H16X20481   7.225   5.175   8.827  0.8041 -0.6839  2.2616
  179SOPE  H16Y20482   7.182   5.009   8.818  0.3426  0.8202 -0.0317
  179SOPE  C31720483   7.043   5.128   8.935 -0.5942 -0.6856  0.1473
  179SOPE  H17X20484   6.990   5.032   8.953 -1.2092 -0.6531 -1.3491
  179SOPE  H17Y20485   6.969   5.208   8.913  0.8751  0.5638 -0.2956
  179SOPE  C31820486   7.118   5.165   9.064 -0.9089  0.0538  0.8753
  179SOPE  H18X20487   7.176   5.075   9.090  0.9013  0.5447 -1.3505
  179SOPE  H18Y20488   7.052   5.191   9.150 -1.1291  2.2446  0.0821
  179SOPE  H18Z20489   7.194   5.245   9.048 -0.4054 -1.1333 -3.2065
  180SOPE     N20490   5.913   4.589   6.279  0.0046 -0.1482  0.8617
  180SOPE   HN120491   5.936   4.634   6.188  0.0141  3.1860  2.4694
  180SOPE   HN220492   5.927   4.486   6.273  2.6613  0.1924  0.9610
  180SOPE   HN320493   5.811   4.603   6.295  0.2880  2.6071  0.4400
  180SOPE   C1220494   5.985   4.653   6.392  0.3068 -0.4436  0.2034
  180SOPE  H12A20495   6.095   4.653   6.374  0.6728 -2.1514  2.2635
  180SOPE  H12B20496   5.971   4.587   6.480 -2.0814  1.4262  1.2682
  180SOPE   C1120497   5.920   4.792   6.419 -0.1675  0.3721  0.2734
  180SOPE  H11A20498   5.975   4.818   6.512  0.8252 -0.0213 -0.1911
  180SOPE  H11B20499   5.811   4.790   6.440 -0.2754  2.1785 -0.0923
  180SOPE     P20500   6.087   4.958   6.319  0.2651  0.2268 -0.0206
  180SOPE   O1320501   6.122   5.033   6.196 -0.3142  0.8117  0.2624
  180SOPE   O1420502   6.196   4.881   6.385  0.1003 -0.2485  0.5295
  180SOPE   O1220503   5.953   4.870   6.305  0.7791 -0.3959  0.2187
  180SOPE   O1120504   6.035   5.074   6.416  0.3884 -0.0732  0.0224
  180SOPE    C120505   6.120   5.151   6.507 -0.8494  0.3181 -1.0309
  180SOPE    HA20506   6.125   5.261   6.491 -0.5083  0.4831  0.2165
  180SOPE    HB20507   6.226   5.118   6.500 -1.0995 -0.6393 -0.4430
  180SOPE    C220508   6.087   5.125   6.661 -0.2968 -0.8658 -0.0809
  180SOPE    HS20509   6.167   5.157   6.730  1.3006 -1.9568 -1.3890
  180SOPE   O2120510   6.056   4.986   6.682  0.2085  0.1591  0.3158
  180SOPE   C2120511   6.168   4.915   6.681  0.4196  0.7036  0.0311
  180SOPE   O2220512   6.279   4.964   6.680 -0.4354 -0.0302  0.1650
  180SOPE   C2220513   6.142   4.765   6.697  0.1236 -0.0044  0.2428
  180SOPE   H2R20514   6.135   4.720   6.596  2.3010  0.7187 -0.2537
  180SOPE   H2S20515   6.037   4.754   6.729 -0.2669  0.0279 -1.0003
  180SOPE    C320516   5.957   5.204   6.702 -0.0796  0.2327  0.5828
  180SOPE    HX20517   5.868   5.159   6.653 -0.5496  2.1468 -0.3469
  180SOPE    HY20518   5.971   5.310   6.672  0.2494  0.4970  1.6650
  180SOPE   O3120519   5.944   5.202   6.846 -0.1923  0.0303  0.7244
  180SOPE   C3120520   5.837   5.151   6.900  0.0334  0.3585  0.9828
  180SOPE   O3220521   5.725   5.137   6.847  0.3848 -0.0473  0.7519
  180SOPE   C3220522   5.855   5.138   7.052 -0.1461 -0.0588  0.0342
  180SOPE   H2X20523   5.928   5.208   7.097  0.2890  0.0950 -0.9017
  180SOPE   H2Y20524   5.904   5.040   7.069 -1.4530 -1.2132 -2.5550
  180SOPE   C2320525   6.233   4.676   6.785 -0.4626  0.1407  0.2184
  180SOPE   H3R20526   6.342   4.678   6.762 -0.7987  1.5687 -1.3048
  180SOPE   H3S20527   6.203   4.575   6.749  0.7119  0.4527 -1.7118
  180SOPE   C2420528   6.191   4.668   6.925  0.3323  0.2243  0.0635
  180SOPE   H4R20529   6.084   4.638   6.932  0.4350 -0.2847 -0.5640
  180SOPE   H4S20530   6.236   4.578   6.972  2.0647  0.0105 -1.9392
  180SOPE   C2520531   6.211   4.791   7.008  0.1790 -0.5344 -0.7502
  180SOPE   H5R20532   6.311   4.840   6.998  0.4919 -0.9732  0.2073
  180SOPE   H5S20533   6.136   4.866   6.973 -0.2393  0.3336  1.9374
  180SOPE   C2620534   6.206   4.764   7.165  0.8354 -0.1442 -0.1040
  180SOPE   H6R20535   6.265   4.671   7.182 -0.4025 -0.9430 -0.1034
  180SOPE   H6S20536   6.245   4.858   7.209  0.7556  0.7765 -1.9362
  180SOPE   C2720537   6.061   4.734   7.220 -0.5321 -0.6773 -0.5819
  180SOPE   H7R20538   5.996   4.820   7.197 -0.3806 -0.1888  0.7941
  180SOPE   H7S20539   6.029   4.640   7.170  1.7487 -1.6629 -0.2851
  180SOPE   C2820540   6.063   4.712   7.377 -0.7123 -0.3440 -0.1391
  180SOPE   H8R20541   5.961   4.689   7.417 -0.4720 -2.4910 -0.6973
  180SOPE   H8S20542   6.129   4.625   7.399 -0.1510 -0.2574 -1.4830
  180SOPE   C2920543   6.123   4.827   7.457 -0.4434 -0.2361 -0.7762
  180SOPE   H9120544   6.176   4.905   7.401  0.9193 -1.3817 -1.1022
  180SOPE  C21020545   6.092   4.860   7.584 -0.7317 -0.0865  0.1333
  180SOPE  H10120546   6.150   4.940   7.633 -0.9689 -0.2814  0.7290
  180SOPE  C21120547   5.996   4.790   7.678 -0.5265  0.2230  0.4287
  180SOPE  H11R20548   5.982   4.683   7.655 -0.6778 -0.0086  1.5759
  180SOPE  H11S20549   5.894   4.834   7.675 -0.0807  1.2775  0.4412
  180SOPE  C21220550   6.040   4.795   7.830  0.1281  0.3866 -0.4851
  180SOPE  H12R20551   5.949   4.763   7.885  0.3671 -0.5871 -0.6489
  180SOPE  H12S20552   6.066   4.899   7.859  0.6360  0.0914  0.1312
  180SOPE  C21320553   6.163   4.711   7.853 -0.0463 -0.2792  0.4262
  180SOPE  H13R20554   6.233   4.762   7.783 -0.4073  2.8897  2.3073
  180SOPE  H13S20555   6.135   4.612   7.811 -2.1245  0.9511 -1.1670
  180SOPE  C21420556   6.227   4.707   7.991 -0.5731 -0.6315 -0.0671
  180SOPE  H14R20557   6.291   4.795   8.010 -2.2981  0.7941 -0.7137
  180SOPE  H14S20558   6.286   4.614   8.000  0.2501 -0.2311 -1.2014
  180SOPE  C21520559   6.122   4.707   8.098  0.1096 -0.8683 -0.0843
  180SOPE  H15R20560   6.042   4.631   8.082 -1.0858  0.0998  1.2007
  180SOPE  H15S20561   6.071   4.806   8.103  2.4822  0.4112 -0.8030
  180SOPE  C21620562   6.177   4.684   8.241  0.3024  0.5181  0.1143
  180SOPE  H16R20563   6.272   4.739   8.255  0.7678 -0.5469  1.3325
  180SOPE  H16S20564   6.191   4.573   8.244 -1.1092  0.3438  1.1904
  180SOPE  C21720565   6.080   4.733   8.348  0.0903 -0.0132  0.8514
  180SOPE  H17R20566   5.980   4.690   8.330  0.7708 -1.1657 -0.2979
  180SOPE  H17S20567   6.055   4.839   8.324  3.1490 -0.1883 -3.9485
  180SOPE  C21820568   6.124   4.719   8.493 -0.4947  0.3242 -0.1188
  180SOPE  H18R20569   6.170   4.619   8.505  1.7415  1.3801  0.3601
  180SOPE  H18S20570   6.040   4.741   8.563  1.2971 -2.1730  2.9416
  180SOPE  H18T20571   6.212   4.778   8.529  0.7281 -1.2184 -0.5610
  180SOPE   C3320572   5.716   5.136   7.124 -0.5272 -0.3469  0.4922
  180SOPE   H3X20573   5.655   5.046   7.100  0.1227 -0.1133 -2.1594
  180SOPE   H3Y20574   5.649   5.221   7.099  0.2176 -0.0428 -0.5113
  180SOPE   C3420575   5.746   5.141   7.271 -0.3390 -0.1577 -0.3864
  180SOPE   H4X20576   5.805   5.054   7.307 -1.2089 -0.9823 -0.9569
  180SOPE   H4Y20577   5.646   5.122   7.314  0.9418 -2.2018  1.7781
  180SOPE   C3520578   5.801   5.269   7.330 -0.1261  0.4955 -0.3555
  180SOPE   H5X20579   5.743   5.360   7.301  1.4384  1.9330  0.9701
  180SOPE   H5Y20580   5.908   5.266   7.298 -0.4533 -2.7822 -1.2913
  180SOPE   C3620581   5.791   5.264   7.484 -0.0840  0.2502  0.4453
  180SOPE   H6X20582   5.790   5.164   7.533  1.3322 -0.0839 -0.1908
  180SOPE   H6Y20583   5.689   5.307   7.497 -1.2076 -1.7768 -1.2628
  180SOPE   C3720584   5.893   5.353   7.557 -0.3515  0.0319  0.2189
  180SOPE   H7X20585   5.884   5.456   7.516  0.2939  0.3083  0.7685
  180SOPE   H7Y20586   5.995   5.318   7.532  1.1749  2.5930  2.5515
  180SOPE   C3820587   5.883   5.334   7.710  0.5043  0.1819 -0.5386
  180SOPE   H8X20588   5.969   5.390   7.753  0.6592  1.0195 -1.9080
  180SOPE   H8Y20589   5.895   5.227   7.737  3.0496  0.0076 -2.1788
  180SOPE   C3920590   5.758   5.390   7.768  0.8239 -0.7466  0.0583
  180SOPE   H9X20591   5.676   5.329   7.724  2.1424 -0.3590 -3.0123
  180SOPE   H9Y20592   5.740   5.493   7.731 -2.6437 -0.7875  1.4232
  180SOPE  C31020593   5.754   5.390   7.925 -0.0095  0.2246  0.0116
  180SOPE  H10X20594   5.651   5.411   7.961  1.0560  4.6183  0.7308
  180SOPE  H10Y20595   5.820   5.473   7.956  0.0941  0.1658 -0.0512
  180SOPE  C31120596   5.797   5.261   7.996  0.6971  0.8990  0.1215
  180SOPE  H11X20597   5.815   5.274   8.105  0.3632  0.7198  0.1997
  180SOPE  H11Y20598   5.885   5.227   7.937  1.8554  1.7168  1.3301
  180SOPE  C31220599   5.696   5.150   7.979  0.4922 -0.3097  0.0278
  180SOPE  H12X20600   5.660   5.150   7.874 -0.3999 -3.4430  0.2610
  180SOPE  H12Y20601   5.604   5.154   8.041  0.2760  0.6877 -0.3478
  180SOPE  C31320602   5.755   5.007   7.993  0.1381  0.3335 -0.5607
  180SOPE  H13X20603   5.835   4.995   7.917 -0.0958  0.8293 -0.8912
  180SOPE  H13Y20604   5.670   4.942   7.966  0.4767 -0.1515 -0.4554
  180SOPE  C31420605   5.817   4.968   8.137  0.0042  0.0923  0.6985
  180SOPE  H14X20606   5.912   5.024   8.145  0.1100 -0.2913  2.2852
  180SOPE  H14Y20607   5.833   4.859   8.124  1.3330  0.2831  0.6473
  180SOPE  C31520608   5.728   5.005   8.257  0.3526 -0.1095 -0.5835
  180SOPE  H15X20609   5.701   5.111   8.236 -1.5254 -0.7811 -1.6801
  180SOPE  H15Y20610   5.789   5.014   8.349  1.3791  0.3259 -1.3036
  180SOPE  C31620611   5.612   4.911   8.291 -0.1702  0.1574 -0.4580
  180SOPE  H16X20612   5.642   4.805   8.306  1.4864  0.3329 -2.3852
  180SOPE  H16Y20613   5.536   4.910   8.210 -0.4083 -0.7919 -0.2262
  180SOPE  C31720614   5.539   4.950   8.426 -0.6211 -0.1656  0.1808
  180SOPE  H17X20615   5.621   4.961   8.501 -0.4838  2.3910 -0.3094
  180SOPE  H17Y20616   5.480   4.858   8.447  0.4836 -0.8511  0.3636
  180SOPE  C31820617   5.450   5.071   8.412  0.0077 -0.1102 -0.1230
  180SOPE  H18X20618   5.502   5.165   8.442  0.3948 -0.1691 -0.6096
  180SOPE  H18Y20619   5.371   5.061   8.490  0.2169 -2.7634 -0.2139
  180SOPE  H18Z20620   5.408   5.097   8.313 -3.7654 -0.2343  1.3649
  181SOPE     N20621   5.395   2.509   5.962  0.5942  0.3464  0.2342
  181SOPE   HN120622   5.455   2.586   5.928  0.4924 -0.3078 -1.4830
  181SOPE   HN220623   5.433   2.477   6.053  1.1562 -0.0576 -0.1434
  181SOPE   HN320624   5.420   2.429   5.900 -0.6057 -0.7349  1.1077
  181SOPE   C1220625   5.250   2.564   5.966 -0.7422 -0.4702 -0.4718
  181SOPE  H12A20626   5.183   2.491   6.014  0.9090 -1.4712  0.3648
  181SOPE  H12B20627   5.225   2.597   5.863 -0.7958  2.7037  0.4783
  181SOPE   C1120628   5.249   2.701   6.043  0.4092  0.3698  0.6234
  181SOPE  H11A20629   5.259   2.670   6.149  0.8520  0.7347  0.6877
  181SOPE  H11B20630   5.149   2.747   6.029 -0.4824 -1.7028 -0.2115
  181SOPE     P20631   5.411   2.895   6.116 -0.3969 -0.0110  0.5362
  181SOPE   O1320632   5.297   2.936   6.198 -0.0028  0.1342 -0.1046
  181SOPE   O1420633   5.478   3.001   6.040 -0.4675 -0.1398  0.2009
  181SOPE   O1220634   5.356   2.795   6.008  0.6401  0.3956  0.4505
  181SOPE   O1120635   5.516   2.817   6.190  0.1318  0.6155  0.1883
  181SOPE    C120636   5.649   2.859   6.221 -0.1607  0.5303  0.1789
  181SOPE    HA20637   5.672   2.960   6.181 -0.9797  0.8199  0.4299
  181SOPE    HB20638   5.715   2.793   6.160 -0.9355  0.4460 -0.5848
  181SOPE    C220639   5.689   2.836   6.373 -0.3095  0.0021  0.5004
  181SOPE    HS20640   5.664   2.732   6.403 -1.3052  0.2446  0.5376
  181SOPE   O2120641   5.629   2.940   6.448  0.0303 -0.2702  0.6413
  181SOPE   C2120642   5.523   2.907   6.514  0.2558 -0.7067  0.9077
  181SOPE   O2220643   5.469   2.799   6.518  0.5086 -0.7734  0.8018
  181SOPE   C2220644   5.470   3.036   6.580 -0.5188 -0.9665 -0.0188
  181SOPE   H2R20645   5.371   3.052   6.532 -0.3633 -1.6040 -0.5626
  181SOPE   H2S20646   5.524   3.126   6.546 -0.6558 -0.1360  1.8800
  181SOPE    C320647   5.843   2.862   6.385 -0.1736 -0.3172 -0.4047
  181SOPE    HX20648   5.861   2.969   6.363  0.1645  0.1275  1.9341
  181SOPE    HY20649   5.901   2.809   6.307  2.4185  0.8341  0.6810
  181SOPE   O3120650   5.887   2.819   6.515 -0.1499  0.2958 -0.2228
  181SOPE   C3120651   5.957   2.904   6.592 -0.1188  0.8410 -0.2538
  181SOPE   O3220652   5.992   3.020   6.564 -0.0229  0.2199 -0.4530
  181SOPE   C3220653   5.989   2.841   6.728 -0.0447  0.0456 -0.7853
  181SOPE   H2X20654   6.047   2.748   6.714  0.8137  0.2377  1.3751
  181SOPE   H2Y20655   5.899   2.817   6.788  0.4594 -1.8057 -0.7646
  181SOPE   C2320656   5.478   3.033   6.729 -0.9373  0.4839  0.2775
  181SOPE   H3R20657   5.401   2.963   6.767 -0.9331 -1.1994 -2.6722
  181SOPE   H3S20658   5.446   3.131   6.770  0.5414  2.0211 -2.1583
  181SOPE   C2420659   5.618   2.996   6.778  0.0629 -0.7033 -0.1886
  181SOPE   H4R20660   5.650   2.899   6.734 -1.7825 -1.9689  1.1792
  181SOPE   H4S20661   5.702   3.061   6.745  0.3475 -1.2274 -0.5156
  181SOPE   C2520662   5.625   2.976   6.930  0.1596 -0.4506  0.0471
  181SOPE   H5R20663   5.541   2.907   6.955  0.6518 -1.2128 -0.4025
  181SOPE   H5S20664   5.730   2.943   6.945  1.4851  3.2298 -0.6527
  181SOPE   C2620665   5.624   3.105   7.006 -0.4789  0.1512 -0.2399
  181SOPE   H6R20666   5.720   3.153   6.978 -0.0823 -0.2935  0.3524
  181SOPE   H6S20667   5.536   3.163   6.970 -0.3041 -0.0743 -1.0219
  181SOPE   C2720668   5.620   3.087   7.158  0.3448  0.4972  0.3196
  181SOPE   H7R20669   5.512   3.065   7.176 -0.0301  1.5551 -0.5616
  181SOPE   H7S20670   5.682   2.996   7.171  0.1035  0.5343  1.8953
  181SOPE   C2820671   5.664   3.192   7.258 -0.3038 -0.3195  0.0504
  181SOPE   H8R20672   5.643   3.145   7.356  1.6982 -2.8915 -0.6976
  181SOPE   H8S20673   5.773   3.210   7.247 -0.5315  1.3758  0.4541
  181SOPE   C2920674   5.586   3.321   7.237 -0.4100  0.1209 -0.8028
  181SOPE   H9120675   5.588   3.356   7.133  1.4948 -0.5102 -0.9962
  181SOPE  C21020676   5.535   3.405   7.327 -0.4654  0.0218 -1.1665
  181SOPE  H10120677   5.474   3.489   7.290  1.3140  0.9777 -1.9694
  181SOPE  C21120678   5.549   3.389   7.480  0.2636  0.6973 -0.1426
  181SOPE  H11R20679   5.607   3.301   7.514 -3.2255 -0.9467  1.8302
  181SOPE  H11S20680   5.446   3.372   7.518  0.5776  2.8030  1.7860
  181SOPE  C21220681   5.615   3.509   7.551  0.2515 -0.1948  1.0552
  181SOPE  H12R20682   5.543   3.592   7.534 -0.1211 -0.7578 -0.2033
  181SOPE  H12S20683   5.701   3.523   7.483  0.1543  1.3901  1.2374
  181SOPE  C21320684   5.646   3.475   7.692  0.5026 -0.4779  0.4354
  181SOPE  H13R20685   5.723   3.395   7.699  1.7069  0.7705  1.8134
  181SOPE  H13S20686   5.556   3.434   7.743 -0.5729  0.6520 -0.5095
  181SOPE  C21420687   5.702   3.596   7.766 -0.0365 -0.1644 -0.6207
  181SOPE  H14R20688   5.634   3.683   7.759 -0.0071 -0.2403 -2.0467
  181SOPE  H14S20689   5.792   3.615   7.704  0.3050  2.7191  0.7085
  181SOPE  C21520690   5.726   3.569   7.913 -0.1457 -0.0534 -0.2388
  181SOPE  H15R20691   5.810   3.638   7.936 -1.3331  1.9139 -1.6514
  181SOPE  H15S20692   5.757   3.463   7.906 -0.5813 -0.0747 -2.0688
  181SOPE  C21620693   5.601   3.607   7.992  0.4456  0.0676  0.2543
  181SOPE  H16R20694   5.507   3.573   7.944 -0.2064  1.4556  0.5119
  181SOPE  H16S20695   5.581   3.714   8.013  0.9112  0.0447  0.8649
  181SOPE  C21720696   5.616   3.540   8.131  0.2788 -0.3384  0.3806
  181SOPE  H17R20697   5.724   3.528   8.152  0.4739  3.2372  1.7122
  181SOPE  H17S20698   5.573   3.438   8.127  0.3790 -0.3293 -1.4711
  181SOPE  C21820699   5.540   3.608   8.243 -0.5993 -0.0723 -0.3955
  181SOPE  H18R20700   5.435   3.621   8.211 -0.7532 -0.2279  0.0429
  181SOPE  H18S20701   5.579   3.710   8.268 -0.7000 -0.1382  0.0339
  181SOPE  H18T20702   5.557   3.541   8.330  1.1405  1.1480  0.2622
  181SOPE   C3320703   6.089   2.934   6.816 -0.4717  0.2481 -0.2669
  181SOPE   H3X20704   6.170   2.990   6.766 -0.7506  0.8438 -0.0520
  181SOPE   H3Y20705   6.145   2.869   6.886  1.2335 -0.0061 -1.8446
  181SOPE   C3420706   6.013   3.038   6.902  0.2249 -0.0079 -0.0860
  181SOPE   H4X20707   5.953   2.974   6.970 -2.5782  2.0081 -0.5724
  181SOPE   H4Y20708   5.929   3.085   6.845 -2.3450 -1.8147  2.0779
  181SOPE   C3520709   6.084   3.146   6.984  0.0345 -0.5520  0.2906
  181SOPE   H5X20710   6.149   3.199   6.911  0.2209  0.6349  1.3027
  181SOPE   H5Y20711   6.153   3.091   7.052 -0.5274 -0.9591  0.5271
  181SOPE   C3620712   5.989   3.249   7.045  0.7150  0.0377  0.4263
  181SOPE   H6X20713   5.932   3.191   7.121 -0.2726  1.2453  0.6225
  181SOPE   H6Y20714   5.926   3.282   6.960 -0.7478 -2.8361  0.3270
  181SOPE   C3720715   6.067   3.368   7.100  0.2195  0.2275  0.0868
  181SOPE   H7X20716   5.990   3.444   7.123 -0.6478 -1.0748  1.6284
  181SOPE   H7Y20717   6.132   3.406   7.019  1.2124 -0.0472  0.7333
  181SOPE   C3820718   6.132   3.340   7.235 -0.3396  0.2915  0.0783
  181SOPE   H8X20719   6.237   3.305   7.226  0.6237  2.9972  0.4247
  181SOPE   H8Y20720   6.076   3.255   7.280 -0.5515  1.4641  2.1217
  181SOPE   C3920721   6.119   3.455   7.330 -0.1621 -0.0395  0.0112
  181SOPE   H9X20722   6.011   3.470   7.352 -0.0104 -0.5870  1.1718
  181SOPE   H9Y20723   6.169   3.552   7.307  0.1876  0.0893  1.2601
  181SOPE  C31020724   6.173   3.410   7.472 -0.6808 -0.4360 -0.5514
  181SOPE  H10X20725   6.261   3.346   7.453  0.0938  0.5571 -0.3347
  181SOPE  H10Y20726   6.092   3.362   7.532 -2.2059  1.4986 -1.0149
  181SOPE  C31120727   6.216   3.531   7.566 -0.1475 -0.1144  0.2680
  181SOPE  H11X20728   6.134   3.605   7.568 -0.0531 -0.0429  3.1482
  181SOPE  H11Y20729   6.307   3.578   7.524 -1.5603  2.2823 -0.2124
  181SOPE  C31220730   6.239   3.488   7.715 -0.7101 -0.1257  0.0908
  181SOPE  H12X20731   6.304   3.398   7.724  1.1098  1.4116  2.9121
  181SOPE  H12Y20732   6.146   3.455   7.766 -0.4493 -0.1407  0.5617
  181SOPE  C31320733   6.293   3.606   7.805  0.1598 -0.1496 -0.5906
  181SOPE  H13X20734   6.245   3.697   7.764 -0.3535 -0.1365  0.0379
  181SOPE  H13Y20735   6.404   3.613   7.794  0.1985 -0.0814 -0.1433
  181SOPE  C31420736   6.249   3.602   7.952  0.4752 -0.4879  0.3078
  181SOPE  H14X20737   6.296   3.509   7.991  1.1359 -0.9174 -1.4616
  181SOPE  H14Y20738   6.138   3.601   7.951  0.4829 -1.0394  0.3056
  181SOPE  C31520739   6.294   3.713   8.041  0.7648 -0.3057 -0.1830
  181SOPE  H15X20740   6.291   3.817   8.002  0.5229  0.6963  2.4235
  181SOPE  H15Y20741   6.405   3.704   8.042  0.7335 -1.2266 -2.4990
  181SOPE  C31620742   6.240   3.698   8.181  0.0030 -0.1171 -0.0718
  181SOPE  H16X20743   6.289   3.620   8.243  1.8311  2.8038  2.2864
  181SOPE  H16Y20744   6.132   3.673   8.174  0.0033 -0.5149  1.2671
  181SOPE  C31720745   6.236   3.826   8.265 -0.1277 -0.1396  0.4827
  181SOPE  H17X20746   6.168   3.900   8.217  0.9629  1.2366  1.0032
  181SOPE  H17Y20747   6.344   3.853   8.265  0.2463 -1.6122  0.1407
  181SOPE  C31820748   6.195   3.804   8.413  0.5496  0.3273  0.1396
  181SOPE  H18X20749   6.189   3.899   8.471 -2.7145  0.8748 -0.9953
  181SOPE  H18Y20750   6.257   3.731   8.469  1.4135 -1.0990 -2.5884
  181SOPE  H18Z20751   6.091   3.765   8.410 -0.0339  1.7873  0.6592
  182SOPE     N20752   6.551   4.580   6.388  0.2519  0.7061 -0.5758
  182SOPE   HN120753   6.637   4.539   6.429  0.4895  0.9568 -0.8169
  182SOPE   HN220754   6.572   4.586   6.287  2.5225 -1.7701 -0.2824
  182SOPE   HN320755   6.549   4.676   6.429 -0.2766  0.0834  0.8883
  182SOPE   C1220756   6.429   4.492   6.422 -0.3417 -0.3634 -0.6772
  182SOPE  H12A20757   6.340   4.559   6.418  0.7421  1.4431  2.9875
  182SOPE  H12B20758   6.434   4.456   6.528 -0.7988  1.7983  0.1065
  182SOPE   C1120759   6.416   4.368   6.328  0.0949 -0.2585  0.5362
  182SOPE  H11A20760   6.394   4.415   6.230 -0.5992  0.7141  1.1511
  182SOPE  H11B20761   6.333   4.308   6.371 -0.3848  1.0027  1.3971
  182SOPE     P20762   6.566   4.161   6.250  0.2489 -0.0297 -0.0859
  182SOPE   O1320763   6.688   4.166   6.168 -0.4734  0.3440 -0.6594
  182SOPE   O1420764   6.439   4.122   6.178  0.5113 -0.2327 -0.1044
  182SOPE   O1220765   6.539   4.300   6.329  0.0130 -0.6451  0.5545
  182SOPE   O1120766   6.592   4.052   6.363 -0.0266  0.2203  0.0193
  182SOPE    C120767   6.510   3.945   6.403  0.0816 -0.1535  0.4095
  182SOPE    HA20768   6.571   3.873   6.461  0.9461  1.4047  1.4744
  182SOPE    HB20769   6.464   3.889   6.318  0.1485 -2.2027  1.6879
  182SOPE    C220770   6.395   3.999   6.488 -0.1630 -0.5386  0.3552
  182SOPE    HS20771   6.327   4.056   6.421  0.1517  0.8716  1.2195
  182SOPE   O2120772   6.440   4.099   6.586  0.7119 -0.7184  0.0546
  182SOPE   C2120773   6.345   4.148   6.663  0.1260 -0.5048 -0.1292
  182SOPE   O2220774   6.230   4.163   6.636 -0.2709  0.2818  0.4441
  182SOPE   C2220775   6.409   4.166   6.802 -0.1698 -0.2705 -0.0798
  182SOPE   H2R20776   6.501   4.227   6.787 -0.7093  0.6067  0.1510
  182SOPE   H2S20777   6.426   4.061   6.833 -0.2487 -0.0900  0.5605
  182SOPE    C320778   6.314   3.888   6.559  0.1396  0.4851 -0.3640
  182SOPE    HX20779   6.279   3.814   6.484 -1.0355  2.5847 -1.9116
  182SOPE    HY20780   6.217   3.929   6.593  0.2125  2.7107 -2.7496
  182SOPE   O3120781   6.390   3.827   6.669  0.4311 -0.3814  0.5237
  182SOPE   C3120782   6.431   3.704   6.640  0.0160  0.1088 -0.1076
  182SOPE   O3220783   6.405   3.637   6.539 -0.3022 -0.1555  0.1186
  182SOPE   C3220784   6.512   3.655   6.762 -0.6565 -0.3362 -0.7051
  182SOPE   H2X20785   6.454   3.656   6.857  1.3802 -2.1026  0.6226
  182SOPE   H2Y20786   6.598   3.724   6.777 -1.6146  0.7548 -0.1877
  182SOPE   C2320787   6.317   4.236   6.908  0.3576  0.7867  0.4231
  182SOPE   H3R20788   6.247   4.161   6.951  1.6624  0.8053  2.6657
  182SOPE   H3S20789   6.264   4.318   6.854 -1.1840  0.3244  1.1995
  182SOPE   C2420790   6.398   4.311   7.011 -0.0573 -0.3727  1.0319
  182SOPE   H4R20791   6.474   4.385   6.979 -0.6016  1.5283  3.9047
  182SOPE   H4S20792   6.331   4.385   7.062  1.5964  1.2478  0.9062
  182SOPE   C2520793   6.460   4.216   7.119 -0.3516 -0.3645 -0.0171
  182SOPE   H5R20794   6.382   4.150   7.161 -2.0860  0.4765 -1.8513
  182SOPE   H5S20795   6.532   4.150   7.065  0.0996  1.2700 -1.4852
  182SOPE   C2620796   6.525   4.284   7.236 -0.3422  0.8791 -0.6899
  182SOPE   H6R20797   6.581   4.210   7.297 -2.2269  0.4108  0.5146
  182SOPE   H6S20798   6.607   4.355   7.213  2.0577 -1.9190 -0.9466
  182SOPE   C2720799   6.423   4.357   7.329 -0.2084  0.7861  0.0954
  182SOPE   H7R20800   6.373   4.437   7.270  0.1401  0.9814  0.0661
  182SOPE   H7S20801   6.342   4.288   7.360  1.3324  0.0344  2.5844
  182SOPE   C2820802   6.492   4.412   7.456 -0.2362  0.1682  0.2761
  182SOPE   H8R20803   6.547   4.322   7.493  0.1655  0.9705  1.6797
  182SOPE   H8S20804   6.581   4.470   7.423  2.6008 -2.8871  2.1488
  182SOPE   C2920805   6.401   4.484   7.550 -1.3600  0.1297  0.6193
  182SOPE   H9120806   6.330   4.559   7.511 -2.5051  0.9315  4.0745
  182SOPE  C21020807   6.382   4.445   7.678  0.0610  0.8555  0.8218
  182SOPE  H10120808   6.303   4.493   7.738 -0.3655 -1.3280  2.0693
  182SOPE  C21120809   6.467   4.345   7.754 -0.1877  0.5125  0.1564
  182SOPE  H11R20810   6.574   4.352   7.726 -0.7094  1.9188 -1.5672
  182SOPE  H11S20811   6.426   4.246   7.723 -1.9283  1.2312  0.1204
  182SOPE  C21220812   6.457   4.351   7.906 -0.5305  1.3210 -0.0056
  182SOPE  H12R20813   6.498   4.260   7.954  1.2172  1.7367 -0.6720
  182SOPE  H12S20814   6.351   4.365   7.936 -0.7681  0.7504 -0.5661
  182SOPE  C21320815   6.540   4.460   7.972  0.5490 -0.0419  0.1602
  182SOPE  H13R20816   6.481   4.554   7.982 -0.0684 -0.5076  0.9790
  182SOPE  H13S20817   6.635   4.484   7.921  0.7766 -0.2372  0.4915
  182SOPE  C21420818   6.586   4.420   8.112 -0.3253 -0.2762  0.7824
  182SOPE  H14R20819   6.637   4.510   8.152 -2.5550  1.7246 -0.7398
  182SOPE  H14S20820   6.654   4.333   8.102  2.2744  1.8668 -0.7126
  182SOPE  C21520821   6.469   4.387   8.210  0.0575  0.3637 -0.7154
  182SOPE  H15R20822   6.424   4.289   8.181  2.6016 -0.4826 -1.9642
  182SOPE  H15S20823   6.402   4.476   8.205 -0.5672 -0.0297  0.4298
  182SOPE  C21620824   6.507   4.366   8.356  0.4516  0.2623 -0.5897
  182SOPE  H16R20825   6.534   4.462   8.404  1.5449 -0.7172  0.7797
  182SOPE  H16S20826   6.594   4.298   8.354 -1.4137 -2.3469  2.3812
  182SOPE  C21720827   6.391   4.293   8.433  0.3926  0.5746 -0.4863
  182SOPE  H17R20828   6.381   4.183   8.419  1.4634  0.4034  0.0300
  182SOPE  H17S20829   6.298   4.349   8.409 -0.4762  0.1542  1.7326
  182SOPE  C21820830   6.419   4.301   8.586 -0.2042 -0.8102 -0.8111
  182SOPE  H18R20831   6.355   4.229   8.641  1.4048 -1.1215  0.6863
  182SOPE  H18S20832   6.406   4.403   8.629  0.9695  0.2169 -2.8159
  182SOPE  H18T20833   6.529   4.284   8.593 -0.0339  1.1230  2.2027
  182SOPE   C3320834   6.565   3.512   6.737  0.1529 -0.2920  0.8538
  182SOPE   H3X20835   6.623   3.500   6.643  0.5055 -1.2181  1.1821
  182SOPE   H3Y20836   6.493   3.428   6.726  2.2560 -2.1431  0.6905
  182SOPE   C3420837   6.661   3.476   6.852  0.3933 -0.1123 -0.5484
  182SOPE   H4X20838   6.755   3.534   6.851  0.2528  0.1430  0.4280
  182SOPE   H4Y20839   6.680   3.367   6.849 -1.9602 -0.5312 -1.4301
  182SOPE   C3520840   6.596   3.496   6.992  0.3719  0.2763  0.4294
  182SOPE   H5X20841   6.486   3.479   6.981 -0.0890  3.2296  0.0377
  182SOPE   H5Y20842   6.617   3.601   7.020  2.1565 -0.0433  0.3358
  182SOPE   C3620843   6.647   3.409   7.101 -0.1153 -0.5695 -0.3444
  182SOPE   H6X20844   6.756   3.432   7.107 -0.6199  2.4134 -1.6359
  182SOPE   H6Y20845   6.649   3.304   7.065 -1.4402 -0.1505 -1.6782
  182SOPE   C3720846   6.577   3.432   7.235  0.2573 -0.8130  0.2324
  182SOPE   H7X20847   6.480   3.379   7.230  0.0660 -0.2976 -1.6000
  182SOPE   H7Y20848   6.561   3.541   7.232 -0.7698 -0.9990 -1.1582
  182SOPE   C3820849   6.658   3.404   7.366  0.2912 -0.2634  0.2193
  182SOPE   H8X20850   6.760   3.447   7.359  0.9086 -1.5640  0.9441
  182SOPE   H8Y20851   6.660   3.294   7.380 -2.9598 -0.4380 -0.2641
  182SOPE   C3920852   6.606   3.477   7.491  0.3244  0.3761 -0.0577
  182SOPE   H9X20853   6.499   3.459   7.515  0.2164  0.8329 -0.2026
  182SOPE   H9Y20854   6.619   3.587   7.492 -1.1465  0.5515  1.3020
  182SOPE  C31020855   6.699   3.445   7.612 -0.1291 -0.3811 -0.1249
  182SOPE  H10X20856   6.799   3.490   7.591 -0.1598 -1.0427 -1.7595
  182SOPE  H10Y20857   6.717   3.336   7.627  1.3083 -0.0980  0.3029
  182SOPE  C31120858   6.640   3.500   7.737  0.1744 -0.2598 -0.0324
  182SOPE  H11X20859   6.561   3.425   7.761  0.1890 -0.7588 -1.5157
  182SOPE  H11Y20860   6.599   3.603   7.740 -2.0885 -1.1632  0.9745
  182SOPE  C31220861   6.744   3.489   7.857  0.2949 -1.0581  0.4192
  182SOPE  H12X20862   6.821   3.567   7.834  1.4307 -2.4020 -0.4009
  182SOPE  H12Y20863   6.782   3.385   7.855 -0.1130 -1.1906 -1.2988
  182SOPE  C31320864   6.694   3.524   8.002  0.1149  0.6336  0.3206
  182SOPE  H13X20865   6.638   3.619   7.991  1.3666  1.4549  0.9637
  182SOPE  H13Y20866   6.781   3.541   8.069 -0.4696  1.1058  0.9594
  182SOPE  C31420867   6.602   3.413   8.069  0.1475 -1.1632  0.2522
  182SOPE  H14X20868   6.653   3.315   8.071  1.8145 -0.3684 -1.8977
  182SOPE  H14Y20869   6.508   3.399   8.011  0.0410  1.1136 -0.1571
  182SOPE  C31520870   6.568   3.449   8.213 -0.0279 -0.5630  0.6114
  182SOPE  H15X20871   6.496   3.533   8.223  0.6639  0.1578 -0.3182
  182SOPE  H15Y20872   6.652   3.479   8.279 -0.4263 -0.1223  0.9172
  182SOPE  C31620873   6.500   3.330   8.285  0.7448 -0.5723 -0.9107
  182SOPE  H16X20874   6.443   3.271   8.211 -1.6914  0.6367 -0.0344
  182SOPE  H16Y20875   6.431   3.367   8.364  0.8932 -0.2597 -0.9257
  182SOPE  C31720876   6.617   3.240   8.340 -0.3931  0.2738 -0.4346
  182SOPE  H17X20877   6.705   3.301   8.370  0.0859 -1.5652  2.1030
  182SOPE  H17Y20878   6.650   3.173   8.257 -2.3381  0.3272 -1.2758
  182SOPE  C31820879   6.572   3.155   8.463 -0.1991 -0.2586 -0.8390
  182SOPE  H18X20880   6.472   3.110   8.442 -0.1336 -0.2240 -1.2251
  182SOPE  H18Y20881   6.563   3.210   8.559 -0.0111 -1.1820 -0.2861
  182SOPE  H18Z20882   6.654   3.081   8.478  2.4563  1.8973 -3.9914
  183SOPE     N20883   1.191   2.177   6.308 -0.5614 -0.4676  0.4447
  183SOPE   HN120884   1.228   2.159   6.403  0.6540  1.1967  0.3167
  183SOPE   HN220885   1.125   2.258   6.308 -2.7097 -2.1472 -1.5421
  183SOPE   HN320886   1.134   2.091   6.291 -1.0642  0.4111 -2.7518
  183SOPE   C1220887   1.293   2.192   6.207  0.2590 -1.0403 -0.6889
  183SOPE  H12A20888   1.239   2.209   6.112 -1.3593 -2.8613 -0.1441
  183SOPE  H12B20889   1.340   2.094   6.183  1.0047 -0.9989  0.5446
  183SOPE   C1120890   1.394   2.307   6.244  0.2309 -0.9143 -0.3594
  183SOPE  H11A20891   1.344   2.406   6.253  1.0027 -0.4681 -0.8211
  183SOPE  H11B20892   1.457   2.316   6.152 -0.6822 -2.7329 -1.1874
  183SOPE     P20893   1.572   2.159   6.360 -0.6023  0.2064  0.6198
  183SOPE   O1320894   1.679   2.181   6.259 -0.0879 -0.1730 -0.9531
  183SOPE   O1420895   1.488   2.040   6.354 -0.0881 -0.2664  0.0897
  183SOPE   O1220896   1.477   2.288   6.356 -0.2607 -0.2460  0.1256
  183SOPE   O1120897   1.648   2.176   6.498  0.2347 -0.4919 -1.1035
  183SOPE    C120898   1.591   2.252   6.601 -0.0481 -0.1643  0.4942
  183SOPE    HA20899   1.480   2.255   6.594  0.0574 -1.7563 -2.3048
  183SOPE    HB20900   1.630   2.356   6.600  1.9071 -0.8870 -0.0758
  183SOPE    C220901   1.615   2.204   6.750 -0.6269 -0.9496  0.1270
  183SOPE    HS20902   1.548   2.269   6.810 -1.2925 -1.2323 -0.3069
  183SOPE   O2120903   1.764   2.199   6.779  0.0211  0.3712 -0.0990
  183SOPE   C2120904   1.819   2.319   6.801 -0.5073 -1.1878 -0.6712
  183SOPE   O2220905   1.764   2.425   6.803 -0.0261  0.2797 -0.3179
  183SOPE   C2220906   1.967   2.306   6.829 -0.4157 -0.2898  0.4784
  183SOPE   H2R20907   2.011   2.409   6.832 -0.7465 -0.1695  2.2489
  183SOPE   H2S20908   2.007   2.250   6.742  1.7545 -0.0274  1.2822
  183SOPE    C320909   1.563   2.057   6.785  0.0237  0.1202 -0.4905
  183SOPE    HX20910   1.625   1.986   6.725  0.6103  0.5480 -0.3982
  183SOPE    HY20911   1.459   2.039   6.751 -0.8749  2.4088  0.9382
  183SOPE   O3120912   1.579   2.016   6.919 -0.4717  0.1116  0.1904
  183SOPE   C3120913   1.513   2.083   7.010 -0.0048  0.8979 -0.3466
  183SOPE   O3220914   1.435   2.174   6.993 -0.4598  0.2448  0.4496
  183SOPE   C3220915   1.541   2.012   7.142 -0.4065 -0.3582 -0.3744
  183SOPE   H2X20916   1.651   2.003   7.159 -0.1284 -0.1999 -2.0518
  183SOPE   H2Y20917   1.506   1.907   7.149  0.0299 -0.4364  0.9151
  183SOPE   C2320918   1.999   2.240   6.959 -1.3184 -0.0185  0.0406
  183SOPE   H3R20919   2.109   2.230   6.968 -1.1065  2.6787  1.1003
  183SOPE   H3S20920   1.946   2.143   6.964  1.7401 -1.7854 -0.6432
  183SOPE   C2420921   1.962   2.328   7.078  0.2453 -0.1317 -1.1677
  183SOPE   H4R20922   2.042   2.318   7.154 -1.9789  1.5895  1.4690
  183SOPE   H4S20923   1.967   2.437   7.057 -0.0854  0.0572 -0.2650
  183SOPE   C2520924   1.816   2.297   7.133 -0.0745  0.1175  0.1286
  183SOPE   H5R20925   1.734   2.280   7.061  0.9832  0.1759 -1.1160
  183SOPE   H5S20926   1.816   2.201   7.188  1.2234  2.1494  3.9112
  183SOPE   C2620927   1.781   2.408   7.239 -0.1247 -0.1646  0.5303
  183SOPE   H6R20928   1.783   2.510   7.197  1.4574 -0.6902 -0.7080
  183SOPE   H6S20929   1.678   2.386   7.275 -0.5299  1.2774  0.2628
  183SOPE   C2720930   1.870   2.403   7.363 -0.1245 -1.2370  0.4002
  183SOPE   H7R20931   1.870   2.297   7.396 -1.3519 -1.5655 -0.6032
  183SOPE   H7S20932   1.972   2.442   7.343 -0.5558 -0.6267 -0.6853
  183SOPE   C2820933   1.811   2.494   7.479 -0.0602  0.9072 -0.2908
  183SOPE   H8R20934   1.840   2.599   7.457 -2.6043  1.4683 -1.1694
  183SOPE   H8S20935   1.700   2.485   7.478  0.2111 -4.6317  1.9333
  183SOPE   C2920936   1.870   2.437   7.611  0.2385  0.8133  0.8213
  183SOPE   H9120937   1.977   2.411   7.611 -0.6291 -3.1373  0.4497
  183SOPE  C21020938   1.806   2.406   7.725 -0.4420 -0.1041 -0.8424
  183SOPE  H10120939   1.871   2.373   7.808 -0.3343  0.7518 -0.5810
  183SOPE  C21120940   1.659   2.416   7.759  0.2172  0.3479 -0.0210
  183SOPE  H11R20941   1.610   2.317   7.767  2.7934 -0.9883 -0.0246
  183SOPE  H11S20942   1.607   2.476   7.682 -0.2299 -0.2524 -0.1894
  183SOPE  C21220943   1.639   2.474   7.903 -0.6790  0.7543  0.2773
  183SOPE  H12R20944   1.681   2.576   7.904 -1.0566  0.9575 -1.7674
  183SOPE  H12S20945   1.689   2.404   7.973 -1.1906  0.3152  0.2034
  183SOPE  C21320946   1.491   2.486   7.951  0.1669  0.3800 -0.0506
  183SOPE  H13R20947   1.442   2.386   7.953  1.0466 -0.0479  0.9763
  183SOPE  H13S20948   1.443   2.551   7.876  0.4422 -0.3019 -0.8343
  183SOPE  C21420949   1.478   2.554   8.088 -0.0820 -0.4962  0.1903
  183SOPE  H14R20950   1.371   2.581   8.100  0.4638  2.0401 -0.2932
  183SOPE  H14S20951   1.532   2.651   8.078 -0.1673 -0.1916  2.4266
  183SOPE  C21520952   1.543   2.477   8.195 -0.5815  0.4982  0.2924
  183SOPE  H15R20953   1.654   2.483   8.194 -0.3901 -2.4645 -0.6320
  183SOPE  H15S20954   1.538   2.367   8.204  2.7472  0.3353  0.9462
  183SOPE  C21620955   1.492   2.547   8.326 -0.0647 -0.3263  0.0178
  183SOPE  H16R20956   1.382   2.553   8.335  0.0935 -0.0927  1.9169
  183SOPE  H16S20957   1.521   2.653   8.315 -0.9819 -0.1393 -0.6637
  183SOPE  C21720958   1.547   2.488   8.458  0.4920  0.2100 -0.2604
  183SOPE  H17R20959   1.524   2.560   8.540 -0.2386 -0.0685 -0.2224
  183SOPE  H17S20960   1.658   2.492   8.453  0.7986 -0.9978  3.4795
  183SOPE  C21820961   1.500   2.344   8.484  0.2254  0.8156 -0.2401
  183SOPE  H18R20962   1.407   2.319   8.428 -0.4108  0.4402  0.9744
  183SOPE  H18S20963   1.492   2.339   8.594  2.1628  0.2528 -0.1114
  183SOPE  H18T20964   1.568   2.270   8.438 -0.2013  1.1184 -1.3844
  183SOPE   C3320965   1.485   2.088   7.265 -0.1274  0.3725 -0.9434
  183SOPE   H3X20966   1.374   2.099   7.261 -0.2758  0.2664  1.9512
  183SOPE   H3Y20967   1.519   2.193   7.262 -1.3002  0.8030  0.3492
  183SOPE   C3420968   1.529   2.025   7.396 -0.1722  0.7791  0.2321
  183SOPE   H4X20969   1.635   1.989   7.393  0.0548  1.0841  2.8694
  183SOPE   H4Y20970   1.467   1.935   7.420 -0.1593  1.0418  1.2888
  183SOPE   C3520971   1.514   2.121   7.513 -0.1766 -0.4074 -0.2463
  183SOPE   H5X20972   1.538   2.227   7.491  0.3595 -0.6083 -0.6476
  183SOPE   H5Y20973   1.574   2.084   7.599 -0.0978  2.4318  0.9598
  183SOPE   C3620974   1.368   2.106   7.570 -0.0991 -0.0259 -0.0365
  183SOPE   H6X20975   1.346   1.997   7.565  0.2339 -0.0558 -1.0806
  183SOPE   H6Y20976   1.302   2.165   7.502 -0.9039 -0.9025 -0.0193
  183SOPE   C3720977   1.356   2.157   7.712 -0.7015  0.2028  0.3413
  183SOPE   H7X20978   1.372   2.266   7.726 -0.6299  0.1193  0.9134
  183SOPE   H7Y20979   1.434   2.108   7.773 -1.0736 -0.4800  0.2791
  183SOPE   C3820980   1.210   2.144   7.763  0.6470 -0.6415  0.2312
  183SOPE   H8X20981   1.199   2.034   7.774  0.7020 -0.7818 -1.0530
  183SOPE   H8Y20982   1.132   2.179   7.692  0.3813  2.1472  1.8447
  183SOPE   C3920983   1.196   2.187   7.902  0.2836 -0.2329  0.5876
  183SOPE   H9X20984   1.096   2.160   7.944 -1.0195  0.5036 -1.9655
  183SOPE   H9Y20985   1.210   2.297   7.909 -2.4937  0.0353  3.2085
  183SOPE  C31020986   1.292   2.123   8.001  0.1149 -0.7096  0.0496
  183SOPE  H10X20987   1.394   2.149   7.967 -0.4048  2.3647  0.6862
  183SOPE  H10Y20988   1.293   2.012   7.993 -0.7493 -0.8629  1.8119
  183SOPE  C31120989   1.272   2.160   8.152 -0.4797  0.2027  0.3104
  183SOPE  H11X20990   1.270   2.271   8.153 -1.5578  0.1900  0.0511
  183SOPE  H11Y20991   1.357   2.124   8.214 -1.5403  2.8755  3.4036
  183SOPE  C31220992   1.140   2.108   8.213 -0.9355  0.0465  0.4477
  183SOPE  H12X20993   1.152   2.000   8.238 -1.3949  0.2893  1.7827
  183SOPE  H12Y20994   1.050   2.108   8.148 -0.4596 -0.0559 -0.2179
  183SOPE  C31320995   1.103   2.195   8.333  0.0367 -0.3800  0.3381
  183SOPE  H13X20996   1.101   2.301   8.301  0.1447 -0.5433 -0.2072
  183SOPE  H13Y20997   1.177   2.195   8.417 -0.3447 -0.9484  0.6744
  183SOPE  C31420998   0.968   2.156   8.405 -0.4534 -0.3597  0.6264
  183SOPE  H14X20999   0.980   2.063   8.464  1.5779 -0.2670  0.3893
  183SOPE  H14Y21000   0.888   2.145   8.328  0.2425 -1.6901  0.0981
  183SOPE  C31521001   0.933   2.258   8.517 -0.1608  0.2589  0.4098
  183SOPE  H15X21002   0.908   2.353   8.466  0.7613  0.9160  1.1685
  183SOPE  H15Y21003   1.020   2.274   8.584  0.1473 -0.1046  0.0989
  183SOPE  C31621004   0.819   2.207   8.605  0.4037  0.4273 -0.3807
  183SOPE  H16X21005   0.872   2.140   8.676 -0.2429 -0.2611 -0.5429
  183SOPE  H16Y21006   0.743   2.148   8.551  0.3322  1.7702 -1.7660
  183SOPE  C31721007   0.767   2.309   8.707 -0.2900  0.0570 -0.7341
  183SOPE  H17X21008   0.697   2.380   8.659 -1.8494 -1.6431 -1.0486
  183SOPE  H17Y21009   0.850   2.364   8.756 -2.4187  1.8094  0.9855
  183SOPE  C31821010   0.692   2.259   8.832 -0.1973 -0.1928 -0.2091
  183SOPE  H18X21011   0.606   2.199   8.797  1.2210 -1.4279 -1.6123
  183SOPE  H18Y21012   0.659   2.329   8.912 -1.8823 -0.2635 -0.8310
  183SOPE  H18Z21013   0.760   2.186   8.880 -0.7498 -0.7139 -0.2215
  184SOPE     N21014   0.950   2.157   5.819 -0.1461 -0.3930 -0.2841
  184SOPE   HN121015   0.936   2.146   5.922  0.0352  0.0241 -0.2147
  184SOPE   HN221016   0.855   2.181   5.782 -0.4413 -1.4415 -0.2248
  184SOPE   HN321017   0.988   2.066   5.788 -1.6435 -1.7819  1.8103
  184SOPE   C1221018   1.047   2.272   5.803  0.3679  0.1017 -0.8616
  184SOPE  H12A21019   1.031   2.317   5.702 -0.4099 -1.4634 -1.4533
  184SOPE  H12B21020   1.152   2.242   5.819 -0.1315  0.4955  3.7125
  184SOPE   C1121021   1.016   2.380   5.909 -1.1707  0.7704  0.2942
  184SOPE  H11A21022   0.919   2.423   5.877 -2.1170 -0.8665  0.9074
  184SOPE  H11B21023   1.104   2.448   5.909  0.7231 -1.5209 -3.0560
  184SOPE     P21024   0.935   2.414   6.156  0.1175 -0.1283 -0.3801
  184SOPE   O1321025   0.787   2.395   6.159  0.2223 -0.1817  0.6255
  184SOPE   O1421026   0.985   2.551   6.142 -0.2709 -0.6104 -0.1878
  184SOPE   O1221027   1.001   2.326   6.039  0.1312 -0.3386 -0.3759
  184SOPE   O1121028   0.992   2.346   6.284  0.1443  0.0485  0.2348
  184SOPE    C121029   0.936   2.381   6.411 -0.2167 -1.1731  0.4803
  184SOPE    HA21030   0.946   2.303   6.488  1.1739 -0.5333  0.9745
  184SOPE    HB21031   0.827   2.399   6.405 -0.0645  0.7642  2.6563
  184SOPE    C221032   0.995   2.516   6.471  0.5642 -0.5396  0.5802
  184SOPE    HS21033   0.940   2.601   6.425  1.1206  0.9064  2.5446
  184SOPE   O2121034   1.142   2.524   6.446 -0.2566 -0.2707  0.1259
  184SOPE   C2121035   1.205   2.635   6.483  1.3962 -0.1391 -0.3470
  184SOPE   O2221036   1.157   2.748   6.503 -0.3265 -0.4407  0.1654
  184SOPE   C2221037   1.355   2.614   6.492  1.3885 -0.0294 -0.2144
  184SOPE   H2R21038   1.397   2.647   6.394 -1.8603  0.1237 -1.5995
  184SOPE   H2S21039   1.373   2.505   6.498 -0.8079 -0.3929 -0.0229
  184SOPE    C321040   0.968   2.514   6.625 -0.2470  0.3114  0.1890
  184SOPE    HX21041   1.005   2.610   6.668  1.0966  0.0619 -0.4116
  184SOPE    HY21042   1.024   2.426   6.663 -2.6544 -1.8260 -1.1035
  184SOPE   O3121043   0.821   2.506   6.635  0.1079  0.1121  0.0504
  184SOPE   C3121044   0.776   2.502   6.760 -0.7097  0.2170  0.2931
  184SOPE   O3221045   0.844   2.513   6.860  0.4876  0.6189  0.1396
  184SOPE   C3221046   0.627   2.473   6.763  0.1777  0.0868  0.5761
  184SOPE   H2X21047   0.602   2.391   6.693 -0.9188 -0.3910  1.5210
  184SOPE   H2Y21048   0.565   2.561   6.736  0.6851  0.1790 -0.3079
  184SOPE   C2321049   1.412   2.682   6.622  0.5035 -0.6015  0.3328
  184SOPE   H3R21050   1.390   2.791   6.618  0.5019 -0.6230 -0.3554
  184SOPE   H3S21051   1.522   2.670   6.612  0.6135  0.0231  0.8011
  184SOPE   C2421052   1.349   2.624   6.749 -0.5002  0.2201  0.2236
  184SOPE   H4R21053   1.248   2.664   6.770 -0.5267  0.2850 -0.0245
  184SOPE   H4S21054   1.334   2.515   6.733  1.0063 -0.1658  1.3194
  184SOPE   C2521055   1.436   2.622   6.878  0.5472  1.0117  0.0934
  184SOPE   H5R21056   1.543   2.606   6.851  0.1304  0.6686 -1.4095
  184SOPE   H5S21057   1.433   2.726   6.917 -1.8192  0.8289  0.4578
  184SOPE   C2621058   1.379   2.521   6.985  0.0012  0.3152 -0.5225
  184SOPE   H6R21059   1.269   2.538   6.980 -0.0506  0.2408  0.2971
  184SOPE   H6S21060   1.397   2.417   6.951 -0.1316  0.9644 -2.6785
  184SOPE   C2721061   1.428   2.549   7.127 -0.8624  0.4093  0.2327
  184SOPE   H7R21062   1.538   2.538   7.138 -0.9460 -1.4995 -0.5836
  184SOPE   H7S21063   1.400   2.653   7.155 -0.8740  0.6888 -0.7787
  184SOPE   C2821064   1.355   2.456   7.232 -0.2999 -0.3080 -0.1160
  184SOPE   H8R21065   1.247   2.480   7.221  0.0964  0.6916 -2.0023
  184SOPE   H8S21066   1.378   2.354   7.193  0.5309 -0.3078  0.3555
  184SOPE   C2921067   1.399   2.478   7.378 -0.7827 -0.2507  0.2336
  184SOPE   H9121068   1.504   2.455   7.400 -1.2345  0.0405  2.8664
  184SOPE  C21021069   1.332   2.532   7.482 -0.1302 -0.0176 -0.0030
  184SOPE  H10121070   1.394   2.543   7.573  0.3663  0.7242 -0.4275
  184SOPE  C21121071   1.186   2.577   7.482 -0.0859  0.1689 -0.3149
  184SOPE  H11R21072   1.125   2.555   7.391 -0.6878  1.6814 -0.2872
  184SOPE  H11S21073   1.182   2.687   7.492  2.3436  0.6958 -3.9134
  184SOPE  C21221074   1.116   2.513   7.613 -0.0244 -0.1601 -0.8302
  184SOPE  H12R21075   1.164   2.553   7.705 -0.2704  0.5479 -1.0099
  184SOPE  H12S21076   1.125   2.402   7.603  1.5073 -0.1527  0.2356
  184SOPE  C21321077   0.968   2.542   7.607 -0.3544 -0.9741 -0.0050
  184SOPE  H13R21078   0.917   2.525   7.510  0.9922  1.1052 -1.0947
  184SOPE  H13S21079   0.944   2.648   7.630 -2.1630 -0.9197 -2.0533
  184SOPE  C21421080   0.896   2.457   7.708  0.4042 -0.4194  0.0142
  184SOPE  H14R21081   0.911   2.349   7.689 -0.5521 -0.4699 -0.4645
  184SOPE  H14S21082   0.787   2.471   7.692 -0.1982 -1.9946  2.4891
  184SOPE  C21521083   0.927   2.499   7.855  0.0240 -0.2039 -0.4021
  184SOPE  H15R21084   0.893   2.603   7.875 -0.9700 -0.4451 -0.7888
  184SOPE  H15S21085   1.037   2.504   7.866  0.1814 -1.0911 -1.4797
  184SOPE  C21621086   0.866   2.408   7.957  0.4566  0.5686 -0.6165
  184SOPE  H16R21087   0.907   2.305   7.963 -0.5214  0.2189  0.2871
  184SOPE  H16S21088   0.755   2.405   7.948  0.3953 -1.9320  0.5812
  184SOPE  C21721089   0.875   2.488   8.092  0.9424  0.0468  0.0231
  184SOPE  H17R21090   0.869   2.597   8.072 -0.3012 -0.5242 -3.0512
  184SOPE  H17S21091   0.975   2.482   8.139  0.8425  0.3731  0.2832
  184SOPE  C21821092   0.763   2.451   8.188 -0.1453 -0.2659  0.5044
  184SOPE  H18R21093   0.749   2.343   8.210 -1.6157  0.0024  0.9006
  184SOPE  H18S21094   0.662   2.480   8.153 -0.0312 -0.0087  0.3905
  184SOPE  H18T21095   0.784   2.504   8.283  2.0396 -2.9048  1.5765
  184SOPE   C3321096   0.576   2.415   6.898  0.1011 -0.0563  0.7994
  184SOPE   H3X21097   0.640   2.329   6.928 -0.9091 -1.7620 -1.7138
  184SOPE   H3Y21098   0.479   2.363   6.884  0.3331 -0.2773 -0.0247
  184SOPE   C3421099   0.554   2.519   7.007  0.2278  0.3236 -0.4415
  184SOPE   H4X21100   0.482   2.601   6.984  0.7252  1.3972  1.7739
  184SOPE   H4Y21101   0.657   2.553   7.028 -0.2705  0.1944  2.4818
  184SOPE   C3521102   0.505   2.449   7.136  0.2881 -0.3195 -0.3095
  184SOPE   H5X21103   0.578   2.372   7.168 -1.4571 -3.0668 -2.6442
  184SOPE   H5Y21104   0.402   2.407   7.128  1.2773 -2.4675 -2.3438
  184SOPE   C3621105   0.478   2.540   7.257  0.0407  0.0065 -0.1033
  184SOPE   H6X21106   0.408   2.616   7.216  0.8068  0.0468 -1.3927
  184SOPE   H6Y21107   0.571   2.597   7.281  1.2922 -1.9971 -0.0915
  184SOPE   C3721108   0.437   2.464   7.377 -0.0774 -0.3709  0.0656
  184SOPE   H7X21109   0.526   2.398   7.386  0.5997  0.2800 -1.7194
  184SOPE   H7Y21110   0.340   2.408   7.376 -1.2774  1.6798 -0.6741
  184SOPE   C3821111   0.427   2.549   7.505 -0.5564  0.1656  0.5172
  184SOPE   H8X21112   0.325   2.594   7.509 -0.2773  0.7758  0.6496
  184SOPE   H8Y21113   0.499   2.633   7.499 -0.0059 -0.3546 -0.1708
  184SOPE   C3921114   0.446   2.467   7.634 -0.1151  0.1409  0.5528
  184SOPE   H9X21115   0.548   2.422   7.636 -0.6579 -1.1707 -0.3602
  184SOPE   H9Y21116   0.367   2.389   7.643  1.6773 -1.7845  0.1073
  184SOPE  C31021117   0.426   2.553   7.762  0.0818 -0.0683 -0.3829
  184SOPE  H10X21118   0.317   2.572   7.770 -0.2101 -0.3172 -3.1587
  184SOPE  H10Y21119   0.468   2.656   7.753  0.6629 -0.3507 -0.9548
  184SOPE  C31121120   0.470   2.492   7.890 -0.1605  0.0812  0.2762
  184SOPE  H11X21121   0.576   2.462   7.877  0.1640 -0.0235  2.8945
  184SOPE  H11Y21122   0.417   2.396   7.909 -2.3208  0.8225 -1.6812
  184SOPE  C31221123   0.453   2.585   8.013  0.2773 -0.3130  0.4359
  184SOPE  H12X21124   0.383   2.663   7.976 -0.8420 -0.6039  1.9044
  184SOPE  H12Y21125   0.548   2.636   8.041 -0.9018  0.9333  2.2487
  184SOPE  C31321126   0.384   2.507   8.130  0.3280 -0.7051 -0.0398
  184SOPE  H13X21127   0.452   2.423   8.154  0.0775 -1.5086 -1.9889
  184SOPE  H13Y21128   0.284   2.476   8.091  0.1107  0.1486 -0.1598
  184SOPE  C31421129   0.362   2.601   8.253 -0.1643 -0.0124 -0.6955
  184SOPE  H14X21130   0.308   2.691   8.217 -0.3362  0.4309  0.6570
  184SOPE  H14Y21131   0.462   2.622   8.296 -0.1545 -2.8564  0.7741
  184SOPE  C31521132   0.287   2.552   8.374 -0.2508  0.2816 -0.7929
  184SOPE  H15X21133   0.304   2.443   8.392  1.7233  0.6850 -0.1088
  184SOPE  H15Y21134   0.179   2.553   8.348 -0.0160  1.5038 -1.7953
  184SOPE  C31621135   0.314   2.640   8.499 -0.4484 -0.3344  0.0414
  184SOPE  H16X21136   0.415   2.687   8.489 -0.5049 -0.7479 -2.9433
  184SOPE  H16Y21137   0.318   2.577   8.590 -0.6717 -1.4228 -0.6840
  184SOPE  C31721138   0.212   2.755   8.509 -0.3390  0.2894 -0.3969
  184SOPE  H17X21139   0.113   2.707   8.524 -0.0859  0.2896  1.2902
  184SOPE  H17Y21140   0.205   2.806   8.410  0.5953 -0.0021 -0.6140
  184SOPE  C31821141   0.236   2.869   8.606 -0.0684  0.0616 -0.8133
  184SOPE  H18X21142   0.258   2.828   8.707  0.8864 -0.5579 -1.2586
  184SOPE  H18Y21143   0.147   2.935   8.611 -0.2591 -0.1208 -1.7258
  184SOPE  H18Z21144   0.322   2.931   8.573 -0.9801  1.6407 -0.2541
  185SAPI   C1221145   4.322   5.710  11.184  0.2875  0.0573  0.4121
  185SAPI    H221146   4.433   5.707  11.179  0.5292  2.6493  3.0383
  185SAPI    O221147   4.269   5.604  11.261  0.0574 -0.1945 -0.4083
  185SAPI   HO221148   4.215   5.548  11.205  1.1291 -1.8601  0.2183
  185SAPI   C1321149   4.287   5.846  11.243  0.0073 -0.6888  0.4786
  185SAPI    H321150   4.336   5.914  11.170  2.9146 -1.9063  1.2214
  185SAPI    O321151   4.345   5.867  11.378  0.1502  0.0097  0.1765
  185SAPI   HO321152   4.341   5.778  11.414 -0.9166 -0.4578 -1.0608
  185SAPI   C1421153   4.137   5.861  11.240  0.1534  0.3456  0.6794
  185SAPI    H421154   4.088   5.781  11.300 -1.9908  0.5840 -0.6860
  185SAPI    O421155   4.092   5.979  11.307 -0.3722 -0.0613  0.1203
  185SAPI   HO421156   4.083   6.052  11.245 -2.0434  1.3241  1.9388
  185SAPI   C1521157   4.090   5.853  11.096  0.4419  0.1269  0.0401
  185SAPI    H521158   4.135   5.932  11.033  0.2802 -1.0571 -1.6031
  185SAPI    O521159   3.953   5.881  11.094  0.1108  0.0699  0.1394
  185SAPI   HO521160   3.926   5.929  11.015  2.8948 -0.7374 -1.3347
  185SAPI   C1621161   4.121   5.719  11.026  0.6672 -0.0811  0.2711
  185SAPI    H621162   4.064   5.637  11.076 -0.5890  0.0833 -0.8454
  185SAPI    O621163   4.081   5.718  10.889 -0.0641 -0.0061  0.2097
  185SAPI   HO621164   4.114   5.632  10.862  0.4168  0.1795  0.1916
  185SAPI   C1121165   4.269   5.693  11.035  0.4604  0.1130  0.3282
  185SAPI    H121166   4.318   5.775  10.979 -2.5206  2.5964  1.1877
  185SAPI     P21167   4.431   5.547  10.881 -0.2003 -0.1081  0.1477
  185SAPI   O1321168   4.473   5.408  10.865  0.0085  0.3550  0.5979
  185SAPI   O1421169   4.538   5.642  10.920  0.3013 -0.0726  0.0235
  185SAPI   O1221170   4.298   5.563  10.981 -0.3494 -0.2514  0.5886
  185SAPI   O1121171   4.376   5.599  10.745  0.1942  0.2215  0.5478
  185SAPI    C121172   4.400   5.727  10.695  0.1739  0.2294 -0.2706
  185SAPI    HA21173   4.427   5.803  10.772 -0.5503  0.9751 -0.7396
  185SAPI    HB21174   4.484   5.726  10.622 -0.2464  2.2068 -0.8095
  185SAPI    C221175   4.273   5.784  10.621 -0.3046  0.4481  0.2759
  185SAPI    HS21176   4.195   5.788  10.700  1.0490  0.4106  1.6296
  185SAPI   O2121177   4.238   5.697  10.510 -0.4966 -0.8370  0.1156
  185SAPI   C2121178   4.118   5.632  10.512  0.3048 -0.2221 -0.2426
  185SAPI   O2221179   4.022   5.668  10.581  0.4395 -0.5731  0.0286
  185SAPI   C2221180   4.109   5.521  10.408 -0.3382 -0.2222 -0.3723
  185SAPI   H2R21181   4.176   5.549  10.323  2.2802 -0.8092  1.4259
  185SAPI   H2S21182   4.150   5.437  10.468 -0.3709  1.2324  1.7247
  185SAPI    C321183   4.306   5.921  10.556  0.3055 -0.3857  0.5942
  185SAPI    HX21184   4.396   5.908  10.492 -0.0225  0.7315 -0.1222
  185SAPI    HY21185   4.341   5.991  10.635  1.3880  0.4323 -0.5730
  185SAPI   O3121186   4.209   5.976  10.465  0.2722  0.1694  0.5598
  185SAPI   C3121187   4.106   6.033  10.532 -0.3451  0.8715  0.4746
  185SAPI   O3221188   4.102   6.044  10.652  0.0205  0.0234 -0.7573
  185SAPI   C3221189   4.000   6.076  10.438  0.2966  0.3894  0.1042
  185SAPI   H2X21190   4.039   6.150  10.364  1.8436 -1.7280 -1.2393
  185SAPI   H2Y21191   3.922   6.128  10.498  0.7938  1.7032 -0.3586
  185SAPI   C2321192   3.959   5.493  10.386 -0.0039 -0.3373  0.2579
  185SAPI   H3R21193   3.905   5.582  10.350 -0.9742 -0.8141  0.5219
  185SAPI   H3S21194   3.910   5.463  10.481  5.5328  0.4948  3.6372
  185SAPI   C2421195   3.933   5.366  10.293 -0.1957 -0.8883  0.1779
  185SAPI   H4R21196   3.959   5.262  10.322 -0.3912 -0.4205  2.0885
  185SAPI   H4S21197   4.000   5.377  10.205 -0.4622 -2.8997 -0.3068
  185SAPI   C2521198   3.790   5.363  10.237 -0.4468 -0.7458  0.2517
  185SAPI   H5R21199   3.722   5.352  10.323 -2.3174 -1.0150 -1.2252
  185SAPI   C2621200   3.747   5.398  10.106 -0.4822 -0.3862 -0.2238
  185SAPI   H6R21201   3.640   5.417  10.089 -0.2413  1.1995 -0.0968
  185SAPI   C2721202   3.844   5.431   9.998  0.0319 -0.1258 -0.0876
  185SAPI   H7R21203   3.782   5.430   9.907  0.0686 -2.3720 -0.1115
  185SAPI   H7S21204   3.918   5.348   9.997 -1.1604 -1.2019  0.1803
  185SAPI   C2821205   3.924   5.554  10.008 -0.8261  0.3902  0.0834
  185SAPI   H8R21206   3.964   5.576  10.108 -2.1528 -3.6752  1.6109
  185SAPI   C2921207   3.969   5.632   9.909  0.2749  0.2345 -0.3992
  185SAPI   H9R21208   4.029   5.721   9.930 -0.8919  1.3971 -1.8610
  185SAPI  C21021209   3.946   5.593   9.763  0.5002 -0.3791  0.2758
  185SAPI  H10R21210   3.962   5.687   9.706  0.5715 -0.0117  0.8970
  185SAPI  H10S21211   3.837   5.582   9.741  0.7586  0.0351 -1.2859
  185SAPI  C21121212   4.024   5.474   9.716 -0.4162 -0.0887  0.5450
  185SAPI  H11R21213   4.106   5.443   9.782  0.5001  2.0064  0.4261
  185SAPI  C21221214   4.010   5.393   9.612 -0.1373 -0.1307 -0.8331
  185SAPI  H12R21215   4.068   5.300   9.620 -0.3666 -0.0396  2.3772
  185SAPI  C21321216   3.911   5.394   9.506  0.2227 -0.3954 -0.2845
  185SAPI  H13R21217   3.815   5.440   9.537  0.1225 -1.1116  0.4750
  185SAPI  H13S21218   3.893   5.287   9.482 -0.7279 -0.3047 -0.0015
  185SAPI  C21421219   3.976   5.476   9.397 -0.9587  0.0170 -0.1249
  185SAPI  H14R21220   4.013   5.575   9.429 -1.1507 -0.0444  0.2868
  185SAPI  C21521221   3.982   5.444   9.274 -0.6877 -0.3327 -0.5629
  185SAPI  H15R21222   4.030   5.516   9.206 -0.6260 -0.0378 -0.2064
  185SAPI  C21621223   3.931   5.316   9.210 -0.1228  0.1071 -0.6525
  185SAPI  H16R21224   3.822   5.312   9.230  0.4385 -0.8363  2.5149
  185SAPI  H16S21225   3.979   5.233   9.268 -0.5350  1.2706  1.3927
  185SAPI  C21721226   3.951   5.304   9.058  0.4556 -0.4302  0.2262
  185SAPI  H17R21227   3.901   5.388   9.006  2.4974  0.5223 -0.2848
  185SAPI  H17S21228   3.896   5.217   9.017  0.7787  0.3933 -2.0489
  185SAPI  C21821229   4.103   5.293   9.018 -0.2308  0.1155  0.5270
  185SAPI  H18R21230   4.163   5.240   9.095 -0.0664  1.1320  1.1056
  185SAPI  H18S21231   4.144   5.396   9.010 -0.3436  0.1717  0.6839
  185SAPI  C21921232   4.121   5.232   8.874 -0.3695  0.1152  0.9912
  185SAPI  H19R21233   4.228   5.258   8.859 -0.6467  0.4559 -0.4251
  185SAPI  H19S21234   4.064   5.265   8.785 -0.3628 -3.8499 -0.6155
  185SAPI  C22021235   4.119   5.079   8.865  0.1169  0.3479 -0.6239
  185SAPI  H20R21236   4.192   5.046   8.943 -2.1375 -1.2934  0.8562
  185SAPI  H20S21237   4.152   5.039   8.767 -1.9249  0.1206 -1.2319
  185SAPI  H20T21238   4.025   5.032   8.900  0.3599  0.6573  0.4856
  185SAPI   C3321239   3.941   5.960  10.349 -0.0711 -0.2758  0.2981
  185SAPI   H3X21240   3.912   5.873  10.411 -0.7496 -0.3455 -0.1210
  185SAPI   H3Y21241   4.010   5.924  10.271 -1.6064  1.2082 -1.8069
  185SAPI   C3421242   3.810   6.015  10.283 -0.2932  0.3460  0.0804
  185SAPI   H4X21243   3.826   6.097  10.211  0.1830  1.1805  1.1231
  185SAPI   H4Y21244   3.753   6.069  10.361 -2.2993  0.6229 -1.5339
  185SAPI   C3521245   3.751   5.893  10.223  0.5762 -0.1442  0.4404
  185SAPI   H5X21246   3.749   5.803  10.288  1.1455 -1.8355 -1.8072
  185SAPI   H5Y21247   3.816   5.877  10.134  0.1925 -2.8129  0.5827
  185SAPI   C3621248   3.608   5.914  10.172  0.5553  0.1378  0.5017
  185SAPI   H6X21249   3.586   6.017  10.138  1.6532  0.4562  0.7368
  185SAPI   H6Y21250   3.533   5.902  10.253  2.6746 -0.0660  2.5012
  185SAPI   C3721251   3.570   5.820  10.054 -0.0830 -0.2674 -0.2428
  185SAPI   H7X21252   3.479   5.764  10.083  0.1211 -1.0487 -1.0943
  185SAPI   H7Y21253   3.644   5.737  10.049  0.7041  0.3921  0.2070
  185SAPI   C3821254   3.560   5.882   9.912 -0.3910  0.3396  0.8890
  185SAPI   H8X21255   3.645   5.950   9.891 -0.9175  0.6426 -0.3062
  185SAPI   H8Y21256   3.470   5.947   9.913  1.0567  2.5885 -3.3395
  185SAPI   C3921257   3.559   5.775   9.803  0.5634  0.0007  0.2807
  185SAPI   H9X21258   3.462   5.723   9.797  1.0954 -0.9436 -0.3261
  185SAPI   H9Y21259   3.632   5.692   9.813 -0.5273 -0.9754  0.0999
  185SAPI  C31021260   3.571   5.840   9.667  0.0894  0.9042 -0.3384
  185SAPI  H10X21261   3.482   5.905   9.653 -0.8306 -1.1240 -4.7219
  185SAPI  H10Y21262   3.565   5.760   9.589  1.4497 -0.4635  0.9344
  185SAPI  C31121263   3.708   5.907   9.644 -0.1322  0.4601 -1.1308
  185SAPI  H11X21264   3.794   5.845   9.676  0.4935  2.0050  0.2505
  185SAPI  H11Y21265   3.726   5.991   9.714  1.8667 -0.1869 -0.8113
  185SAPI  C31221266   3.748   5.949   9.504  0.4875 -0.1691  0.0168
  185SAPI  H12X21267   3.846   5.999   9.483  0.8890 -1.2334 -0.6975
  185SAPI  H12Y21268   3.671   6.024   9.478  1.4727  0.2467 -1.8233
  185SAPI  C31321269   3.740   5.834   9.395 -0.6721 -0.2463  0.6183
  185SAPI  H13X21270   3.635   5.802   9.376  0.1765 -1.7949 -1.6808
  185SAPI  H13Y21271   3.782   5.746   9.449  2.1019  0.4084 -0.3934
  185SAPI  C31421272   3.803   5.875   9.263  0.3085  0.0739  0.0820
  185SAPI  H14X21273   3.908   5.909   9.275 -0.0374  0.8956  0.7787
  185SAPI  H14Y21274   3.759   5.961   9.209 -0.3820 -1.2441 -1.5314
  185SAPI  C31521275   3.792   5.764   9.156  0.4981 -1.0700  0.2979
  185SAPI  H15X21276   3.689   5.773   9.115  0.5127  2.5650  0.9095
  185SAPI  H15Y21277   3.799   5.658   9.188 -0.0087 -1.3128 -0.3715
  185SAPI  C31621278   3.884   5.796   9.040 -0.4899  0.2950  0.5674
  185SAPI  H16X21279   3.974   5.734   9.058 -0.7065  0.1018  0.9854
  185SAPI  H16Y21280   3.916   5.902   9.033 -0.1027  0.1162 -0.3732
  185SAPI  C31721281   3.832   5.739   8.907 -0.0130 -0.2078 -0.1901
  185SAPI  H17X21282   3.761   5.802   8.849 -0.9459 -0.6089  0.5136
  185SAPI  H17Y21283   3.789   5.637   8.911  0.1612 -0.2293  1.3758
  185SAPI  C31821284   3.946   5.730   8.804 -0.0218 -0.4735 -0.0787
  185SAPI  H18X21285   3.911   5.696   8.704  2.5348 -2.0665 -0.4891
  185SAPI  H18Y21286   4.014   5.653   8.846 -0.3936 -0.6303  0.2390
  185SAPI  H18Z21287   4.005   5.824   8.798 -1.0314  0.1556 -0.1983
  186SAPI   C1221288   5.104   4.075  10.938  0.5388  0.5931  0.9071
  186SAPI    H221289   5.144   4.007  10.860  1.0177  0.1728  1.5102
  186SAPI    O221290   5.065   3.992  11.042 -0.1389  0.1110  0.3047
  186SAPI   HO221291   4.982   3.944  11.037 -0.1866  0.3288 -1.2559
  186SAPI   C1321292   5.235   4.164  10.963 -0.6937  0.3266  0.1341
  186SAPI    H321293   5.271   4.200  10.865  0.1520 -1.7790 -0.3645
  186SAPI    O321294   5.343   4.093  11.022  0.3038 -0.4845  0.3820
  186SAPI   HO321295   5.425   4.140  11.006 -0.4476  0.6375 -0.2356
  186SAPI   C1421296   5.197   4.273  11.050  0.0599 -0.0742 -0.1249
  186SAPI    H421297   5.171   4.226  11.147  1.8991  1.2469  1.0225
  186SAPI    O421298   5.304   4.360  11.079  0.0425 -0.1911 -0.1171
  186SAPI   HO421299   5.321   4.411  11.000 -0.6555  0.3037  0.0539
  186SAPI   C1521300   5.077   4.357  10.994 -1.0650  0.5559 -1.0498
  186SAPI    H521301   5.104   4.391  10.891 -1.2933 -2.1940 -2.0492
  186SAPI    O521302   5.045   4.470  11.070  0.0384  0.3988 -0.0606
  186SAPI   HO521303   4.998   4.447  11.150  0.0303  0.8934  0.0747
  186SAPI   C1621304   4.949   4.267  10.967  0.4049  0.7251 -0.0674
  186SAPI    H621305   4.919   4.231  11.068 -2.1805  0.5471 -0.8788
  186SAPI    O621306   4.838   4.337  10.916  0.1262  0.3650  0.7466
  186SAPI   HO621307   4.850   4.366  10.826 -1.3147  0.2379  0.5120
  186SAPI   C1121308   4.991   4.156  10.871 -0.6055  0.6424 -0.1802
  186SAPI    H121309   5.023   4.198  10.773  0.1183 -0.6583 -0.5062
  186SAPI     P21310   4.849   4.004  10.702 -0.1927  0.4576 -0.0860
  186SAPI   O1321311   4.818   4.115  10.612 -0.4002  0.3316 -0.2101
  186SAPI   O1421312   4.746   3.902  10.720 -0.4254  0.3257  0.0617
  186SAPI   O1221313   4.884   4.064  10.848  0.1252 -0.9331 -0.4108
  186SAPI   O1121314   4.983   3.931  10.648 -0.0794 -0.4312  0.0417
  186SAPI    C121315   5.057   3.975  10.539 -0.1190 -0.5870  0.3737
  186SAPI    HA21316   5.023   4.077  10.511 -1.0362 -0.6915  1.0791
  186SAPI    HB21317   5.165   3.980  10.564  0.0461  0.9729 -0.5890
  186SAPI    C221318   5.037   3.872  10.417 -0.4868  0.5660  0.1225
  186SAPI    HS21319   5.101   3.911  10.335 -2.0908 -0.6932 -1.7706
  186SAPI   O2121320   4.900   3.877  10.364 -0.3891 -0.3993  0.2930
  186SAPI   C2121321   4.881   3.990  10.300 -0.0704 -0.0106 -0.0572
  186SAPI   O2221322   4.963   4.076  10.281  0.8866 -0.2287 -0.2841
  186SAPI   C2221323   4.731   3.993  10.256 -0.0805 -0.6792 -0.8332
  186SAPI   H2R21324   4.669   3.955  10.340  1.3862  0.2303  0.6970
  186SAPI   H2S21325   4.713   4.095  10.217 -0.5945 -0.9425 -1.2896
  186SAPI    C321326   5.070   3.724  10.453  0.5279 -0.2261 -0.9120
  186SAPI    HX21327   5.013   3.696  10.544  4.4898 -1.7809  1.2534
  186SAPI    HY21328   5.177   3.719  10.483  0.2833  1.4133  0.2737
  186SAPI   O3121329   5.037   3.623  10.354 -0.2914 -0.8249  0.1319
  186SAPI   C3121330   5.086   3.653  10.237 -0.8224 -0.1463  0.5109
  186SAPI   O3221331   5.168   3.738  10.209  0.3442  0.3265 -0.1621
  186SAPI   C3221332   5.014   3.557  10.134  0.0833  0.3254 -0.6298
  186SAPI   H2X21333   4.912   3.523  10.160 -1.1503  3.1832 -1.4567
  186SAPI   H2Y21334   5.080   3.470  10.113 -5.0776 -3.0580 -3.8821
  186SAPI   C2321335   4.720   3.890  10.141  0.2458 -0.6953  0.6466
  186SAPI   H3R21336   4.613   3.864  10.129  0.0866 -0.1438  0.8437
  186SAPI   H3S21337   4.775   3.794  10.147  2.1023 -0.0420 -4.1143
  186SAPI   C2421338   4.757   3.946  10.000  0.8620  0.3429 -0.2111
  186SAPI   H4R21339   4.758   3.859   9.930 -0.8414 -0.1077  0.2964
  186SAPI   H4S21340   4.854   4.000   9.992  1.2691 -0.2232  0.7259
  186SAPI   C2521341   4.656   4.044   9.950  0.0919 -0.3578  0.1364
  186SAPI   H5R21342   4.618   4.118  10.023  3.5025  1.1276  0.4790
  186SAPI   C2621343   4.631   4.078   9.825 -0.9704 -0.0202  0.3461
  186SAPI   H6R21344   4.565   4.164   9.808 -3.1362 -1.9892 -1.6616
  186SAPI   C2721345   4.690   4.013   9.701  0.2297 -0.0643  0.7827
  186SAPI   H7R21346   4.788   3.968   9.726  0.3121  0.6071  1.6906
  186SAPI   H7S21347   4.713   4.089   9.623  0.1414 -2.1093 -1.2646
  186SAPI   C2821348   4.600   3.902   9.656  0.3462 -0.1259 -0.1625
  186SAPI   H8R21349   4.572   3.835   9.738  1.3556 -1.4759 -0.8923
  186SAPI   C2921350   4.565   3.878   9.529  0.2223  0.4609 -0.4409
  186SAPI   H9R21351   4.488   3.802   9.514  0.5185  0.1741 -0.5267
  186SAPI  C21021352   4.594   3.951   9.397  0.2319  0.6285 -0.5474
  186SAPI  H10R21353   4.635   3.865   9.341  2.1527  1.0362  0.1896
  186SAPI  H10S21354   4.682   4.018   9.397  0.7980 -0.0874 -3.1993
  186SAPI  C21121355   4.476   4.016   9.327  0.1224 -0.0275  0.2496
  186SAPI  H11R21356   4.402   4.069   9.388 -0.4108  0.4588 -0.7966
  186SAPI  C21221357   4.460   4.019   9.192 -0.7799  0.6942  0.1810
  186SAPI  H12R21358   4.358   4.050   9.164 -1.7239 -1.6137  0.9336
  186SAPI  C21321359   4.546   3.949   9.085  0.1816  0.5851 -0.2545
  186SAPI  H13R21360   4.595   3.858   9.128 -0.1959  1.4922  2.1773
  186SAPI  H13S21361   4.635   4.012   9.064 -0.1097  1.5811  1.3895
  186SAPI  C21421362   4.470   3.920   8.959 -0.0373 -0.2073  0.2396
  186SAPI  H14R21363   4.362   3.909   8.974 -0.0628  1.8628  1.7841
  186SAPI  C21521364   4.526   3.918   8.831 -0.2817  0.0255 -0.5539
  186SAPI  H15R21365   4.465   3.881   8.747  0.3759  0.1051 -1.0693
  186SAPI  C21621366   4.674   3.937   8.801 -0.1540 -0.4314  0.4436
  186SAPI  H16R21367   4.734   3.969   8.890  0.2609 -0.8691  0.3245
  186SAPI  H16S21368   4.684   4.025   8.735  0.3853 -0.4757  0.4638
  186SAPI  C21721369   4.743   3.813   8.745 -0.5553 -1.0567  0.7117
  186SAPI  H17R21370   4.729   3.722   8.807 -0.9631 -3.0614 -2.2519
  186SAPI  H17S21371   4.852   3.832   8.756 -0.7992  1.6893 -1.0622
  186SAPI  C21821372   4.696   3.773   8.605 -0.2437 -0.4671  0.0041
  186SAPI  H18R21373   4.688   3.861   8.538  0.0048 -0.4141  0.0414
  186SAPI  H18S21374   4.594   3.728   8.612 -1.1063  1.1271 -1.9233
  186SAPI  C21921375   4.789   3.673   8.535  0.2235 -0.9958 -0.0156
  186SAPI  H19R21376   4.896   3.706   8.536  0.2773 -1.1152 -1.2677
  186SAPI  H19S21377   4.774   3.659   8.426  0.6155  0.5647 -0.2840
  186SAPI  C22021378   4.787   3.540   8.600 -0.3680  0.0361 -0.3748
  186SAPI  H20R21379   4.695   3.482   8.580 -1.0649  0.7475  0.7011
  186SAPI  H20S21380   4.802   3.554   8.709 -1.5706  0.4860 -0.2531
  186SAPI  H20T21381   4.866   3.478   8.552 -0.5253 -0.3240 -0.1611
  186SAPI   C3321382   4.998   3.639   9.998 -0.9255  0.3425 -0.6453
  186SAPI   H3X21383   5.099   3.670   9.964 -1.7295  0.1375 -3.2724
  186SAPI   H3Y21384   4.951   3.736  10.028 -0.3444  0.7810 -1.1576
  186SAPI   C3421385   4.931   3.555   9.896  0.5247  0.1915 -0.8148
  186SAPI   H4X21386   4.820   3.550   9.906  0.6868  0.1532  1.2738
  186SAPI   H4Y21387   4.981   3.457   9.915  1.3500 -0.0900 -4.1840
  186SAPI   C3521388   4.936   3.607   9.750 -0.1687  0.6079  0.2512
  186SAPI   H5X21389   5.038   3.651   9.746  0.0928 -0.0913 -1.0627
  186SAPI   H5Y21390   4.875   3.698   9.734  0.5425  1.0433 -0.0143
  186SAPI   C3621391   4.917   3.501   9.645 -0.1163  0.7624  0.0397
  186SAPI   H6X21392   4.814   3.465   9.662  0.4656 -0.6373  0.6846
  186SAPI   H6Y21393   4.988   3.418   9.665 -1.1861  0.0967  1.0904
  186SAPI   C3721394   4.951   3.546   9.494  0.9512 -0.7567  0.2194
  186SAPI   H7X21395   5.061   3.564   9.499  0.5656  1.6972  0.2023
  186SAPI   H7Y21396   4.896   3.641   9.476  0.5477 -1.1502 -0.6274
  186SAPI   C3821397   4.919   3.445   9.383 -0.1855 -0.3961  0.1884
  186SAPI   H8X21398   4.816   3.404   9.394 -0.1159 -0.3602  0.9669
  186SAPI   H8Y21399   4.993   3.363   9.388 -1.6062 -1.6051  1.7537
  186SAPI   C3921400   4.931   3.503   9.242 -0.4536 -0.6808 -0.9943
  186SAPI   H9X21401   4.887   3.604   9.247  0.1582 -0.4849  1.4741
  186SAPI   H9Y21402   4.892   3.442   9.158 -2.3965 -0.2250 -0.4333
  186SAPI  C31021403   5.081   3.512   9.216 -0.8144 -0.0200 -0.4553
  186SAPI  H10X21404   5.143   3.421   9.233 -0.9600  0.3472  2.3349
  186SAPI  H10Y21405   5.117   3.575   9.300  0.7305 -0.6279 -0.6478
  186SAPI  C31121406   5.112   3.599   9.097 -0.4009 -0.3232  0.5704
  186SAPI  H11X21407   5.218   3.634   9.098 -1.5565  3.5200 -1.4420
  186SAPI  H11Y21408   5.055   3.694   9.100 -0.0161 -0.0628 -0.1479
  186SAPI  C31221409   5.086   3.509   8.975  0.5841  0.3377 -0.7768
  186SAPI  H12X21410   4.981   3.475   8.977  0.2888  1.2934  1.8936
  186SAPI  H12Y21411   5.149   3.419   8.992 -3.4364 -2.4587 -0.1675
  186SAPI  C31321412   5.122   3.573   8.842 -0.0648 -0.9186 -0.1362
  186SAPI  H13X21413   5.190   3.656   8.872 -1.5070  0.3391 -0.3081
  186SAPI  H13Y21414   5.043   3.627   8.786  1.5607  0.5962 -1.0373
  186SAPI  C31421415   5.189   3.476   8.747 -0.3780 -0.2835 -0.5353
  186SAPI  H14X21416   5.118   3.393   8.726  0.1878 -1.2753  1.4061
  186SAPI  H14Y21417   5.279   3.425   8.788 -0.2110 -0.1541 -0.7414
  186SAPI  C31521418   5.218   3.537   8.606 -0.0434 -0.0156  0.6843
  186SAPI  H15X21419   5.297   3.614   8.614  0.0326 -0.1404  1.1348
  186SAPI  H15Y21420   5.124   3.582   8.566 -0.5878 -0.2770  1.6540
  186SAPI  C31621421   5.275   3.432   8.513  0.0143  0.1955  0.6290
  186SAPI  H16X21422   5.277   3.462   8.406 -0.3557 -2.3452 -0.1338
  186SAPI  H16Y21423   5.198   3.353   8.528  2.3542 -1.9839  1.5421
  186SAPI  C31721424   5.423   3.393   8.555 -0.1349 -0.3886  0.5090
  186SAPI  H17X21425   5.425   3.361   8.661 -0.5279  1.5127  1.1090
  186SAPI  H17Y21426   5.492   3.481   8.560  1.6652 -1.6874 -0.5056
  186SAPI  C31821427   5.472   3.288   8.455 -0.3581 -0.2911 -0.6311
  186SAPI  H18X21428   5.405   3.199   8.451 -0.0751 -0.5490  0.2010
  186SAPI  H18Y21429   5.577   3.261   8.482  0.2806  1.7444 -1.0285
  186SAPI  H18Z21430   5.470   3.329   8.351  0.8126  1.6362  0.0881
  187SAPI   C1221431   1.799   5.587   6.407  0.0203 -0.3474 -0.3101
  187SAPI    H221432   1.777   5.531   6.500  3.0163 -1.4196 -0.1636
  187SAPI    O221433   1.764   5.720   6.436 -0.0123  0.4500 -0.3168
  187SAPI   HO221434   1.673   5.716   6.467 -0.7144  1.7901 -2.1380
  187SAPI   C1321435   1.943   5.579   6.378 -0.1191  0.1400 -0.3392
  187SAPI    H321436   1.977   5.473   6.370 -1.8655 -0.4253 -0.4334
  187SAPI    O321437   2.017   5.635   6.491 -0.2810 -0.0648 -0.2464
  187SAPI   HO321438   1.941   5.679   6.531 -0.6558  0.6769 -1.7225
  187SAPI   C1421439   1.972   5.646   6.234  0.0153  0.8800 -0.1885
  187SAPI    H421440   1.950   5.755   6.234 -0.5658  0.7644 -0.3748
  187SAPI    O421441   2.112   5.636   6.200 -0.2433 -0.0440 -0.4554
  187SAPI   HO421442   2.151   5.708   6.249 -0.9820  0.2158 -0.2540
  187SAPI   C1521443   1.882   5.581   6.132 -0.5040 -0.0861  0.3292
  187SAPI    H521444   1.915   5.476   6.121  0.7449  0.3517 -0.1819
  187SAPI    O521445   1.913   5.652   6.014 -0.5563 -0.0222  0.0804
  187SAPI   HO521446   1.833   5.650   5.960 -0.1181  1.2241 -0.6415
  187SAPI   C1621447   1.735   5.595   6.169  0.8026 -0.3556  0.0135
  187SAPI    H621448   1.708   5.701   6.191  1.2113 -0.6978  2.3121
  187SAPI    O621449   1.646   5.544   6.067  0.3530 -0.2758  0.2711
  187SAPI   HO621450   1.562   5.556   6.113  0.3805  1.9340 -0.1783
  187SAPI   C1121451   1.716   5.520   6.299  0.1685 -0.2703 -0.1413
  187SAPI    H121452   1.752   5.415   6.291  1.2099  0.1663 -1.3703
  187SAPI     P21453   1.500   5.407   6.409 -0.0361 -0.6505 -0.0361
  187SAPI   O1321454   1.561   5.281   6.375  0.5535 -0.3819  0.9387
  187SAPI   O1421455   1.354   5.425   6.385 -0.3531 -0.1199  0.8544
  187SAPI   O1221456   1.576   5.531   6.339 -0.3002 -0.3042 -0.4112
  187SAPI   O1121457   1.533   5.438   6.559 -0.1543 -0.0568  1.0745
  187SAPI    C121458   1.437   5.484   6.651 -0.5892 -0.2851 -0.0576
  187SAPI    HA21459   1.482   5.565   6.713 -2.1966  1.2351 -0.8524
  187SAPI    HB21460   1.350   5.526   6.596 -0.6019  1.2404  1.0799
  187SAPI    C221461   1.398   5.377   6.756  0.1741 -0.3163  0.5211
  187SAPI    HS21462   1.323   5.421   6.825 -0.9872 -0.5913 -0.5593
  187SAPI   O2121463   1.521   5.331   6.820  0.3348  0.2436 -0.1765
  187SAPI   C2121464   1.554   5.406   6.926  0.5020 -0.0364 -0.0095
  187SAPI   O2221465   1.493   5.507   6.961  0.1330  0.4347 -0.2014
  187SAPI   C2221466   1.670   5.344   6.992  0.4931 -0.1134 -0.5534
  187SAPI   H2R21467   1.689   5.250   6.935 -1.2583  0.4931 -2.1961
  187SAPI   H2S21468   1.758   5.403   6.959  3.1756 -2.4290  2.1148
  187SAPI    C321469   1.339   5.246   6.686 -1.0626  0.3590 -0.6969
  187SAPI    HX21470   1.426   5.181   6.661 -2.4307 -1.7633 -0.1204
  187SAPI    HY21471   1.293   5.275   6.589  1.4840  0.0134 -2.0538
  187SAPI   O3121472   1.241   5.178   6.771  0.1357 -0.3322 -0.4335
  187SAPI   C3121473   1.130   5.256   6.792 -1.1482  0.4257 -0.4914
  187SAPI   O3221474   1.115   5.367   6.743 -0.4011 -0.0365  0.1457
  187SAPI   C3221475   1.039   5.182   6.893 -0.4239  0.4241  0.4026
  187SAPI   H2X21476   1.106   5.113   6.948 -0.9788  0.0884  0.6586
  187SAPI   H2Y21477   0.969   5.122   6.831 -1.4101 -0.3825  2.2499
  187SAPI   C2321478   1.658   5.333   7.143 -0.3823 -0.4354  0.0666
  187SAPI   H3R21479   1.728   5.253   7.176  3.6054  2.0989 -1.8869
  187SAPI   H3S21480   1.555   5.303   7.169 -0.4915  0.1490  0.3053
  187SAPI   C2421481   1.682   5.455   7.222  0.8872  0.2923  0.1889
  187SAPI   H4R21482   1.646   5.433   7.325 -0.8060 -0.8021 -0.6157
  187SAPI   H4S21483   1.628   5.539   7.173  0.7614  0.2279  0.2187
  187SAPI   C2521484   1.824   5.489   7.210 -0.2798  0.0492  0.3751
  187SAPI   H5R21485   1.866   5.501   7.109  0.3875  0.1772  0.6621
  187SAPI   C2621486   1.904   5.514   7.317 -0.3228 -0.0336 -1.1416
  187SAPI   H6R21487   2.006   5.554   7.305 -0.3450  0.5888  0.6101
  187SAPI   C2721488   1.875   5.525   7.464 -0.6455 -0.3831 -0.1636
  187SAPI   H7R21489   1.772   5.565   7.481 -0.2832  0.1002  0.9003
  187SAPI   H7S21490   1.937   5.609   7.501 -0.5126 -1.4553  2.0812
  187SAPI   C2821491   1.905   5.397   7.538 -0.4231  0.2780  0.0422
  187SAPI   H8R21492   1.905   5.310   7.471  0.5914  1.4859 -1.5619
  187SAPI   C2921493   1.938   5.386   7.673 -0.6031 -0.0658 -0.3049
  187SAPI   H9R21494   1.938   5.287   7.720  2.2399  0.2100  0.3277
  187SAPI  C21021495   1.956   5.502   7.767 -0.8444  0.1027 -0.5190
  187SAPI  H10R21496   1.972   5.592   7.704 -1.8091 -1.0534 -2.4720
  187SAPI  H10S21497   2.049   5.475   7.822 -0.0987  0.2853 -1.6797
  187SAPI  C21121498   1.840   5.526   7.856  0.5344  0.6356  0.9157
  187SAPI  H11R21499   1.767   5.601   7.822  0.1270  0.5368  1.5555
  187SAPI  C21221500   1.825   5.472   7.978 -0.5399  1.0087 -0.3390
  187SAPI  H12R21501   1.732   5.488   8.035 -0.1217 -2.3911  1.4624
  187SAPI  C21321502   1.932   5.384   8.038  1.3042 -0.3851 -0.3834
  187SAPI  H13R21503   2.019   5.450   8.057  0.7016  0.1025  0.7175
  187SAPI  H13S21504   1.969   5.309   7.965 -2.1766  0.4133 -3.1250
  187SAPI  C21421505   1.891   5.312   8.164  0.1247 -0.3391 -0.3700
  187SAPI  H14R21506   1.787   5.302   8.200  0.5657  2.5662  1.8848
  187SAPI  C21521507   1.982   5.247   8.249  0.1611  0.2386  0.9069
  187SAPI  H15R21508   1.937   5.203   8.340 -0.0806 -1.0439  0.1796
  187SAPI  C21621509   2.130   5.231   8.220  0.0307  0.3128 -0.0730
  187SAPI  H16R21510   2.168   5.315   8.158  1.8427 -0.3891  0.0604
  187SAPI  H16S21511   2.150   5.144   8.154  1.6038  0.9639 -0.4911
  187SAPI  C21721512   2.221   5.201   8.345 -0.0826 -0.8267  0.6591
  187SAPI  H17R21513   2.185   5.111   8.398 -0.9118  0.4523  2.2899
  187SAPI  H17S21514   2.212   5.285   8.418  0.6691  2.5283 -2.9051
  187SAPI  C21821515   2.378   5.213   8.328  0.5745  0.3970  0.7925
  187SAPI  H18R21516   2.398   5.296   8.256 -0.1540  1.7265  2.0938
  187SAPI  H18S21517   2.419   5.120   8.284 -0.8285  0.4702 -0.7032
  187SAPI  C21921518   2.451   5.251   8.456  0.1749  0.1493 -0.3056
  187SAPI  H19R21519   2.423   5.182   8.539  0.6033  1.2795  0.7978
  187SAPI  H19S21520   2.418   5.355   8.475  2.2525  0.2580  3.3064
  187SAPI  C22021521   2.604   5.246   8.440  0.0850  0.1295  0.4088
  187SAPI  H20R21522   2.630   5.139   8.429  1.2425  0.3646  0.7594
  187SAPI  H20S21523   2.657   5.280   8.532 -0.1478  1.1627  0.1650
  187SAPI  H20T21524   2.644   5.304   8.353  1.6505 -0.7961  0.4821
  187SAPI   C3321525   0.962   5.268   6.999 -0.1134  0.8881 -0.5249
  187SAPI   H3X21526   0.867   5.211   7.013  1.9894 -2.4794  0.5520
  187SAPI   H3Y21527   0.935   5.363   6.949 -0.8316  1.4150  0.8338
  187SAPI   C3421528   1.037   5.276   7.129 -0.6282 -0.1622  0.1705
  187SAPI   H4X21529   1.091   5.182   7.155  0.0853  0.4201  0.8121
  187SAPI   H4Y21530   0.967   5.287   7.215  0.6437  1.5154  1.0076
  187SAPI   C3521531   1.140   5.395   7.140  0.3250  0.1638 -0.8793
  187SAPI   H5X21532   1.084   5.483   7.101 -0.5300  0.7687  1.5713
  187SAPI   H5Y21533   1.221   5.372   7.068  1.8149  0.8457  0.5440
  187SAPI   C3621534   1.198   5.418   7.286 -0.1739  0.3404 -0.0795
  187SAPI   H6X21535   1.108   5.442   7.346  0.6466  0.4433  1.1203
  187SAPI   H6Y21536   1.274   5.499   7.289 -0.9513  1.1253 -1.0054
  187SAPI   C3721537   1.273   5.294   7.345 -0.3737 -0.1451 -0.5600
  187SAPI   H7X21538   1.362   5.277   7.281  0.7597  2.5609  0.2591
  187SAPI   H7Y21539   1.211   5.202   7.355 -3.2072  1.5323 -2.2299
  187SAPI   C3821540   1.327   5.323   7.494 -0.1021 -0.6693  0.3719
  187SAPI   H8X21541   1.244   5.319   7.568 -2.3479 -0.3098 -2.0510
  187SAPI   H8Y21542   1.370   5.425   7.500  0.5154 -0.4072 -5.3739
  187SAPI   C3921543   1.441   5.223   7.526 -0.2923 -0.4319 -0.1849
  187SAPI   H9X21544   1.515   5.231   7.444  0.8638 -0.7512  0.8089
  187SAPI   H9Y21545   1.396   5.122   7.515 -1.4625 -0.0978  1.2653
  187SAPI  C31021546   1.508   5.237   7.665  0.5358  0.4338  0.3382
  187SAPI  H10X21547   1.541   5.343   7.677 -1.5040  1.6719 -3.9857
  187SAPI  H10Y21548   1.602   5.179   7.678 -0.7075 -1.2924  1.7578
  187SAPI  C31121549   1.411   5.213   7.785  0.4352  0.0670 -0.3044
  187SAPI  H11X21550   1.370   5.110   7.779 -1.5450  0.9604 -2.9430
  187SAPI  H11Y21551   1.326   5.285   7.782 -0.2537 -0.7679 -1.3569
  187SAPI  C31221552   1.485   5.237   7.914 -0.4961  0.5749 -0.6253
  187SAPI  H12X21553   1.497   5.347   7.923 -0.6772  0.4547  1.3182
  187SAPI  H12Y21554   1.581   5.182   7.924 -0.3819  0.8879  0.0554
  187SAPI  C31321555   1.405   5.214   8.040  0.4596 -0.3714  0.1102
  187SAPI  H13X21556   1.360   5.112   8.045  0.8288 -0.5012  0.9317
  187SAPI  H13Y21557   1.316   5.281   8.044  0.2224 -0.6572 -0.3408
  187SAPI  C31421558   1.495   5.245   8.167  0.4062  0.0231  0.0547
  187SAPI  H14X21559   1.510   5.355   8.172  2.4667 -0.1578 -1.5831
  187SAPI  H14Y21560   1.593   5.198   8.143  0.1453  0.2780 -1.5549
  187SAPI  C31521561   1.444   5.182   8.296  0.1386 -0.4770 -0.2928
  187SAPI  H15X21562   1.451   5.074   8.276  0.5477 -0.3403 -0.8807
  187SAPI  H15Y21563   1.338   5.215   8.298 -0.1558 -1.4338  0.2002
  187SAPI  C31621564   1.527   5.222   8.425  0.5751  0.2502  0.4448
  187SAPI  H16X21565   1.629   5.181   8.415  1.0779  1.6345 -0.1424
  187SAPI  H16Y21566   1.484   5.165   8.511 -0.7446 -2.3666 -1.8520
  187SAPI  C31721567   1.532   5.373   8.452  0.0741  0.3768 -0.4823
  187SAPI  H17X21568   1.432   5.418   8.471  0.5870  1.0697  0.5891
  187SAPI  H17Y21569   1.572   5.427   8.364  0.9206  0.9479  0.2498
  187SAPI  C31821570   1.624   5.402   8.569  0.5110 -0.1959  0.0873
  187SAPI  H18X21571   1.732   5.380   8.552  0.9171  0.2590  1.8909
  187SAPI  H18Y21572   1.585   5.355   8.662  1.5513  1.6210  1.4695
  187SAPI  H18Z21573   1.628   5.512   8.584  1.6560 -0.1748 -0.2988
  188SAPI   C1221574   2.753   1.907   6.649  0.3614 -0.1665  0.2060
  188SAPI    H221575   2.810   1.820   6.689 -1.3302 -1.0902  0.6619
  188SAPI    O221576   2.621   1.908   6.703  0.3752  0.0219  0.3807
  188SAPI   HO221577   2.602   1.824   6.745  0.7148  0.5226  1.5621
  188SAPI   C1321578   2.827   2.041   6.686  0.2153  0.1445  0.8143
  188SAPI    H321579   2.926   2.041   6.634  0.4556 -0.7112  1.2597
  188SAPI    O321580   2.852   2.064   6.823 -0.3232 -0.3482 -0.0710
  188SAPI   HO321581   2.866   2.159   6.827  0.0723 -0.3643 -0.8610
  188SAPI   C1421582   2.750   2.156   6.624  1.0885 -0.1918 -0.4157
  188SAPI    H421583   2.647   2.166   6.663  1.2120  2.6754 -0.6716
  188SAPI    O421584   2.811   2.276   6.660  0.1292  0.2795  0.2426
  188SAPI   HO421585   2.761   2.350   6.624  1.0655  0.4521 -0.7343
  188SAPI   C1521586   2.746   2.138   6.467 -0.7123  0.0506 -0.0547
  188SAPI    H521587   2.854   2.132   6.441 -0.2178 -0.2447  1.9853
  188SAPI    O521588   2.690   2.251   6.403 -0.5334 -0.1549 -0.1593
  188SAPI   HO521589   2.763   2.312   6.392  0.8207 -1.5211  0.9877
  188SAPI   C1621590   2.678   2.014   6.427 -0.6030  0.0610 -0.0819
  188SAPI    H621591   2.574   2.033   6.462  0.0191  0.6655  1.4625
  188SAPI    O621592   2.686   1.990   6.286 -0.0523 -0.0169  0.2466
  188SAPI   HO621593   2.640   1.906   6.276 -1.2953  0.5573  1.1029
  188SAPI   C1121594   2.750   1.896   6.503 -0.8148  0.6046 -0.2787
  188SAPI    H121595   2.852   1.895   6.458 -1.8580 -0.8627 -2.7332
  188SAPI     P21596   2.725   1.625   6.495 -0.0131 -0.2195  0.0438
  188SAPI   O1321597   2.874   1.626   6.502 -0.4040  0.6183 -0.2465
  188SAPI   O1421598   2.665   1.534   6.394  0.0835 -0.2408 -0.5597
  188SAPI   O1221599   2.681   1.778   6.469 -0.1990  0.7542 -0.0873
  188SAPI   O1121600   2.655   1.586   6.636  0.5819 -0.2347 -0.4505
  188SAPI    C121601   2.518   1.611   6.650 -0.4574  0.1327 -0.0171
  188SAPI    HA21602   2.496   1.718   6.666  0.1191 -0.0394  2.0348
  188SAPI    HB21603   2.468   1.582   6.554  1.5649 -2.3261 -0.3802
  188SAPI    C221604   2.459   1.519   6.764  0.1287 -0.4517 -0.3825
  188SAPI    HS21605   2.358   1.551   6.797  2.0111  2.3736  2.9877
  188SAPI   O2121606   2.539   1.523   6.881 -0.0162  0.3828 -0.7731
  188SAPI   C2121607   2.552   1.639   6.934 -0.7114 -0.0603 -0.0982
  188SAPI   O2221608   2.494   1.742   6.903  0.3239 -0.1929 -0.5209
  188SAPI   C2221609   2.652   1.630   7.049  0.0073  0.6418  0.0029
  188SAPI   H2R21610   2.627   1.552   7.123  0.1472  0.9929  0.4254
  188SAPI   H2S21611   2.752   1.608   7.006  0.1517 -1.2291  1.2560
  188SAPI    C321612   2.441   1.373   6.724  0.3551  0.1166 -0.3991
  188SAPI    HX21613   2.525   1.335   6.661  0.3310  0.1561 -0.4546
  188SAPI    HY21614   2.349   1.365   6.662  1.1689 -0.7425 -1.5213
  188SAPI   O3121615   2.424   1.288   6.837 -0.4092  0.2435 -0.9898
  188SAPI   C3121616   2.533   1.239   6.891 -0.4181 -0.0196 -0.3228
  188SAPI   O3221617   2.642   1.244   6.845  0.4644 -0.4777 -0.9777
  188SAPI   C3221618   2.496   1.153   7.010 -0.3400 -0.4870 -0.5094
  188SAPI   H2X21619   2.464   1.060   6.960 -2.2699  0.7547 -1.6117
  188SAPI   H2Y21620   2.412   1.192   7.071 -1.0498 -1.6184 -0.7548
  188SAPI   C2321621   2.663   1.759   7.130  0.1600 -0.0951 -0.5041
  188SAPI   H3R21622   2.567   1.803   7.166 -0.7609  0.2060 -3.1934
  188SAPI   H3S21623   2.725   1.834   7.075 -1.4998 -0.1661 -2.4986
  188SAPI   C2421624   2.750   1.724   7.258  0.2623  0.0995 -0.1553
  188SAPI   H4R21625   2.837   1.665   7.221 -0.7769 -1.6688  0.1636
  188SAPI   H4S21626   2.694   1.656   7.326  0.5388  0.6545  0.6216
  188SAPI   C2521627   2.793   1.850   7.332 -0.5483 -0.2555 -0.4525
  188SAPI   H5R21628   2.789   1.941   7.270 -0.8284 -0.6973 -1.0949
  188SAPI   C2621629   2.818   1.846   7.469 -0.2277 -0.1432 -0.0624
  188SAPI   H6R21630   2.841   1.939   7.523  0.2043 -0.8478  0.9906
  188SAPI   C2721631   2.816   1.730   7.569 -0.0994 -0.3598 -0.0362
  188SAPI   H7R21632   2.802   1.633   7.516  0.3437 -0.4676  0.0402
  188SAPI   H7S21633   2.722   1.739   7.628 -0.4926  0.5062 -0.7764
  188SAPI   C2821634   2.938   1.718   7.667  0.0323 -0.8683  0.3805
  188SAPI   H8R21635   3.028   1.685   7.612 -0.7417  0.0158 -1.4500
  188SAPI   C2921636   2.950   1.768   7.792 -0.2332  0.2576  0.6264
  188SAPI   H9R21637   3.042   1.745   7.847  0.3874  0.4101 -0.3282
  188SAPI  C21021638   2.843   1.836   7.872 -0.1121 -0.3738  0.4503
  188SAPI  H10R21639   2.750   1.776   7.871 -0.3878  0.0562  0.0169
  188SAPI  H10S21640   2.825   1.935   7.825 -0.7797 -1.4298 -1.5838
  188SAPI  C21121641   2.879   1.853   8.018  0.1268 -0.3199 -0.3355
  188SAPI  H11R21642   2.980   1.811   8.030  0.5794  0.6217 -0.8270
  188SAPI  C21221643   2.814   1.911   8.123  0.0692  1.1745 -0.7763
  188SAPI  H12R21644   2.866   1.921   8.220  0.6141  1.9568 -1.1485
  188SAPI  C21321645   2.685   1.974   8.119  0.0244  0.1394 -0.0855
  188SAPI  H13R21646   2.691   2.050   8.037  0.5652  1.5313  1.2232
  188SAPI  H13S21647   2.655   2.035   8.207  2.4530  1.7167 -0.2982
  188SAPI  C21421648   2.571   1.884   8.078 -0.5666 -0.1467 -0.4399
  188SAPI  H14R21649   2.598   1.802   8.010  0.9954 -1.6724  1.9440
  188SAPI  C21521650   2.444   1.873   8.130  0.2488 -0.6593 -0.2474
  188SAPI  H15R21651   2.381   1.795   8.083 -0.9245 -1.0963  1.9528
  188SAPI  C21621652   2.373   1.960   8.235 -0.7450  0.4375 -0.1382
  188SAPI  H16R21653   2.444   2.034   8.277 -1.9594  0.8150  1.3088
  188SAPI  H16S21654   2.330   1.895   8.315  1.3971 -3.5092 -2.0626
  188SAPI  C21721655   2.256   2.040   8.192  0.1901  0.4266 -0.7108
  188SAPI  H17R21656   2.174   1.981   8.146 -0.5507  0.3594  0.6782
  188SAPI  H17S21657   2.286   2.121   8.122  2.0222  1.4632  1.2322
  188SAPI  C21821658   2.185   2.108   8.315 -0.0587 -0.2958 -0.4212
  188SAPI  H18R21659   2.150   2.023   8.377  0.8041 -1.0516 -0.9746
  188SAPI  H18S21660   2.105   2.177   8.281  2.5162  2.5711 -1.0040
  188SAPI  C21921661   2.271   2.200   8.404 -0.8885  0.2468  0.1380
  188SAPI  H19R21662   2.333   2.280   8.358 -1.0271 -0.6953 -1.7044
  188SAPI  H19S21663   2.352   2.142   8.453 -1.2905 -1.0707 -0.7412
  188SAPI  C22021664   2.183   2.246   8.513 -0.0090 -0.1315  0.0666
  188SAPI  H20R21665   2.139   2.157   8.563  0.8347 -0.7025 -0.1817
  188SAPI  H20S21666   2.098   2.308   8.477  1.9348  0.9862 -2.8297
  188SAPI  H20T21667   2.244   2.287   8.596 -0.1460 -0.5398  0.3678
  188SAPI   C3321668   2.619   1.105   7.108 -0.2909  0.3368 -0.4851
  188SAPI   H3X21669   2.698   1.056   7.046  0.1780 -2.7603  2.4096
  188SAPI   H3Y21670   2.586   1.024   7.176  0.0874  1.3425  0.9152
  188SAPI   C3421671   2.683   1.229   7.178  0.6328 -0.1635 -0.0687
  188SAPI   H4X21672   2.692   1.326   7.125 -1.6997  0.0476 -0.1380
  188SAPI   H4Y21673   2.782   1.193   7.212  1.1176  0.7647 -0.4664
  188SAPI   C3521674   2.612   1.274   7.311  0.8210 -0.3225  0.2271
  188SAPI   H5X21675   2.502   1.281   7.301  0.7214 -1.3066  0.5255
  188SAPI   H5Y21676   2.656   1.373   7.336  0.4653  0.4362 -2.0726
  188SAPI   C3621677   2.646   1.180   7.427 -0.0207  0.2163  0.6063
  188SAPI   H6X21678   2.755   1.198   7.433  0.3320 -1.3037 -0.5456
  188SAPI   H6Y21679   2.616   1.077   7.395 -0.2200  0.0271  1.3965
  188SAPI   C3721680   2.586   1.222   7.564 -0.4510  0.1066  0.1510
  188SAPI   H7X21681   2.561   1.135   7.629  0.7839  0.7705  1.5308
  188SAPI   H7Y21682   2.486   1.271   7.558 -1.4711 -1.7333  1.5039
  188SAPI   C3821683   2.671   1.296   7.658  0.1916 -0.0068  0.1777
  188SAPI   H8X21684   2.713   1.387   7.611  2.3153 -1.5826 -1.1158
  188SAPI   H8Y21685   2.757   1.227   7.674  0.6796 -0.6939 -4.6057
  188SAPI   C3921686   2.605   1.316   7.793 -0.1357 -0.1691  0.2702
  188SAPI   H9X21687   2.561   1.218   7.820 -0.4541 -0.0777  0.0822
  188SAPI   H9Y21688   2.531   1.398   7.778  0.7756  0.7969  0.8920
  188SAPI  C31021689   2.711   1.367   7.892 -0.2302 -0.5345  0.8357
  188SAPI  H10X21690   2.762   1.459   7.857  0.2129 -0.8372  0.6779
  188SAPI  H10Y21691   2.786   1.287   7.912 -1.5046 -2.0346 -0.2776
  188SAPI  C31121692   2.649   1.408   8.027 -0.6029  0.2571  0.1806
  188SAPI  H11X21693   2.583   1.323   8.053  1.2062 -1.2508 -0.0425
  188SAPI  H11Y21694   2.581   1.497   8.022 -0.1648  0.6633  1.4268
  188SAPI  C31221695   2.751   1.447   8.132 -0.1578 -0.7403 -0.2225
  188SAPI  H12X21696   2.829   1.507   8.081  0.8864  0.0185  2.1504
  188SAPI  H12Y21697   2.804   1.353   8.158  0.8286 -0.6664 -1.8975
  188SAPI  C31321698   2.703   1.532   8.248 -0.0179 -0.8165  0.6299
  188SAPI  H13X21699   2.621   1.483   8.305  0.0934  0.3847  1.8471
  188SAPI  H13Y21700   2.664   1.628   8.208  1.8433 -0.2186  0.2166
  188SAPI  C31421701   2.809   1.577   8.353  0.6348  0.4337  0.1110
  188SAPI  H14X21702   2.871   1.655   8.305  3.5091 -2.2289 -0.6787
  188SAPI  H14Y21703   2.871   1.494   8.392 -2.7907 -1.3828  1.9519
  188SAPI  C31521704   2.748   1.639   8.475 -0.0171  0.4026  0.3962
  188SAPI  H15X21705   2.812   1.615   8.562 -0.1536  0.7108  0.5831
  188SAPI  H15Y21706   2.645   1.598   8.487  0.3104 -0.2216  1.0611
  188SAPI  C31621707   2.751   1.788   8.472  1.0122 -0.1749 -0.5593
  188SAPI  H16X21708   2.670   1.833   8.411  0.4554 -1.8537 -1.0827
  188SAPI  H16Y21709   2.841   1.820   8.415  1.9838  3.1182  2.6487
  188SAPI  C31721710   2.755   1.868   8.604  0.1865  0.7068 -0.0042
  188SAPI  H17X21711   2.837   1.833   8.670  1.1385 -0.7246 -1.8982
  188SAPI  H17Y21712   2.666   1.838   8.664 -0.9434 -3.4251 -3.5016
  188SAPI  C31821713   2.767   2.018   8.577 -0.2598  0.0757 -0.3821
  188SAPI  H18X21714   2.675   2.047   8.521  0.9298  1.2976 -1.7527
  188SAPI  H18Y21715   2.858   2.031   8.514 -1.2360  4.8010 -1.0477
  188SAPI  H18Z21716   2.773   2.081   8.669  1.2463  1.6435 -1.5226
  189POPC     N21717   2.326   2.880  10.743 -0.0184 -0.0365  0.0247
  189POPC   C1221718   2.181   2.919  10.788 -0.0107  0.7237 -0.2947
  189POPC  H12A21719   2.118   2.873  10.713  0.9498 -1.9879  0.4780
  189POPC  H12B21720   2.180   3.026  10.795  3.5249  0.7850 -0.1003
  189POPC   C1321721   2.428   2.977  10.798  0.6308  0.7125 -0.2977
  189POPC  H13A21722   2.421   3.076  10.755  1.2518  1.2956  0.9040
  189POPC  H13B21723   2.398   2.997  10.900 -1.0710 -1.7623 -0.2778
  189POPC  H13C21724   2.526   2.939  10.820 -0.0222 -1.8028 -1.6572
  189POPC   C1421725   2.352   2.741  10.780 -0.9291 -0.4365 -0.1732
  189POPC  H14A21726   2.331   2.731  10.886  0.8764 -1.6274  0.0924
  189POPC  H14B21727   2.293   2.672  10.722  1.6823 -2.9991  0.1020
  189POPC  H14C21728   2.454   2.708  10.773 -0.3828  0.8477  1.4087
  189POPC   C1521729   2.332   2.890  10.596  0.4425  0.2671 -0.7879
  189POPC  H15A21730   2.343   2.995  10.575  0.9057  0.2459 -0.6619
  189POPC  H15B21731   2.246   2.843  10.552 -0.0729  1.0159 -0.5922
  189POPC  H15C21732   2.423   2.850  10.554  0.7445  0.5846 -0.4409
  189POPC   C1121733   2.137   2.873  10.927 -0.0917  0.1120  0.4133
  189POPC  H11A21734   2.154   2.764  10.939 -0.2779 -0.2432 -2.2602
  189POPC  H11B21735   2.026   2.870  10.927 -0.1377  1.5449  0.4169
  189POPC     P21736   2.128   3.088  11.056  0.3203 -0.4351 -0.2276
  189POPC   O1321737   2.226   3.177  11.109 -0.0016 -0.4771  0.0029
  189POPC   O1421738   2.012   3.071  11.145 -0.2336 -0.1070  0.0961
  189POPC   O1221739   2.194   2.947  11.037 -0.1408 -0.8688  0.4644
  189POPC   O1121740   2.085   3.141  10.913 -0.1414 -0.0739  0.5826
  189POPC    C121741   2.052   3.280  10.888 -0.2093 -0.9041 -0.1253
  189POPC    HA21742   2.104   3.354  10.952 -1.1864 -0.7109  0.4612
  189POPC    HB21743   1.944   3.305  10.890 -0.8475 -3.6130  1.9608
  189POPC    C221744   2.110   3.321  10.745  0.0647 -0.2015  0.1320
  189POPC    HS21745   2.072   3.422  10.721 -0.6401 -0.7783 -1.2513
  189POPC   O2121746   2.083   3.216  10.645  0.0856 -0.2391 -0.4912
  189POPC   C2121747   1.954   3.230  10.598  0.4565  0.0226 -0.8230
  189POPC   O2221748   1.883   3.327  10.613 -0.0055 -0.1714 -0.7721
  189POPC   C2221749   1.916   3.098  10.525  0.1262 -0.2850 -0.6615
  189POPC   H2R21750   1.830   3.046  10.572 -0.1737 -1.4460 -2.4528
  189POPC   H2S21751   2.007   3.033  10.520 -0.3605 -1.1713  1.5031
  189POPC    C321752   2.266   3.335  10.761 -0.4785 -0.4493  0.3018
  189POPC    HX21753   2.320   3.246  10.798  0.4813  0.5722  1.4091
  189POPC    HY21754   2.269   3.409  10.844  0.5482 -0.1638  0.0114
  189POPC   O3121755   2.324   3.396  10.645 -0.7187 -0.3877  0.2726
  189POPC   C3121756   2.365   3.313  10.553  0.2958  0.2229 -0.5391
  189POPC   O3221757   2.402   3.199  10.572  0.2177 -0.2301  0.0369
  189POPC   C3221758   2.343   3.381  10.414 -0.3379 -0.3541 -0.2971
  189POPC   H2X21759   2.447   3.368  10.377 -0.0615 -0.7083  0.5770
  189POPC   H2Y21760   2.321   3.488  10.431 -0.3690 -0.1891 -1.3274
  189POPC   C2321761   1.868   3.121  10.378  0.5991  0.0155 -0.0448
  189POPC   H3R21762   1.938   3.189  10.325 -1.8996  1.3610 -1.7050
  189POPC   H3S21763   1.770   3.172  10.384  1.3956  1.7898 -1.2756
  189POPC   C2421764   1.843   2.996  10.302  0.1328  0.1821  0.2203
  189POPC   H4R21765   1.755   2.937  10.335 -1.0068  1.3177 -0.7474
  189POPC   H4S21766   1.932   2.933  10.325  0.0743 -0.0045 -0.0740
  189POPC   C2521767   1.824   3.012  10.147 -0.1225  0.2331 -0.2137
  189POPC   H5R21768   1.903   3.068  10.093  1.7976 -1.4135  0.7881
  189POPC   H5S21769   1.726   3.064  10.152 -0.1574 -0.0566  4.2023
  189POPC   C2621770   1.795   2.872  10.079 -0.1708  0.2775 -0.2211
  189POPC   H6R21771   1.711   2.818  10.129  0.7601 -2.1624 -1.2218
  189POPC   H6S21772   1.883   2.806  10.084 -1.2936 -1.3304 -1.4109
  189POPC   C2721773   1.760   2.881   9.931  0.2082  0.1011  0.2143
  189POPC   H7R21774   1.851   2.903   9.873  0.2848  0.8264  0.5960
  189POPC   H7S21775   1.711   2.980   9.940  2.2250  1.1107  0.3713
  189POPC   C2821776   1.686   2.750   9.889  0.4733 -0.3808  0.2270
  189POPC   H8R21777   1.642   2.773   9.789  3.0844  2.4554 -0.3455
  189POPC   H8S21778   1.603   2.740   9.963 -0.0611 -0.8842 -0.4376
  189POPC   C2921779   1.774   2.628   9.885  0.8670 -0.4800 -0.1345
  189POPC   H9121780   1.807   2.593   9.983  2.3067  1.0563 -0.0437
  189POPC  C21021781   1.815   2.560   9.773  0.5072  0.0724 -0.5118
  189POPC  H10121782   1.885   2.477   9.793 -0.9505 -0.9265  0.5915
  189POPC  C21121783   1.793   2.597   9.626  0.3735  0.2591 -0.3219
  189POPC  H11R21784   1.726   2.684   9.606 -0.6046 -0.9455 -2.5060
  189POPC  H11S21785   1.740   2.508   9.586  0.1513 -0.1138  0.7847
  189POPC  C21221786   1.912   2.633   9.543 -0.0512 -0.3670  0.0198
  189POPC  H12R21787   2.003   2.580   9.576  0.4357  0.4262 -0.0382
  189POPC  H12S21788   1.926   2.743   9.556 -0.7526 -0.3681  0.7630
  189POPC  C21321789   1.890   2.604   9.388 -0.8207 -0.1686 -0.0422
  189POPC  H13R21790   1.857   2.500   9.367 -1.8967  0.1085  0.2381
  189POPC  H13S21791   1.991   2.607   9.342 -1.0238 -0.2306 -0.4970
  189POPC  C21421792   1.787   2.699   9.325 -0.0613 -0.1321  0.4291
  189POPC  H14R21793   1.821   2.800   9.356 -1.6350  0.6540 -0.3847
  189POPC  H14S21794   1.686   2.673   9.363 -0.5258 -0.0784 -0.7629
  189POPC  C21521795   1.786   2.687   9.171 -0.1956  0.1440  0.5353
  189POPC  H15R21796   1.882   2.702   9.116 -0.0216 -1.0763  0.4816
  189POPC  H15S21797   1.710   2.763   9.144  0.9876  1.5124  1.0056
  189POPC  C21621798   1.745   2.554   9.110 -0.0700 -0.8836  0.1994
  189POPC  H16R21799   1.643   2.522   9.141  0.1073 -1.7678 -0.1243
  189POPC  H16S21800   1.821   2.476   9.132  0.5833 -0.4170 -0.3910
  189POPC  C21721801   1.735   2.556   8.956  0.6967 -0.8810 -0.4727
  189POPC  H17R21802   1.823   2.596   8.902 -0.1770 -1.3701 -2.3020
  189POPC  H17S21803   1.651   2.624   8.929  1.5305  0.5580  0.4995
  189POPC  C21821804   1.699   2.421   8.896  1.0359  0.0325  0.1826
  189POPC  H18R21805   1.600   2.388   8.936  0.4592  0.4101 -0.9061
  189POPC  H18S21806   1.769   2.343   8.933  0.6491 -0.3095  0.2006
  189POPC  H18T21807   1.689   2.411   8.786  0.8138  0.9672  0.1112
  189POPC   C3321808   2.242   3.314  10.322 -0.1007 -1.0849 -0.1068
  189POPC   H3X21809   2.224   3.387  10.240 -0.8125 -1.2921 -0.1408
  189POPC   H3Y21810   2.149   3.297  10.381  1.6127 -2.1968  2.3402
  189POPC   C3421811   2.300   3.189  10.265  0.1307  0.5624  0.6675
  189POPC   H4X21812   2.350   3.108  10.323  1.6000  2.5995  2.2774
  189POPC   H4Y21813   2.394   3.224  10.217  1.1838 -0.5703  1.8680
  189POPC   C3521814   2.214   3.128  10.150  0.1519  0.2201 -0.6524
  189POPC   H5X21815   2.127   3.193  10.128 -1.5002 -2.0755 -1.0935
  189POPC   H5Y21816   2.166   3.036  10.189  2.0779 -1.3356 -1.8118
  189POPC   C3621817   2.283   3.103  10.022 -0.9611  0.7871  0.6391
  189POPC   H6X21818   2.380   3.050  10.021 -1.5253 -0.4494  4.0580
  189POPC   H6Y21819   2.299   3.199   9.969  2.0838 -1.1213 -2.0349
  189POPC   C3721820   2.189   3.030   9.921  0.0749  0.4518 -0.0686
  189POPC   H7X21821   2.089   3.078   9.924  0.1745  0.6064  1.1768
  189POPC   H7Y21822   2.183   2.925   9.958  2.1496  0.3698  0.0757
  189POPC   C3821823   2.240   3.029   9.776  0.1358  0.0117  0.2916
  189POPC   H8X21824   2.335   2.972   9.787  1.3211  2.0928  1.3407
  189POPC   H8Y21825   2.267   3.133   9.745 -0.7900  0.1666  0.0135
  189POPC   C3921826   2.163   2.954   9.668  0.1102  0.1415 -0.6009
  189POPC   H9X21827   2.056   2.967   9.692  0.4555  1.1588  0.4799
  189POPC   H9Y21828   2.185   2.846   9.664 -0.3321  0.0500 -0.5624
  189POPC  C31021829   2.189   3.014   9.530 -0.1433  0.4489 -0.0927
  189POPC  H10X21830   2.295   2.995   9.505 -0.4233  0.7124 -1.5287
  189POPC  H10Y21831   2.170   3.123   9.520 -1.2177  0.2152 -0.6877
  189POPC  C31121832   2.104   2.951   9.414  0.3751 -0.8627  0.1517
  189POPC  H11X21833   1.997   2.963   9.444  0.5636 -1.6584  1.1674
  189POPC  H11Y21834   2.124   2.842   9.405  0.6828 -0.8905  1.1256
  189POPC  C31221835   2.137   3.016   9.280  0.0931  0.9504  0.5564
  189POPC  H12X21836   2.240   2.987   9.251  0.1358  0.4481  1.2069
  189POPC  H12Y21837   2.144   3.127   9.283  0.4474  0.9296  0.4880
  189POPC  C31321838   2.039   2.982   9.164  0.2822 -1.1188 -0.0031
  189POPC  H13X21839   1.933   2.989   9.196  0.1989  0.0550 -0.5099
  189POPC  H13Y21840   2.048   2.873   9.145 -2.8734 -1.5828  0.8972
  189POPC  C31421841   2.064   3.073   9.045 -0.1833  0.2791  0.2669
  189POPC  H14X21842   2.169   3.109   9.047  0.3995 -1.3045 -1.2543
  189POPC  H14Y21843   2.002   3.164   9.059 -0.6949  0.2603 -1.7616
  189POPC  C31521844   2.035   3.007   8.915  0.6578  0.2637 -0.3260
  189POPC  H15X21845   1.933   2.965   8.926  0.6794 -0.0890 -1.3527
  189POPC  H15Y21846   2.111   2.929   8.892  0.7499 -0.1587  1.3577
  189POPC  C31621847   2.030   3.108   8.799  0.2542  0.1057 -0.5967
  189POPC  H16X21848   1.941   3.173   8.814  0.7040  0.5136  0.3028
  189POPC  H16Y21849   2.011   3.068   8.697  0.2658 -0.6217 -0.3138
  189POPC  H16Z21850   2.118   3.175   8.791  0.9906 -0.6953  0.6929
  190POPC     N21851   5.035   6.678  11.360  0.8086 -0.6636 -0.1828
  190POPC   C1221852   5.132   6.684  11.244  0.5843 -0.5097  0.0090
  190POPC  H12A21853   5.233   6.695  11.283  1.0940 -1.6190 -0.9572
  190POPC  H12B21854   5.116   6.778  11.194  0.8473  0.6292  1.9771
  190POPC   C1321855   4.892   6.714  11.314  0.3891 -0.4876 -0.0757
  190POPC  H13A21856   4.868   6.654  11.228  1.3015  1.9072 -2.0784
  190POPC  H13B21857   4.828   6.706  11.400  2.1016  0.8809  1.3780
  190POPC  H13C21858   4.891   6.818  11.284 -1.7331  0.2114  2.2607
  190POPC   C1421859   5.029   6.545  11.412  0.1334  0.0283 -0.2036
  190POPC  H14A21860   5.004   6.472  11.336 -3.1707 -1.0710  1.8138
  190POPC  H14B21861   5.115   6.518  11.472 -0.7098  1.1113  1.5490
  190POPC  H14C21862   4.947   6.545  11.483  0.7270 -3.4455  0.5898
  190POPC   C1521863   5.077   6.775  11.462  0.2994 -0.2858 -0.8978
  190POPC  H15A21864   5.007   6.780  11.544  2.0952  0.9198  0.6082
  190POPC  H15B21865   5.082   6.871  11.413  2.4522  0.4715  0.6927
  190POPC  H15C21866   5.176   6.751  11.499 -0.0638  0.6262  0.6891
  190POPC   C1121867   5.118   6.576  11.131 -0.4061  0.3677 -0.5305
  190POPC  H11A21868   5.157   6.479  11.168  1.6245  0.6361 -1.8949
  190POPC  H11B21869   5.176   6.610  11.042 -0.6385 -0.0882 -0.8550
  190POPC     P21870   4.905   6.426  11.070 -0.0502 -0.4397  0.1907
  190POPC   O1321871   4.769   6.469  11.026  0.1873  0.1994 -0.0739
  190POPC   O1421872   4.924   6.353  11.191  0.3568  0.0308  0.5121
  190POPC   O1221873   4.985   6.561  11.081  0.1357  0.2718 -0.5772
  190POPC   O1121874   4.972   6.345  10.953  0.1060  0.0197 -0.1946
  190POPC    C121875   4.977   6.388  10.816 -0.7728 -0.7797  0.5350
  190POPC    HA21876   5.080   6.376  10.776  0.4181  0.3436  3.1716
  190POPC    HB21877   4.945   6.493  10.802  1.3993 -0.4586 -2.5764
  190POPC    C221878   4.885   6.299  10.726 -0.0233 -0.4242  0.1136
  190POPC    HS21879   4.905   6.323  10.619 -1.2532 -0.7680 -0.2006
  190POPC   O2121880   4.744   6.319  10.760 -0.0613  0.2336 -0.9841
  190POPC   C2121881   4.701   6.436  10.715  0.8717 -0.7004  0.1675
  190POPC   O2221882   4.766   6.520  10.656 -0.2327  0.4751  0.6624
  190POPC   C2221883   4.550   6.445  10.740  0.0257  0.4446 -0.1047
  190POPC   H2R21884   4.519   6.544  10.703  1.0847  0.6436 -0.4941
  190POPC   H2S21885   4.540   6.436  10.850 -0.0509  0.9990 -0.0681
  190POPC    C321886   4.920   6.152  10.743 -0.4275  0.5537  0.6119
  190POPC    HX21887   4.861   6.123  10.833  0.4660  0.9676  1.3452
  190POPC    HY21888   5.028   6.131  10.758 -0.2314  1.8812  1.1245
  190POPC   O3121889   4.885   6.071  10.629 -0.3771  0.3905 -0.5257
  190POPC   C3121890   4.766   6.023  10.621 -0.2284  0.3948  0.2493
  190POPC   O3221891   4.678   6.034  10.708  0.7996 -0.0414 -0.2650
  190POPC   C3221892   4.745   5.930  10.505  0.0178  0.5326  0.3722
  190POPC   H2X21893   4.640   5.896  10.516  0.4550 -0.1187  2.8178
  190POPC   H2Y21894   4.817   5.846  10.502  0.2440  0.7345 -0.0467
  190POPC   C2321895   4.476   6.335  10.660 -0.1067  0.3539 -0.4590
  190POPC   H3R21896   4.368   6.358  10.672 -0.2582  0.4740 -2.0442
  190POPC   H3S21897   4.487   6.229  10.693 -1.0480  1.1257  2.5279
  190POPC   C2421898   4.512   6.339  10.510  0.2040 -0.5402 -0.2155
  190POPC   H4R21899   4.614   6.298  10.492 -0.5024 -1.3542 -2.5021
  190POPC   H4S21900   4.504   6.444  10.476 -1.0575 -0.3673  0.5637
  190POPC   C2521901   4.410   6.266  10.420 -0.1743  0.1149  0.4767
  190POPC   H5R21902   4.309   6.305  10.445  0.1713  0.4650  1.3304
  190POPC   H5S21903   4.416   6.158  10.446 -1.4140 -0.3565 -1.0944
  190POPC   C2621904   4.430   6.282  10.266 -0.5709 -0.1339 -0.4525
  190POPC   H6R21905   4.538   6.265  10.249 -0.2558 -0.6222  1.8502
  190POPC   H6S21906   4.374   6.373  10.236 -1.8999 -0.4902  0.8694
  190POPC   C2721907   4.351   6.168  10.195 -0.1311  0.1456 -0.4529
  190POPC   H7R21908   4.254   6.172  10.249  1.0812  0.4283  1.7450
  190POPC   H7S21909   4.409   6.075  10.213 -0.8003 -0.1390  0.2300
  190POPC   C2821910   4.333   6.198  10.046 -0.2753  0.2740  0.5009
  190POPC   H8R21911   4.304   6.304  10.032  1.9221  1.0588  1.6631
  190POPC   H8S21912   4.251   6.135  10.005  0.3699 -0.2615  0.0223
  190POPC   C2921913   4.456   6.180   9.961  0.4923  0.2042  0.6063
  190POPC   H9121914   4.546   6.230  10.001 -1.4492  2.8649  1.8060
  190POPC  C21021915   4.459   6.117   9.841  0.3036 -0.3510  0.3873
  190POPC  H10121916   4.556   6.117   9.788 -0.7571  3.4915 -1.7573
  190POPC  C21121917   4.342   6.047   9.768 -0.1147  0.4407 -0.3008
  190POPC  H11R21918   4.346   6.081   9.663  0.8680  1.0027 -0.0842
  190POPC  H11S21919   4.241   6.072   9.808 -0.1961  1.1032 -0.9206
  190POPC  C21221920   4.344   5.895   9.773  0.0468 -0.3264  1.0002
  190POPC  H12R21921   4.353   5.853   9.876 -2.5122  1.2574  1.9150
  190POPC  H12S21922   4.436   5.856   9.725 -0.2158 -1.1755  1.1718
  190POPC  C21321923   4.210   5.845   9.715 -0.8034 -0.4490 -0.1716
  190POPC  H13R21924   4.132   5.881   9.786 -0.3552  0.4442 -0.1230
  190POPC  H13S21925   4.209   5.734   9.717 -2.2871 -0.4489 -0.1282
  190POPC  C21421926   4.179   5.889   9.573  0.4359 -0.8786  0.5310
  190POPC  H14R21927   4.170   5.998   9.553  2.5382 -1.0056 -1.2928
  190POPC  H14S21928   4.085   5.842   9.539  0.0921 -1.4864  2.2797
  190POPC  C21521929   4.288   5.847   9.474 -0.2932 -0.1465  0.5727
  190POPC  H15R21930   4.336   5.756   9.514  0.4122 -1.2958 -2.8156
  190POPC  H15S21931   4.369   5.923   9.478  0.9994 -1.3819 -1.5238
  190POPC  C21621932   4.228   5.803   9.341  0.2861  0.4414  0.2782
  190POPC  H16R21933   4.165   5.881   9.295  0.5246 -0.2502 -1.2306
  190POPC  H16S21934   4.163   5.715   9.363  0.3649  0.1069 -0.8067
  190POPC  C21721935   4.345   5.751   9.247 -0.4732 -0.1176  0.0288
  190POPC  H17R21936   4.373   5.656   9.298  2.1604  0.2545 -0.6362
  190POPC  H17S21937   4.435   5.815   9.264  0.0360 -0.8429  0.0855
  190POPC  C21821938   4.315   5.726   9.101  0.4823  0.2593  0.0257
  190POPC  H18R21939   4.402   5.695   9.039 -1.1539 -0.4347 -2.0171
  190POPC  H18S21940   4.281   5.817   9.046 -1.9952  1.2959  3.1498
  190POPC  H18T21941   4.241   5.644   9.092  1.0594 -0.6315  2.9564
  190POPC   C3321942   4.747   6.000  10.374 -0.0531  0.7134  0.0157
  190POPC   H3X21943   4.817   6.086  10.369 -0.3878  0.8753 -3.1693
  190POPC   H3Y21944   4.647   6.041  10.346  1.2945  1.6148 -3.7779
  190POPC   C3421945   4.797   5.898  10.262  0.2460 -0.6821 -0.5998
  190POPC   H4X21946   4.738   5.804  10.269 -0.4259 -0.2348 -0.1956
  190POPC   H4Y21947   4.900   5.866  10.288  0.5283 -1.2406 -2.3403
  190POPC   C3521948   4.800   5.959  10.119  0.7874  0.5921 -0.5383
  190POPC   H5X21949   4.877   6.036  10.098  1.7379 -0.8665 -2.5221
  190POPC   H5Y21950   4.703   6.013  10.109  0.4250 -0.1470 -1.0741
  190POPC   C3621951   4.807   5.847  10.013 -0.3776 -0.2107  0.4559
  190POPC   H6X21952   4.797   5.898   9.915 -0.0006 -0.6766  0.1685
  190POPC   H6Y21953   4.724   5.773  10.024  2.1933 -3.1358  0.8848
  190POPC   C3721954   4.937   5.767  10.020 -0.3329  0.0389  0.0419
  190POPC   H7X21955   4.940   5.694  10.103  0.9227 -1.3517 -1.1883
  190POPC   H7Y21956   5.023   5.835  10.040 -0.7440  0.0841  1.7558
  190POPC   C3821957   4.983   5.717   9.885  0.3650 -0.4477 -0.0788
  190POPC   H8X21958   4.886   5.680   9.846 -0.2370  2.9977 -2.0226
  190POPC   H8Y21959   5.057   5.635   9.896  1.7090  0.7842  0.1695
  190POPC   C3921960   5.020   5.824   9.778 -0.7552  0.0224 -0.4783
  190POPC   H9X21961   5.121   5.850   9.817  0.4923 -0.4600 -3.2971
  190POPC   H9Y21962   4.942   5.903   9.775 -0.9969 -0.1881  0.2036
  190POPC  C31021963   5.021   5.762   9.636  0.3659  0.7246 -0.4322
  190POPC  H10X21964   4.918   5.736   9.604 -0.0655  0.2415  1.3209
  190POPC  H10Y21965   5.077   5.666   9.627 -1.8367 -0.7924  1.3898
  190POPC  C31121966   5.062   5.866   9.534 -0.3029  0.0108 -0.9231
  190POPC  H11X21967   5.166   5.899   9.555 -0.5901 -0.3587  1.2265
  190POPC  H11Y21968   4.996   5.952   9.558  0.4632  0.9364 -2.0870
  190POPC  C31221969   5.044   5.825   9.387 -0.1120 -0.5790 -0.4788
  190POPC  H12X21970   5.096   5.730   9.362  0.5433 -0.0760 -1.0320
  190POPC  H12Y21971   5.085   5.902   9.318 -0.2059 -0.0097  0.0979
  190POPC  C31321972   4.896   5.795   9.346  0.0553  0.6807  0.0709
  190POPC  H13X21973   4.838   5.888   9.369 -1.4887 -0.0967 -0.5678
  190POPC  H13Y21974   4.843   5.718   9.406 -0.7067  1.2802  0.1795
  190POPC  C31421975   4.858   5.754   9.202 -0.2692  0.0268  0.2614
  190POPC  H14X21976   4.747   5.761   9.191 -0.2419 -1.5462 -1.1717
  190POPC  H14Y21977   4.886   5.650   9.174 -0.2970  0.0703  0.0738
  190POPC  C31521978   4.918   5.857   9.099 -0.3334 -0.2895 -0.6295
  190POPC  H15X21979   5.029   5.844   9.100 -0.4448 -1.3950 -1.8639
  190POPC  H15Y21980   4.890   5.956   9.140  1.4224 -0.7966  1.9046
  190POPC  C31621981   4.859   5.827   8.956 -0.4375 -0.8100 -0.9623
  190POPC  H16X21982   4.899   5.730   8.920 -0.9106 -1.6116  0.5943
  190POPC  H16Y21983   4.886   5.914   8.892  2.9741 -1.1896 -0.1694
  190POPC  H16Z21984   4.749   5.822   8.961 -0.4953  1.5619  0.9044
  191POPC     N21985   5.164   0.017   6.091 -0.1547 -0.9274 -0.4019
  191POPC   C1221986   5.282  -0.012   6.185  0.4238  0.2883  0.2338
  191POPC  H12A21987   5.293  -0.119   6.196  0.7807 -0.0514 -2.9898
  191POPC  H12B21988   5.245   0.018   6.282 -0.5014  0.1475 -0.0683
  191POPC   C1321989   5.144   0.164   6.067 -0.0276  0.2193 -0.0405
  191POPC  H13A21990   5.239   0.210   6.045 -0.0926  1.8061  2.8099
  191POPC  H13B21991   5.082   0.170   5.979  0.0072 -0.0293 -0.0828
  191POPC  H13C21992   5.095   0.219   6.146 -0.2776 -0.2166  0.1087
  191POPC   C1421993   5.205  -0.038   5.950 -0.6909  0.3932 -0.0865
  191POPC  H14A21994   5.127  -0.031   5.876 -1.1311  1.8428  0.4796
  191POPC  H14B21995   5.282   0.026   5.910  0.6501 -1.0130  0.1969
  191POPC  H14C21996   5.240  -0.139   5.962 -2.3309  0.0808  2.5221
  191POPC   C1521997   5.038  -0.043   6.144 -0.2910 -0.4460 -0.3649
  191POPC  H15A21998   5.008   0.005   6.236 -1.1191  3.9542 -2.8046
  191POPC  H15B21999   5.049  -0.150   6.150 -0.0373 -0.3046  2.1037
  191POPC  H15C22000   4.959  -0.039   6.071 -1.6225 -1.3970  0.9952
  191POPC   C1122001   5.418   0.053   6.159 -0.0054  0.1365 -0.0653
  191POPC  H11A22002   5.450   0.050   6.052 -2.3760  1.3526 -0.8421
  191POPC  H11B22003   5.496  -0.000   6.218  0.2179 -1.2783 -1.5866
  191POPC     P22004   5.493   0.262   6.312  0.1034  0.1171  0.1348
  191POPC   O1322005   5.438   0.394   6.339 -0.5460 -0.8674  0.2038
  191POPC   O1422006   5.629   0.252   6.264  0.2254 -0.1122 -0.4941
  191POPC   O1222007   5.407   0.192   6.199  0.2386 -0.0321 -0.3736
  191POPC   O1122008   5.465   0.166   6.433  0.1504 -0.9575 -1.1974
  191POPC    C122009   5.334   0.140   6.474  0.5825  0.3921 -0.2860
  191POPC    HA22010   5.320   0.030   6.460  1.7562  0.1626  0.2794
  191POPC    HB22011   5.255   0.198   6.423  1.3114 -0.1724 -2.1098
  191POPC    C222012   5.321   0.159   6.628 -0.2719 -0.3334  0.4557
  191POPC    HS22013   5.217   0.143   6.664 -0.0780 -0.8322  0.7913
  191POPC   O2122014   5.375   0.289   6.673  0.2661  0.0673 -0.3516
  191POPC   C2122015   5.285   0.386   6.648 -0.1083  0.1781 -0.2347
  191POPC   O2222016   5.176   0.372   6.594  0.3374 -0.2553 -0.4383
  191POPC   C2222017   5.337   0.513   6.706  0.5391 -0.2590  0.0821
  191POPC   H2R22018   5.414   0.544   6.631  2.6879  0.1892  2.4241
  191POPC   H2S22019   5.386   0.497   6.804  0.1652  2.6131  0.7709
  191POPC    C322020   5.394   0.046   6.702  0.7226 -0.4860  0.2241
  191POPC    HX22021   5.334  -0.043   6.674 -0.6812  1.2275 -2.4416
  191POPC    HY22022   5.385   0.050   6.812 -2.0613 -0.1871  0.0044
  191POPC   O3122023   5.525   0.017   6.667 -0.1423 -0.3405  0.2831
  191POPC   C3122024   5.593  -0.069   6.752 -0.4099 -0.0918  0.4124
  191POPC   O3222025   5.536  -0.138   6.837 -0.2394 -0.2759 -0.3098
  191POPC   C3222026   5.744  -0.050   6.737  0.0923  0.0943  0.2158
  191POPC   H2X22027   5.761   0.060   6.736  2.9198 -0.3084  0.9092
  191POPC   H2Y22028   5.764  -0.097   6.638  2.4978  0.8418  0.3371
  191POPC   C2322029   5.234   0.626   6.701 -0.8542  0.4869 -0.0664
  191POPC   H3R22030   5.134   0.578   6.685  1.0409 -3.0950 -1.7803
  191POPC   H3S22031   5.243   0.691   6.612 -1.4552  2.3644  1.2283
  191POPC   C2422032   5.227   0.701   6.827 -0.0550 -0.0680 -0.4461
  191POPC   H4R22033   5.327   0.744   6.849 -0.3272  0.6628 -0.5890
  191POPC   H4S22034   5.213   0.628   6.909  1.2582 -0.0488 -0.1968
  191POPC   C2522035   5.117   0.798   6.841 -0.0464  0.7141  0.6851
  191POPC   H5R22036   5.026   0.738   6.817 -0.3755  1.4246  0.1211
  191POPC   H5S22037   5.142   0.873   6.762 -0.2800  1.6579  1.4911
  191POPC   C2622038   5.114   0.867   6.980 -1.0889  0.3313  0.0777
  191POPC   H6R22039   5.213   0.896   7.020 -0.6739  2.4237 -2.3349
  191POPC   H6S22040   5.064   0.797   7.051 -0.4361 -0.3189 -0.1026
  191POPC   C2722041   5.025   0.998   6.971 -0.1336  0.1867  0.0831
  191POPC   H7R22042   4.918   0.977   6.955  0.3377 -1.0712 -1.4930
  191POPC   H7S22043   5.071   1.062   6.892  0.7004  0.2038  0.5810
  191POPC   C2822044   5.017   1.065   7.110 -0.5244 -0.2415 -0.0312
  191POPC   H8R22045   4.980   0.990   7.183 -0.2687 -0.7687 -0.4390
  191POPC   H8S22046   4.936   1.141   7.104 -1.1531 -0.8452  0.7434
  191POPC   C2922047   5.151   1.121   7.149 -0.3777 -0.7254 -0.1438
  191POPC   H9122048   5.223   1.106   7.067 -0.3563 -1.0851 -0.0610
  191POPC  C21022049   5.198   1.151   7.269 -0.1163 -0.2480 -0.2109
  191POPC  H10122050   5.297   1.194   7.286  1.0824 -2.6538 -0.9373
  191POPC  C21122051   5.112   1.146   7.391 -0.4113 -0.0620 -0.0945
  191POPC  H11R22052   5.005   1.147   7.363 -1.0684  1.3954  2.3731
  191POPC  H11S22053   5.125   1.240   7.449  0.8258  2.0150 -3.5552
  191POPC  C21222054   5.143   1.037   7.494  0.2838 -0.2198  0.9909
  191POPC  H12R22055   5.244   1.063   7.532  1.8205 -1.8395 -1.9029
  191POPC  H12S22056   5.153   0.942   7.438 -0.3285 -0.8405  1.9294
  191POPC  C21322057   5.036   1.037   7.609  0.1590  0.2465  0.2627
  191POPC  H13R22058   5.063   0.952   7.675 -0.9165 -0.5393 -0.2990
  191POPC  H13S22059   4.938   1.007   7.567  0.1594 -0.4566  0.7467
  191POPC  C21422060   5.034   1.157   7.707 -0.0317  0.2960  0.3864
  191POPC  H14R22061   5.011   1.251   7.653  3.0820  0.1862 -1.2306
  191POPC  H14S22062   5.141   1.178   7.730  0.4090  1.2372 -2.3957
  191POPC  C21522063   4.943   1.127   7.826 -0.3689 -0.6787 -0.2095
  191POPC  H15R22064   4.976   1.036   7.882  0.4844 -0.0392  0.3538
  191POPC  H15S22065   4.840   1.109   7.789 -1.0752  0.3572  1.2131
  191POPC  C21622066   4.948   1.242   7.923 -0.1502  0.3022  0.2857
  191POPC  H16R22067   4.874   1.322   7.901 -0.4612 -0.3424 -0.9919
  191POPC  H16S22068   5.046   1.295   7.927 -1.0955  2.3927 -2.5702
  191POPC  C21722069   4.914   1.196   8.066 -0.3296 -0.0997 -0.5059
  191POPC  H17R22070   4.990   1.117   8.087 -0.9068 -0.2190  1.2188
  191POPC  H17S22071   4.812   1.152   8.069 -0.7258  0.8736  2.0074
  191POPC  C21822072   4.929   1.313   8.165  0.1656 -0.2222 -0.2535
  191POPC  H18R22073   5.027   1.367   8.171 -0.3654  0.8070 -0.6653
  191POPC  H18S22074   4.902   1.287   8.269 -1.4374 -0.9670 -0.8501
  191POPC  H18T22075   4.858   1.395   8.139 -0.2592  0.0092  1.5548
  191POPC   C3322076   5.838  -0.121   6.846  0.3847 -0.2785  0.2269
  191POPC   H3X22077   5.945  -0.114   6.818  0.4346 -1.7569  0.0089
  191POPC   H3Y22078   5.810  -0.228   6.840 -0.7040  0.1361 -4.1108
  191POPC   C3422079   5.813  -0.053   6.986 -0.3232  0.0021  0.0540
  191POPC   H4X22080   5.820  -0.125   7.071  3.1418 -1.1462 -1.0885
  191POPC   H4Y22081   5.714  -0.004   6.990  0.0954  0.8191  0.5703
  191POPC   C3522082   5.918   0.051   7.025 -0.7246 -0.6372  0.1175
  191POPC   H5X22083   5.933   0.110   6.932  1.7056 -1.4601 -0.0399
  191POPC   H5Y22084   6.019   0.015   7.052  0.6655  1.6522 -1.7832
  191POPC   C3622085   5.871   0.150   7.131  0.1427 -0.8062 -0.6165
  191POPC   H6X22086   5.769   0.188   7.112  0.3454 -1.0120 -2.1282
  191POPC   H6Y22087   5.934   0.242   7.125 -0.7186 -0.0609  1.3643
  191POPC   C3722088   5.865   0.080   7.270  0.9434  0.2305  0.0586
  191POPC   H7X22089   5.964   0.038   7.297  0.8082  0.1576  0.4478
  191POPC   H7Y22090   5.807  -0.014   7.256 -0.3043  1.4697 -3.6170
  191POPC   C3822091   5.813   0.174   7.381  0.1268 -0.2645  0.4079
  191POPC   H8X22092   5.852   0.276   7.364  0.0932 -0.3628 -0.2964
  191POPC   H8Y22093   5.855   0.135   7.476  2.4084  0.2808 -0.3517
  191POPC   C3922094   5.666   0.177   7.379  0.1074  0.0524 -0.0962
  191POPC   H9X22095   5.620   0.079   7.405 -0.6010  1.0156  2.4393
  191POPC   H9Y22096   5.624   0.207   7.281  0.8811  0.0058 -0.4484
  191POPC  C31022097   5.607   0.271   7.488  0.5637 -0.0826  0.0283
  191POPC  H10X22098   5.506   0.303   7.453 -0.0456 -3.0374 -1.1040
  191POPC  H10Y22099   5.662   0.367   7.481  0.9258 -0.3476 -0.8588
  191POPC  C31122100   5.592   0.222   7.634  0.4056  0.0242  0.2039
  191POPC  H11X22101   5.689   0.243   7.683 -0.8782  4.3725  1.1480
  191POPC  H11Y22102   5.536   0.126   7.639 -0.6163  0.7029  2.4997
  191POPC  C31222103   5.502   0.310   7.722 -0.8811  0.3026 -0.0906
  191POPC  H12X22104   5.398   0.317   7.682 -0.7588 -0.8331 -0.6515
  191POPC  H12Y22105   5.539   0.414   7.728  0.7227 -0.3721  2.7450
  191POPC  C31322106   5.492   0.259   7.864 -0.0195 -0.7696  0.0538
  191POPC  H13X22107   5.593   0.244   7.908 -1.2453  0.5081  3.4322
  191POPC  H13Y22108   5.440   0.161   7.859  0.5399 -1.2626  2.9355
  191POPC  C31422109   5.410   0.343   7.966 -0.8251  0.0808  0.1782
  191POPC  H14X22110   5.333   0.391   7.901 -0.8601 -0.7572 -0.4234
  191POPC  H14Y22111   5.471   0.425   8.009 -1.3010  0.6131 -0.1503
  191POPC  C31522112   5.357   0.248   8.078  0.0744  0.0332  0.8180
  191POPC  H15X22113   5.438   0.183   8.117 -0.1797 -2.3996 -2.5394
  191POPC  H15Y22114   5.286   0.173   8.037 -1.3627 -0.0836  3.3933
  191POPC  C31622115   5.287   0.319   8.194  0.2475 -0.6949 -0.4407
  191POPC  H16X22116   5.363   0.369   8.258 -0.3431  0.7636 -0.8707
  191POPC  H16Y22117   5.234   0.242   8.255 -0.6391  0.4501  0.2359
  191POPC  H16Z22118   5.217   0.392   8.150  0.9133  1.5603  2.1019
  192POPC     N22119   4.271   3.804   6.050 -0.1161  0.3438  0.4515
  192POPC   C1222120   4.252   3.668   5.980  0.2201 -0.3486 -0.7318
  192POPC  H12A22121   4.233   3.680   5.874  0.4464 -1.0976 -0.8547
  192POPC  H12B22122   4.166   3.622   6.026  0.2982  2.6920  2.6410
  192POPC   C1322123   4.146   3.885   6.035  0.1091 -0.8168 -0.7713
  192POPC  H13A22124   4.121   3.888   5.929  0.5680  0.7175 -0.8390
  192POPC  H13B22125   4.061   3.844   6.087  0.0181  0.2996 -0.0452
  192POPC  H13C22126   4.157   3.981   6.082 -0.0202 -0.8780 -0.6158
  192POPC   C1422127   4.286   3.780   6.194 -0.1360 -0.4364 -0.0147
  192POPC  H14A22128   4.196   3.754   6.248  0.7160  0.0492  1.6980
  192POPC  H14B22129   4.354   3.698   6.213 -0.5262 -0.3054  2.1467
  192POPC  H14C22130   4.319   3.869   6.246 -1.8343  1.3409 -1.9152
  192POPC   C1522131   4.390   3.873   6.000 -0.6578  0.1272 -0.6305
  192POPC  H15A22132   4.399   3.974   6.037  0.6248 -0.8528  1.8535
  192POPC  H15B22133   4.388   3.876   5.892 -0.5094  4.1719 -0.5765
  192POPC  H15C22134   4.480   3.820   6.030  0.4591  1.0771 -2.1811
  192POPC   C1122135   4.378   3.572   5.981  0.0050 -0.3568  0.4021
  192POPC  H11A22136   4.461   3.612   5.920 -1.3979 -1.3162 -2.2208
  192POPC  H11B22137   4.340   3.483   5.926  0.0413 -0.2462  0.1958
  192POPC     P22138   4.320   3.430   6.189  0.1272  0.0593  0.4662
  192POPC   O1322139   4.203   3.409   6.102 -0.0510  0.0030  0.2545
  192POPC   O1422140   4.289   3.487   6.322 -0.5401  0.3432  0.2937
  192POPC   O1222141   4.417   3.527   6.112  0.1512 -0.1188  0.1908
  192POPC   O1122142   4.390   3.287   6.205  0.0541  0.0547  0.7887
  192POPC    C122143   4.514   3.273   6.280  0.4554  0.2238 -0.1582
  192POPC    HA22144   4.575   3.365   6.287 -0.0380  0.3742  3.2241
  192POPC    HB22145   4.576   3.194   6.234  0.7755  1.0864 -1.2439
  192POPC    C222146   4.482   3.236   6.434  0.6667 -0.1093  0.6150
  192POPC    HS22147   4.409   3.312   6.473  1.0987  0.7822 -0.2922
  192POPC   O2122148   4.601   3.226   6.513 -0.0178  0.1833  0.1346
  192POPC   C2122149   4.652   3.339   6.554  0.2166 -0.0001  0.2465
  192POPC   O2222150   4.609   3.448   6.525  0.2526 -0.0394 -0.6677
  192POPC   C2222151   4.760   3.309   6.654 -0.9479  0.3323 -0.3245
  192POPC   H2R22152   4.860   3.315   6.606 -0.4188  0.8732  0.8294
  192POPC   H2S22153   4.740   3.206   6.692 -1.5101  0.5290 -0.0912
  192POPC    C322154   4.404   3.095   6.449 -1.0397  0.2198  0.3688
  192POPC    HX22155   4.474   3.023   6.401 -0.1036  1.9375 -0.8864
  192POPC    HY22156   4.309   3.084   6.392 -0.6807 -1.3623  0.0413
  192POPC   O3122157   4.399   3.067   6.589 -0.1990  0.6057 -0.1372
  192POPC   C3122158   4.282   3.109   6.643  0.1606 -0.2283 -0.6340
  192POPC   O3222159   4.188   3.153   6.582  0.4929  0.5024 -0.0441
  192POPC   C3222160   4.283   3.095   6.796  0.1568  0.4494 -0.1537
  192POPC   H2X22161   4.335   2.999   6.820  0.0312  0.6971  1.1246
  192POPC   H2Y22162   4.175   3.089   6.821 -0.0425  0.7234 -0.9262
  192POPC   C2322163   4.746   3.398   6.783 -0.0196  0.7227 -0.1802
  192POPC   H3R22164   4.649   3.369   6.829 -0.0652  0.4765 -0.4287
  192POPC   H3S22165   4.740   3.501   6.742  0.2288  1.7447  2.2684
  192POPC   C2422166   4.867   3.396   6.877  0.5300  0.4000 -0.7867
  192POPC   H4R22167   4.953   3.435   6.819  0.6083 -1.5871 -2.0420
  192POPC   H4S22168   4.895   3.296   6.916 -0.4310  2.1986  5.1247
  192POPC   C2522169   4.840   3.475   6.997  0.1232  0.5285 -1.2545
  192POPC   H5R22170   4.752   3.425   7.041 -0.2910 -0.2492 -2.9205
  192POPC   H5S22171   4.793   3.572   6.973 -0.0550  0.6350 -0.5009
  192POPC   C2622172   4.965   3.485   7.092 -0.4463 -0.1174  0.2000
  192POPC   H6R22173   5.052   3.544   7.055  0.0739  0.0275  1.5971
  192POPC   H6S22174   5.005   3.382   7.084 -0.0789  0.1278 -1.2502
  192POPC   C2722175   4.933   3.539   7.232  0.4549  1.2240 -0.5553
  192POPC   H7R22176   4.899   3.454   7.295  0.2940 -0.0582 -2.3276
  192POPC   H7S22177   4.857   3.619   7.225 -1.3672 -0.1116  2.7434
  192POPC   C2822178   5.052   3.608   7.297  0.0538 -0.1634 -0.1545
  192POPC   H8R22179   5.022   3.682   7.374  1.8905 -0.3286  0.7597
  192POPC   H8S22180   5.099   3.669   7.217  2.8878  0.1757  1.6940
  192POPC   C2922181   5.150   3.512   7.360  0.2307 -0.4412  0.0176
  192POPC   H9122182   5.214   3.467   7.282  1.2136  1.4960 -0.3191
  192POPC  C21022183   5.170   3.483   7.492  0.2579  0.1315  0.4016
  192POPC  H10122184   5.255   3.418   7.516 -2.0031 -2.1301  2.6642
  192POPC  C21122185   5.094   3.540   7.610  0.6255  0.3317  0.2857
  192POPC  H11R22186   4.986   3.556   7.590  0.4983 -0.1147  0.6013
  192POPC  H11S22187   5.137   3.639   7.640  0.6979  0.4188 -0.1087
  192POPC  C21222188   5.091   3.434   7.720  0.1157 -0.4733 -0.5479
  192POPC  H12R22189   5.055   3.332   7.696  2.6520 -1.4306 -0.2957
  192POPC  H12S22190   5.018   3.472   7.795  1.4380  0.6767  0.1654
  192POPC  C21322191   5.222   3.425   7.808 -0.5020 -0.0144 -1.0696
  192POPC  H13R22192   5.244   3.526   7.848 -0.1532 -0.6460  0.3883
  192POPC  H13S22193   5.300   3.389   7.738  0.3165 -0.2355 -0.0644
  192POPC  C21422194   5.209   3.323   7.922 -0.1395 -0.4654  0.5262
  192POPC  H14R22195   5.302   3.320   7.983  0.4054 -0.3122 -0.2792
  192POPC  H14S22196   5.197   3.223   7.875 -0.8111  0.5803 -1.5698
  192POPC  C21522197   5.094   3.364   8.027 -0.8659  1.0535  0.4117
  192POPC  H15R22198   4.994   3.379   7.982 -0.8909 -1.3017 -0.3847
  192POPC  H15S22199   5.127   3.460   8.072  0.7067  1.0302 -0.6609
  192POPC  C21622200   5.068   3.260   8.132  0.8484 -0.3802 -0.2570
  192POPC  H16R22201   5.148   3.264   8.209  0.2256  0.5207  0.3638
  192POPC  H16S22202   5.072   3.159   8.087  0.3410 -0.8188  0.6636
  192POPC  C21722203   4.936   3.281   8.210  0.2127 -0.8440 -0.0916
  192POPC  H17R22204   4.857   3.296   8.133 -1.3971  1.3183  1.9117
  192POPC  H17S22205   4.947   3.376   8.267 -1.2309 -0.7903  0.1009
  192POPC  C21822206   4.898   3.181   8.325 -0.2174  0.5436  0.1345
  192POPC  H18R22207   4.804   3.223   8.366 -0.3459 -0.8508  1.3270
  192POPC  H18S22208   4.976   3.188   8.404 -1.3754 -2.3921  1.6095
  192POPC  H18T22209   4.901   3.074   8.297  0.4965  0.8077 -0.8403
  192POPC   C3322210   4.369   3.197   6.866 -0.0282 -0.2958  0.1477
  192POPC   H3X22211   4.374   3.289   6.805  1.9532 -1.4070 -1.4531
  192POPC   H3Y22212   4.473   3.158   6.873  0.0342  0.0166  1.1507
  192POPC   C3422213   4.319   3.241   7.006  0.0353  0.0567 -0.2236
  192POPC   H4X22214   4.318   3.157   7.078  0.7915  1.5546  1.5730
  192POPC   H4Y22215   4.211   3.262   7.022 -0.2801 -2.1959  0.7345
  192POPC   C3522216   4.405   3.359   7.054 -1.1873 -0.2185  0.2844
  192POPC   H5X22217   4.389   3.449   6.990 -0.4225 -0.6288 -0.4960
  192POPC   H5Y22218   4.512   3.329   7.056 -1.3440 -1.0206 -1.7185
  192POPC   C3622219   4.366   3.405   7.192  0.0119 -0.1012 -0.9047
  192POPC   H6X22220   4.298   3.491   7.173 -0.8129 -0.1953  1.4934
  192POPC   H6Y22221   4.455   3.438   7.249 -0.2397  0.8464 -1.0628
  192POPC   C3722222   4.287   3.318   7.292  0.1035 -0.6583 -0.4180
  192POPC   H7X22223   4.339   3.220   7.297 -0.2767 -0.8133  0.4866
  192POPC   H7Y22224   4.179   3.309   7.267 -0.0424 -1.8006  0.6118
  192POPC   C3822225   4.300   3.370   7.436  0.3259 -0.1302 -0.2702
  192POPC   H8X22226   4.254   3.471   7.437 -1.1407 -0.7385  4.3431
  192POPC   H8Y22227   4.408   3.369   7.462  0.0460  0.9767  0.9487
  192POPC   C3922228   4.241   3.279   7.544  0.0522 -0.2113  0.1120
  192POPC   H9X22229   4.309   3.191   7.552  2.4156  1.3955 -1.3873
  192POPC   H9Y22230   4.139   3.244   7.518 -1.0570  4.0318 -1.7079
  192POPC  C31022231   4.232   3.344   7.681 -0.4958 -0.4445 -0.5034
  192POPC  H10X22232   4.163   3.431   7.685 -0.8878 -0.7746  0.1329
  192POPC  H10Y22233   4.331   3.381   7.716 -2.1967  1.9436  1.9810
  192POPC  C31122234   4.156   3.263   7.793 -0.6163  0.1799  0.0764
  192POPC  H11X22235   4.231   3.195   7.839  0.5010  1.8879  0.8306
  192POPC  H11Y22236   4.067   3.218   7.743 -1.2044  1.6868 -0.2807
  192POPC  C31222237   4.098   3.345   7.909 -0.1854  0.2918 -0.1907
  192POPC  H12X22238   4.041   3.426   7.859 -1.6883 -0.4226  0.3051
  192POPC  H12Y22239   4.183   3.373   7.974 -0.1322 -1.5830  0.5989
  192POPC  C31322240   4.012   3.255   8.004  0.0413 -0.2465 -0.2103
  192POPC  H13X22241   4.066   3.159   8.009 -2.2148 -1.5373  0.2718
  192POPC  H13Y22242   3.914   3.239   7.953 -0.3608  2.8609 -0.5005
  192POPC  C31422243   3.990   3.321   8.138 -0.3959  0.4493  0.3927
  192POPC  H14X22244   3.924   3.411   8.133 -0.5058  0.3792  0.5483
  192POPC  H14Y22245   4.083   3.359   8.185 -0.7321  0.8543  0.7391
  192POPC  C31522246   3.925   3.239   8.249  0.6853  0.6646 -0.4573
  192POPC  H15X22247   3.818   3.229   8.220  0.3248  0.2195  0.9708
  192POPC  H15Y22248   3.919   3.295   8.345 -1.2409 -2.5805  1.3872
  192POPC  C31622249   3.984   3.103   8.291  0.0705  0.0391  1.0848
  192POPC  H16X22250   3.946   3.076   8.391 -0.6135 -0.6954  0.6336
  192POPC  H16Y22251   4.094   3.120   8.294  0.3486 -1.5522  0.8506
  192POPC  H16Z22252   3.955   3.029   8.213  1.2207 -0.4088  1.0555
  193SOD    SOD22253   0.417   5.844  14.776  0.0915 -0.1660  0.2377
  194SOD    SOD22254   1.815   0.450  10.820  0.3162  0.1860  0.2606
  195SOD    SOD22255   5.809   4.862   0.268  0.3049 -0.2106 -0.1401
  196SOD    SOD22256   4.462   6.737   6.040 -0.1745  0.2203 -0.5341
  197SOD    SOD22257   3.522   0.627   6.301  0.3753 -0.2173  0.0715
  198SOD    SOD22258   3.426   2.023  13.778 -0.3229  0.1844 -0.2035
  199SOD    SOD22259   4.437   2.883   3.842  0.0355 -0.0510 -0.5749
  200SOD    SOD22260   4.652   3.435  12.020  0.2347 -0.6593 -0.2923
  201SOD    SOD22261   1.619   6.764   2.919 -0.3071  0.3765 -0.4937
  202SOD    SOD22262   6.067   3.113  11.103  0.4027 -0.4275 -0.4074
  203SOD    SOD22263   3.979   0.720   3.203  0.5873 -0.2786 -0.4167
  204SOD    SOD22264   0.570   0.768   5.603  0.2247 -0.1390 -0.1592
  205SOD    SOD22265   6.740   3.562  13.046 -0.3538  0.3902 -0.0103
  206SOD    SOD22266   6.131   3.771  13.549 -0.6737  0.2999 -0.0410
  207SOD    SOD22267   1.837   0.524   5.495 -0.2028  0.5681 -0.1827
  208SOD    SOD22268   4.609   4.784   6.350  0.0891  0.0000  0.0320
  209SOD    SOD22269   3.383   4.689   2.074  0.1528  0.2006 -0.0097
  210SOD    SOD22270   5.012   5.327   5.922  0.1722 -0.1163  0.1083
  211SOD    SOD22271   1.825   0.145   3.850 -0.0632 -0.1561  0.0672
  212SOD    SOD22272   4.108   6.756  16.215 -0.3302  0.4096 -0.0614
  213SOD    SOD22273   5.170   2.634  12.640  0.1512  0.1793  0.1622
  214SOD    SOD22274   5.573   4.017  16.848 -0.3287  0.0334  0.3704
  215SOD    SOD22275   5.288   3.384   1.307  0.1223 -0.3130 -0.3183
  216SOD    SOD22276   5.661   1.078  14.471  0.3469  0.0659  0.1407
  217SOD    SOD22277   0.301   2.591  16.419 -0.1662  0.4482  0.3703
  218SOD    SOD22278   1.380   1.514  11.546 -0.1226  0.0324 -0.5473
  219SOD    SOD22279   1.794   6.598  11.605 -0.0617  0.3503  0.6909
  220SOD    SOD22280   5.061   2.712   2.354 -0.3394 -0.5896  0.2369
  221SOD    SOD22281   6.300   5.961  13.217  0.0478  0.0856 -0.3801
  222SOD    SOD22282   1.188   6.111  14.431  0.1302 -0.1528  0.4408
  223SOD    SOD22283   5.216   6.484   2.448  0.2452  0.4690 -0.3046
  224SOD    SOD22284   4.962   6.774   5.579 -0.0206 -0.6315 -0.2174
  225SOD    SOD22285   4.882   4.630  16.717  0.5232 -0.3764  0.1897
  226SOD    SOD22286   1.136   2.529  11.602  0.1349  0.6314 -0.8380
  227SOD    SOD22287   2.762   5.696   4.172  0.5908 -0.1639  0.3574
  228SOD    SOD22288   5.602   1.489   4.782  0.6942 -0.4871  0.1366
  229SOD    SOD22289   4.234   4.083   0.064  0.1284  0.4181 -0.4212
  230SOD    SOD22290   3.090   1.671  10.834  0.1561 -0.1525 -0.1105
  231SOD    SOD22291   1.475   2.494   1.402  0.1933 -0.5990  0.0753
  232SOD    SOD22292   3.071   5.472  10.681 -0.0381 -0.7087  0.3821
  233SOD    SOD22293   1.232   5.327  16.201 -0.1116 -0.1903 -0.0721
  234SOD    SOD22294   3.473   4.220  10.817 -0.0953  0.2521  0.5547
  235SOD    SOD22295   1.701   4.073  13.815  0.1127  0.1152 -0.1396
  236SOD    SOD22296   0.461   6.181  16.797 -0.0687  0.2658 -0.2791
  237SOD    SOD22297   6.117   0.719   0.417 -0.2859 -0.2721 -0.2271
  238SOD    SOD22298   2.950   0.860  14.490  0.1530 -0.0372 -0.0664
  239SOD    SOD22299   4.186   6.199  12.473  0.3159  0.7053 -0.0392
  240SOD    SOD22300   3.203   3.310   2.432  0.2353 -0.0363  0.2734
  241SOD    SOD22301   5.543   5.486   3.768 -0.5391  0.1043  0.3702
  242SOD    SOD22302   4.224   3.939   4.972 -0.1095  0.2194  0.2704
  243SOD    SOD22303   5.714   2.991   5.083  0.3174 -0.0745  0.4281
  244SOD    SOD22304   0.434   1.185   4.817  0.2162 -0.3307 -0.1645
  245SOD    SOD22305   2.403   6.420   5.400  0.0742  0.2685 -0.2401
  246SOD    SOD22306   4.978   4.211  11.904  0.0994  0.3864  0.2961
  247SOD    SOD22307   3.307   4.057  11.517 -0.1606 -0.2855 -0.3104
  248SOD    SOD22308   1.942   4.541   3.422  0.1444 -0.3342 -0.7127
  249SOD    SOD22309   4.124   6.062   6.338 -0.4367 -0.4212  0.0764
  250SOD    SOD22310   6.406   0.446  14.643  0.5396 -0.2111  0.0706
  251SOD    SOD22311   3.572   6.620   1.594 -0.2791 -0.0252 -0.3769
  252SOD    SOD22312   6.583   4.636   6.001 -0.2458  0.0628 -0.2832
  253SOD    SOD22313   0.861   3.237   4.779 -0.0074  0.0849 -0.3179
  254SOD    SOD22314   2.240   0.970   4.766  0.4634 -0.2655 -0.1499
  255SOD    SOD22315   4.347   3.886  10.854  0.0356  0.3098  0.3048
  256SOD    SOD22316   1.006   0.456   4.111 -0.5225 -0.1519  0.1000
  257SOD    SOD22317   4.032   5.257  15.542 -0.2311 -0.1466  0.2572
  258SOD    SOD22318   5.952   2.830  10.569  0.1524 -0.3875  0.6152
  259SOD    SOD22319   3.385   5.077  12.148  0.1037  0.3322 -0.3822
  260SOD    SOD22320   5.262   1.109  11.045  0.0308 -0.1109 -0.6414
  261SOD    SOD22321   3.011   3.124  11.312 -0.4238 -0.0644  0.1444
  262SOD    SOD22322   5.320   1.112   0.030  0.0198 -0.2582 -0.1219
  263SOD    SOD22323   2.715   4.758  10.550 -0.0142 -0.3738 -0.2432
  264SOD    SOD22324   2.335   3.685   0.116 -0.3391  0.3655  0.4245
  265SOD    SOD22325   3.570   5.878   4.310  0.1433  0.1585  0.0154
  266SOD    SOD22326   4.562   2.816  11.074 -0.1079 -0.2317 -0.0615
  267SOD    SOD22327   0.258   3.338  15.138  0.2238  0.8496 -0.7228
  268SOD    SOD22328   3.822   3.530  15.663 -0.4998 -0.0094 -0.1324
  269SOD    SOD22329   1.642   1.337  10.688 -0.1341 -0.1966  0.1797
  270CLA    CLA22330   3.408   1.016   3.457 -0.2138  0.0961  0.1741
  271CLA    CLA22331   2.394   5.562  14.324 -0.2143 -0.0616  0.1601
  272CLA    CLA22332   3.470   4.059  16.546  0.5267  0.3973 -0.5537
  273CLA    CLA22333   6.548   3.475  14.735  0.0172 -0.0237  0.0772
  274CLA    CLA22334   2.814   3.660   1.696 -0.0393  0.2154 -0.3772
  275CLA    CLA22335   3.093   0.581   3.391 -0.2391  0.0301  0.2054
  276CLA    CLA22336   3.665   3.527  11.787  0.3558  0.5358  0.0252
  277CLA    CLA22337   3.577   4.155   3.063 -0.2605 -0.2114  0.0294
  278CLA    CLA22338   3.561   3.399  12.239 -0.5461 -0.3884 -0.1884
  279CLA    CLA22339   1.648   4.464  11.904 -0.0353  0.0740 -0.0627
  280CLA    CLA22340   0.070   1.265   2.741 -0.0914 -0.2372  0.2417
  281CLA    CLA22341   3.994   0.419  17.079 -0.0816 -0.2621 -0.3861
  282CLA    CLA22342   4.336   6.380   3.230 -0.4838 -0.0433  0.6823
  283CLA    CLA22343   4.621   2.094   3.110  0.3541 -0.0091 -0.1214
  284CLA    CLA22344   1.179   0.587   4.570 -0.2843 -0.0344 -0.1035
  285CLA    CLA22345   1.886   3.849  16.225 -0.0016  0.2423 -0.0978
  286CLA    CLA22346   3.140   5.168  14.070 -0.2455  0.1351  0.2482
  287CLA    CLA22347   4.967   0.666  11.431  0.2080  0.7242  0.2860
  288CLA    CLA22348   4.404   1.849  13.252  0.3117 -0.1767  0.5462
  289CLA    CLA22349   5.879   3.894  16.223 -0.9184 -0.1844  0.0932
  290CLA    CLA22350   3.897   3.405  12.570  0.1760 -0.0136  0.3120
  291CLA    CLA22351   5.986   5.753   5.196  0.1646 -0.1599  0.3045
  292CLA    CLA22352   6.633   0.428   2.575 -0.4344 -0.0850  0.1998
  293CLA    CLA22353   2.512   4.046   5.081  0.2645  0.3331 -0.2094
  294CLA    CLA22354   3.687   4.703  14.143 -0.2844 -0.0057 -0.2392
  295CLA    CLA22355   6.200   1.082  15.434 -0.3689  0.5646  0.2659
  296CLA    CLA22356   1.785   2.313   0.879  0.0306 -0.2043  0.1427
  297CLA    CLA22357   4.249   2.200  15.612  0.3098 -0.1134  0.4338
  298CLA    CLA22358   5.312   3.921  15.722  0.1700 -0.0183  0.3160
  299CLA    CLA22359   5.263   3.501   0.874  0.1875  0.0283  0.2070
  300CLA    CLA22360   3.665   5.911  15.500  0.2466  0.2061 -0.4707
  301CLA    CLA22361   4.934   0.288   1.269  0.2934  0.0175  0.1572
  302CLA    CLA22362   0.620   6.066  13.814 -0.1857  0.1161 -0.7198
  303CLA    CLA22363   0.526   0.149  14.180 -0.1856 -0.0998  0.2809
  304CLA    CLA22364   2.902   1.168   1.641 -0.1241  0.0056 -0.0591
  305CLA    CLA22365   4.625   1.934  17.008  0.1097  0.3131 -0.0690
  306CLA    CLA22366   6.509   5.495  16.786 -0.1610  0.0658  0.3088
  307CLA    CLA22367   3.236   5.077  11.022 -0.1429  0.0647 -0.0753
  308CLA    CLA22368   1.100   1.100   2.032 -0.0020 -0.4968  0.0100
  309CLA    CLA22369   4.521   3.630  17.117  0.0424 -0.1804  0.2173
  310CLA    CLA22370   4.549   1.166   1.254  0.3086 -0.1231  0.0507
  311CLA    CLA22371   1.957   6.308   2.322  0.1742  0.0789  0.1732
  312CLA    CLA22372   6.441   3.846   3.210 -0.3097  0.1548  0.2549
  313CLA    CLA22373   5.244   3.330  12.568 -0.0617  0.2234  0.2545
  314CLA    CLA22374   0.710   4.968  16.517  0.1880 -0.0445 -0.1105
  315CLA    CLA22375   5.004   0.970   3.746 -0.1019 -0.6509  0.0030
  316CLA    CLA22376   5.539   4.823  11.868  0.0164 -0.0780  0.0733
  317CLA    CLA22377   4.129   1.550   0.078  0.3676 -0.3010  0.1767
  318CLA    CLA22378   0.635   1.732  15.731 -0.7102  0.0341  0.1117
  319CLA    CLA22379   1.424   6.588   3.741 -0.0255  0.0209  0.7996
  320CLA    CLA22380   5.595   1.255  16.259 -0.0189 -0.3095 -0.0963
  321CLA    CLA22381   0.754   4.536   3.813 -0.0341  0.0283 -0.0930
  322CLA    CLA22382   0.730   0.878   4.152  0.2116  0.0618  0.0662
  323TIP3   OH222383   5.075   3.207  12.825 -0.3804 -0.3440  0.3221
  323TIP3    H122384   5.141   3.251  12.772 -2.0692  0.4998 -1.1008
  323TIP3    H222385   5.024   3.278  12.864 -0.7426 -1.0029  1.0689
  324TIP3   OH222386   1.974   2.572   5.359  0.6903  0.0025 -0.0426
  324TIP3    H122387   2.006   2.562   5.269  0.2578 -1.4687 -0.0424
  324TIP3    H222388   2.052   2.563   5.413  0.9229  0.7133 -0.2435
  325TIP3   OH222389   2.349   3.159  15.447 -0.1813 -0.2028  0.9640
  325TIP3    H122390   2.263   3.119  15.463  0.5864 -1.8764  1.0700
  325TIP3    H222391   2.404   3.127  15.519  0.5779  0.6972  0.7920
  326TIP3   OH222392   5.105   4.401   1.864 -0.3476 -0.2317  0.1237
  326TIP3    H122393   5.108   4.435   1.775 -3.7710  1.5341  0.5776
  326TIP3    H222394   5.174   4.448   1.910 -0.3921  0.9205 -0.9465
  327TIP3   OH222395   0.213   6.734   1.418  0.4263  0.0147 -0.6843
  327TIP3    H122396   0.236   6.644   1.442  0.7031  0.4935  0.9124
  327TIP3    H222397   0.297   6.776   1.400  0.4031  0.2988 -0.1447
  328TIP3   OH222398   0.548   3.453   3.440  0.4297 -0.7826 -0.2366
  328TIP3    H122399   0.481   3.392   3.408 -1.2852  1.0249 -0.2025
  328TIP3    H222400   0.502   3.506   3.505  2.4970 -0.9545  1.4366
  329TIP3   OH222401   1.185   1.404   4.428  0.1040 -0.1354  0.4046
  329TIP3    H122402   1.134   1.345   4.484 -0.4700 -0.3631 -0.3507
  329TIP3    H222403   1.202   1.354   4.349 -0.3631  0.7039 -0.2333
  330TIP3   OH222404   5.198   1.222   1.671 -0.0382  0.1255  0.2259
  330TIP3    H122405   5.151   1.196   1.750 -0.9292  3.0825  0.7342
  330TIP3    H222406   5.133   1.267   1.617  1.3063  0.9331 -0.7725
  331TIP3   OH222407   2.849   0.599   5.701 -0.4296 -0.6235 -0.0349
  331TIP3    H122408   2.934   0.570   5.733  0.0732  1.0930  0.2564
  331TIP3    H222409   2.810   0.521   5.660  1.0032 -1.5746  0.3893
  332TIP3   OH222410   3.292   5.068  12.888  0.1385 -0.2011 -0.5162
  332TIP3    H122411   3.261   5.073  12.978  0.8418 -1.6252 -0.1911
  332TIP3    H222412   3.233   5.006  12.845  2.9772 -3.6323  0.3275
  333TIP3   OH222413   1.627   6.700   4.138 -0.1780  0.0745  0.0763
  333TIP3    H122414   1.693   6.751   4.090  0.1847 -0.8423 -0.4203
  333TIP3    H222415   1.587   6.763   4.198 -2.5860  1.9076 -3.3474
  334TIP3   OH222416   1.184   4.235  14.175 -0.2588 -0.7916  0.5086
  334TIP3    H122417   1.246   4.244  14.103 -1.1941 -1.4695 -0.3922
  334TIP3    H222418   1.195   4.144  14.204 -0.9989 -0.9883  0.1833
  335TIP3   OH222419   1.389   1.870   5.727  0.6859  0.7725 -0.1714
  335TIP3    H122420   1.438   1.940   5.685  1.8071 -0.1500 -0.4282
  335TIP3    H222421   1.427   1.864   5.815 -0.4739  1.5327  0.3967
  336TIP3   OH222422   6.454   6.410   4.477  0.9480 -0.4209  0.1906
  336TIP3    H122423   6.387   6.477   4.496  0.2554 -1.1656  0.4264
  336TIP3    H222424   6.519   6.421   4.546  0.5901 -0.3016  0.5122
  337TIP3   OH222425   6.010   3.787  13.346 -0.0352 -0.2421  0.0475
  337TIP3    H122426   5.920   3.817  13.335  0.0562  0.2038  0.5393
  337TIP3    H222427   6.020   3.718  13.279 -0.4150  0.4055 -0.6871
  338TIP3   OH222428   5.928   0.588  15.187  0.6730  0.1493 -0.5965
  338TIP3    H122429   5.861   0.578  15.119  1.4160  0.8968 -1.4525
  338TIP3    H222430   5.897   0.660  15.241  0.5494  0.1817 -0.7090
  339TIP3   OH222431   0.101   2.484  16.315 -0.0765  0.4528  0.2551
  339TIP3    H122432   0.016   2.506  16.354  0.9107  2.5428  1.3482
  339TIP3    H222433   0.079   2.444  16.231 -2.1543  1.7504  0.1233
  340TIP3   OH222434   0.897   0.433   5.999  0.1142  0.4916  0.6811
  340TIP3    H122435   0.899   0.420   5.905  1.1834  2.6071  0.3954
  340TIP3    H222436   0.902   0.345   6.036  2.6984 -0.1819 -1.2078
  341TIP3   OH222437   0.745   3.373  11.756 -0.4161  0.5197 -1.0995
  341TIP3    H122438   0.754   3.433  11.682  1.6179  2.8439  0.9660
  341TIP3    H222439   0.826   3.322  11.755 -0.3034  0.6926 -0.3213
  342TIP3   OH222440   5.466   2.012   2.465 -0.2710  0.2642 -0.1207
  342TIP3    H122441   5.492   2.026   2.374 -1.8908 -1.8414 -0.9582
  342TIP3    H222442   5.372   2.026   2.466 -0.4619 -0.9426  0.9484
  343TIP3   OH222443   4.614   0.415   4.469  0.1239  0.3422  0.2134
  343TIP3    H122444   4.695   0.381   4.506  0.7636  1.6293  0.0326
  343TIP3    H222445   4.624   0.510   4.472 -0.8884  0.5009 -0.8917
  344TIP3   OH222446   3.131   4.576   0.937 -0.3607 -0.3048 -0.2337
  344TIP3    H122447   3.122   4.481   0.929  1.7681 -0.5495  0.2159
  344TIP3    H222448   3.110   4.595   1.028  0.6995 -0.5248  0.0587
  345TIP3   OH222449   4.556   2.862  10.855  0.6892  0.3300  0.7282
  345TIP3    H122450   4.648   2.843  10.837  0.6086 -0.5487  1.1883
  345TIP3    H222451   4.528   2.918  10.783  1.3983  0.0249  0.2096
  346TIP3   OH222452   4.142   4.435  17.214  0.1227  0.2928  1.2197
  346TIP3    H122453   4.081   4.490  17.163 -0.2872 -0.1416  1.2382
  346TIP3    H222454   4.085   4.372  17.259  0.4191  1.1522  2.8211
  347TIP3   OH222455   0.710   6.004   2.370  0.0831  0.0934 -0.2929
  347TIP3    H122456   0.700   5.918   2.409  2.8699  0.1559  0.6917
  347TIP3    H222457   0.803   6.024   2.379 -0.6201  3.5146  0.1432
  348TIP3   OH222458   5.171   0.932   4.348 -0.4180  0.1732  0.2515
  348TIP3    H122459   5.238   0.884   4.396 -2.3207 -1.3196  1.4293
  348TIP3    H222460   5.187   0.910   4.256  0.6231 -0.2579  0.5323
  349TIP3   OH222461   4.762   6.011  13.992  0.3797 -0.3439 -0.2796
  349TIP3    H122462   4.740   5.965  13.911 -1.5619 -0.1596  0.1050
  349TIP3    H222463   4.844   6.057  13.973  1.0332 -1.9416 -1.4651
  350TIP3   OH222464   4.964   6.194   5.001  0.3316 -0.3806 -0.8467
  350TIP3    H122465   4.925   6.111   5.029  0.7541 -0.2214  0.2256
  350TIP3    H222466   4.901   6.229   4.937 -0.7860 -0.6071  0.1152
  351TIP3   OH222467   1.904   5.385  12.578 -0.6458  0.4019 -0.3512
  351TIP3    H122468   1.981   5.442  12.579  1.7374 -2.7045  1.7875
  351TIP3    H222469   1.858   5.404  12.660 -0.4269 -0.0259 -0.1317
  352TIP3   OH222470   3.125   1.941  16.680 -0.7056 -0.1440  0.0183
  352TIP3    H122471   3.175   1.922  16.759 -0.1196 -1.9367 -0.7563
  352TIP3    H222472   3.033   1.932  16.706 -0.4836 -2.8863  0.0221
  353TIP3   OH222473   5.687   0.466  16.500 -0.2337 -0.0483  0.2430
  353TIP3    H122474   5.776   0.454  16.466  0.2689  2.1614  0.6808
  353TIP3    H222475   5.672   0.390  16.555  0.2552 -1.9482 -2.1381
  354TIP3   OH222476   0.208   4.231  16.558  0.3775  0.0837  0.2163
  354TIP3    H122477   0.216   4.196  16.646 -4.0864 -0.8876  0.3307
  354TIP3    H222478   0.190   4.155  16.503 -0.1231  1.0852 -1.0299
  355TIP3   OH222479   0.651   2.746   3.454 -0.5901  0.0964  0.1585
  355TIP3    H122480   0.632   2.691   3.530 -3.4612 -0.5444 -0.9366
  355TIP3    H222481   0.639   2.835   3.485 -0.7640 -0.1177  0.7153
  356TIP3   OH222482   1.089   2.336  10.921  0.1696  0.7532  0.0802
  356TIP3    H122483   1.160   2.335  10.857  0.8493  1.9915  0.8019
  356TIP3    H222484   1.019   2.286  10.879  1.7722 -1.2358 -0.2667
  357TIP3   OH222485   2.503   3.835   0.599  0.3665  0.3521 -0.0582
  357TIP3    H122486   2.501   3.899   0.670  0.9894 -0.9640  1.1567
  357TIP3    H222487   2.553   3.761   0.634 -1.8761 -1.5806 -0.7711
  358TIP3   OH222488   1.019   2.956  10.442 -0.0482  0.1264 -0.5643
  358TIP3    H122489   0.924   2.956  10.457 -0.2822 -1.7551 -1.9084
  358TIP3    H222490   1.053   2.889  10.502  0.3021  0.0053 -0.8967
  359TIP3   OH222491   2.025   1.818  12.255  0.4942  0.3193 -0.2462
  359TIP3    H122492   1.989   1.855  12.175  0.1398 -1.2177 -0.8113
  359TIP3    H222493   2.097   1.877  12.278  0.6963  0.6914 -1.7785
  360TIP3   OH222494   3.672   1.733   4.196  0.4031  0.4052  0.0988
  360TIP3    H122495   3.615   1.664   4.231 -0.2371  1.4658  1.1707
  360TIP3    H222496   3.626   1.815   4.215  1.1041  1.1367 -1.2750
  361TIP3   OH222497   0.740   3.643   4.566  0.1446  0.1862  0.1110
  361TIP3    H122498   0.717   3.686   4.483  1.1008  0.4438 -0.0217
  361TIP3    H222499   0.780   3.711   4.619  1.9335 -0.5849 -0.2103
  362TIP3   OH222500   2.345   2.666   0.066  0.7382 -0.1683 -0.0026
  362TIP3    H122501   2.427   2.699   0.028  1.7675 -1.5507  0.9379
  362TIP3    H222502   2.332   2.582   0.022  1.3135 -1.2341  1.8157
  363TIP3   OH222503   0.522   1.528   6.399  1.1451 -0.3734  0.5392
  363TIP3    H122504   0.541   1.435   6.413  3.4314  0.2949  2.1430
  363TIP3    H222505   0.581   1.554   6.329 -0.1954 -0.3413 -0.5889
  364TIP3   OH222506   5.192   6.520  15.869  0.4016  0.1917  0.1239
  364TIP3    H122507   5.193   6.606  15.825 -1.5541 -1.5735 -3.5923
  364TIP3    H222508   5.272   6.477  15.837 -0.5722 -0.7640 -1.0766
  365TIP3   OH222509   4.886   2.311  15.032  0.2557  0.3304 -0.2242
  365TIP3    H122510   4.837   2.341  14.955 -0.4577 -1.0266 -0.3207
  365TIP3    H222511   4.823   2.316  15.104  0.8164  1.2525  0.2045
  366TIP3   OH222512   2.323   1.192   4.403 -0.1567 -0.2907 -0.1089
  366TIP3    H122513   2.336   1.259   4.470  1.9229  0.9213 -1.6688
  366TIP3    H222514   2.249   1.224   4.351 -1.6140 -1.1131  1.4226
  367TIP3   OH222515   1.391   4.605   3.101 -0.7491 -0.0718  0.3057
  367TIP3    H122516   1.467   4.574   3.150 -1.5817  0.0534  1.7217
  367TIP3    H222517   1.338   4.651   3.167 -2.8753 -1.6119 -0.2830
  368TIP3   OH222518   6.565   5.367   0.770 -0.1186 -0.0290 -0.1725
  368TIP3    H122519   6.524   5.325   0.694 -1.0310  1.2060 -0.3882
  368TIP3    H222520   6.648   5.401   0.736 -0.4376  0.3536 -0.5773
  369TIP3   OH222521   2.881   2.394  11.961  0.3185 -0.3816  0.3246
  369TIP3    H122522   2.873   2.340  11.883 -1.1137  1.8919 -1.1709
  369TIP3    H222523   2.939   2.344  12.019 -1.1680 -3.6084 -0.8327
  370TIP3   OH222524   5.626   4.277   1.047  0.0088 -0.2961  0.9278
  370TIP3    H122525   5.604   4.312   1.134  0.5251  0.5906  0.7145
  370TIP3    H222526   5.683   4.344   1.008 -1.0275 -0.2135 -0.4848
  371TIP3   OH222527   0.607   3.236  15.701  0.5138  0.7255  0.6973
  371TIP3    H122528   0.589   3.297  15.772 -0.2729  1.6816 -0.3041
  371TIP3    H222529   0.631   3.292  15.627  1.1346 -0.2461  0.1516
  372TIP3   OH222530   1.101   2.406  13.734 -0.0096  0.1854 -0.2915
  372TIP3    H122531   1.046   2.348  13.682 -0.6765  1.3542 -0.8992
  372TIP3    H222532   1.191   2.380  13.711 -0.2485  1.8194 -3.3884
  373TIP3   OH222533   0.726   2.214  12.850 -0.2754  0.2414 -0.4013
  373TIP3    H122534   0.720   2.246  12.940 -1.7856  1.0035 -0.7718
  373TIP3    H222535   0.654   2.256  12.804  0.3850 -0.2769 -1.9425
  374TIP3   OH222536   1.129   5.663   4.367 -0.2475 -0.3828  0.0408
  374TIP3    H122537   1.107   5.753   4.343 -1.8545 -0.7076  0.2199
  374TIP3    H222538   1.106   5.611   4.290 -1.2758 -0.8836  0.6708
  375TIP3   OH222539   4.992   3.259  15.076 -0.2097  0.0655 -0.3984
  375TIP3    H122540   5.065   3.317  15.101 -1.4721  1.1095  0.9966
  375TIP3    H222541   5.020   3.172  15.103  0.8558  0.3423 -0.5989
  376TIP3   OH222542   0.163   1.367   1.397 -0.6486 -1.2057 -0.5094
  376TIP3    H122543   0.125   1.434   1.454 -0.0441 -1.6157  0.3905
  376TIP3    H222544   0.087   1.319   1.362 -0.9996 -1.3081  0.3862
  377TIP3   OH222545   0.663   2.226   1.434  0.6296 -0.1557  0.7415
  377TIP3    H122546   0.667   2.240   1.529 -0.3920 -0.7727  0.8789
  377TIP3    H222547   0.577   2.189   1.419  0.6990  0.1693 -0.4697
  378TIP3   OH222548   2.326   2.170  13.770 -0.3753 -0.0680  0.2178
  378TIP3    H122549   2.270   2.140  13.698 -0.6209 -1.6168  1.0525
  378TIP3    H222550   2.405   2.116  13.763  0.0861  0.5746  0.4192
  379TIP3   OH222551   4.503   6.200   6.623 -0.6234  0.3610 -0.7716
  379TIP3    H122552   4.585   6.158   6.648 -0.2249  1.6127  0.0633
  379TIP3    H222553   4.457   6.134   6.571 -0.6261 -1.6076  1.6808
  380TIP3   OH222554   3.380   0.378  12.737 -0.3280 -0.1550 -0.1661
  380TIP3    H122555   3.466   0.394  12.699 -0.3853  1.5473  0.3893
  380TIP3    H222556   3.398   0.331  12.819  0.0202 -0.2972 -0.3221
  381TIP3   OH222557   0.595   4.310   1.676  0.1530  0.1293 -0.3424
  381TIP3    H122558   0.537   4.234   1.674 -0.1461  0.2904  1.2826
  381TIP3    H222559   0.683   4.272   1.686  0.0848 -0.0401 -0.3924
  382TIP3   OH222560   2.941   2.192  14.971 -0.1211 -0.6305  0.5872
  382TIP3    H122561   2.876   2.257  14.997  0.5514  0.1458  0.3408
  382TIP3    H222562   2.916   2.167  14.882  0.8835  0.9167 -0.1534
  383TIP3   OH222563   2.602   2.849   1.415  0.1650 -0.1369  0.0525
  383TIP3    H122564   2.520   2.808   1.388  1.5673 -1.6767 -1.9861
  383TIP3    H222565   2.648   2.781   1.464  0.5143  0.4976  0.6107
  384TIP3   OH222566   2.494   0.267  14.688  0.7851  0.3393 -0.5268
  384TIP3    H122567   2.557   0.325  14.731  0.7750 -0.1433  0.1464
  384TIP3    H222568   2.544   0.229  14.615  0.9474  0.7827 -0.6507
  385TIP3   OH222569   1.912   5.909   3.405 -0.4503  0.5212 -0.3505
  385TIP3    H122570   1.862   5.899   3.324  0.4104  1.5064 -1.0190
  385TIP3    H222571   1.927   6.003   3.413  0.9171  0.2851  0.0485
  386TIP3   OH222572   3.534   4.631  15.942  0.4994 -0.1475 -0.4763
  386TIP3    H122573   3.623   4.655  15.969 -0.9304  2.1936  2.4090
  386TIP3    H222574   3.514   4.553  15.994  0.3818  0.1099 -0.1340
  387TIP3   OH222575   4.421   3.333  10.484  0.3495 -0.6170 -0.1455
  387TIP3    H122576   4.338   3.309  10.525  0.7654  0.0805  1.1582
  387TIP3    H222577   4.457   3.251  10.451 -0.6303 -0.9906 -0.3026
  388TIP3   OH222578   3.971   4.199   1.483 -0.5568 -0.7198 -0.1066
  388TIP3    H122579   4.062   4.228   1.478 -1.0152  1.4876  3.4384
  388TIP3    H222580   3.928   4.243   1.410  0.6548  0.3038 -0.2206
  389TIP3   OH222581   4.933   5.107   4.490  0.0958  0.3464  0.3099
  389TIP3    H122582   5.005   5.072   4.541 -0.2462 -0.8359 -0.0051
  389TIP3    H222583   4.907   5.036   4.431 -2.2427  0.2607  1.3808
  390TIP3   OH222584   1.864   1.907  15.312 -0.1947  0.4201 -0.1267
  390TIP3    H122585   1.830   1.963  15.381 -0.9689  0.0687 -0.2178
  390TIP3    H222586   1.859   1.960  15.233  2.8093  1.6440  0.4286
  391TIP3   OH222587   4.273   5.228  12.968 -0.3314 -0.3082  0.2543
  391TIP3    H122588   4.360   5.192  12.952 -0.2243  0.6289 -1.4281
  391TIP3    H222589   4.271   5.244  13.062  1.3720 -0.2145  0.2920
  392TIP3   OH222590   5.073   4.696  14.358 -0.1646  0.0335 -0.1473
  392TIP3    H122591   5.030   4.678  14.274  1.0791 -0.3359 -0.7186
  392TIP3    H222592   5.014   4.758  14.402 -1.1981 -0.3336 -0.9706
  393TIP3   OH222593   3.889   4.333   0.864  0.3471  0.7923 -0.4752
  393TIP3    H122594   3.942   4.350   0.942 -0.6137 -0.2133  0.4169
  393TIP3    H222595   3.951   4.299   0.799  0.5093 -2.2912  1.2014
  394TIP3   OH222596   5.202   5.010  13.096  0.1574  0.2034 -0.1578
  394TIP3    H122597   5.186   4.936  13.039  0.6840  0.0451 -0.1037
  394TIP3    H222598   5.285   4.989  13.140 -0.0570  0.4929  0.3833
  395TIP3   OH222599   4.006   3.277   0.426 -0.6400  0.2713 -0.1779
  395TIP3    H122600   4.073   3.317   0.481 -0.4491 -0.7232  0.3423
  395TIP3    H222601   4.014   3.319   0.341  2.2962 -1.5310 -0.8591
  396TIP3   OH222602   5.359   4.861   3.096  0.4946 -0.2821 -0.4086
  396TIP3    H122603   5.389   4.909   3.018  1.4469 -1.9862 -1.1166
  396TIP3    H222604   5.382   4.919   3.169  1.8591  0.2528 -1.2281
  397TIP3   OH222605   2.258   0.077   6.263  0.1201  0.3737  0.6899
  397TIP3    H122606   2.165   0.058   6.253  0.4815 -0.1524 -2.0013
  397TIP3    H222607   2.262   0.172   6.271 -0.5345  0.5673 -1.0187
  398TIP3   OH222608   3.652   0.946   1.357 -0.1210  0.2309 -0.0116
  398TIP3    H122609   3.597   0.874   1.385  0.7407 -0.9015 -1.1372
  398TIP3    H222610   3.631   0.958   1.264  2.8375 -1.5166 -0.9957
  399TIP3   OH222611   5.416   4.485  12.397  0.1520 -0.5613  0.3852
  399TIP3    H122612   5.487   4.443  12.349  1.2209  1.3661  0.2420
  399TIP3    H222613   5.452   4.570  12.424 -0.9549 -0.9488  3.2168
  400TIP3   OH222614   4.523   2.795   3.396  0.3266 -0.4116 -0.0707
  400TIP3    H122615   4.525   2.756   3.483  2.3916 -1.3281 -0.4948
  400TIP3    H222616   4.608   2.774   3.358  0.3655  2.0307 -1.4217
  401TIP3   OH222617   3.958   0.073  12.070  0.0999  0.1819 -0.1809
  401TIP3    H122618   3.985   0.153  12.023 -1.6897  2.8085  3.0558
  401TIP3    H222619   4.037   0.044  12.115  0.4964  0.7667 -0.4854
  402TIP3   OH222620   5.771   2.740  14.077  0.4394 -0.8910  0.0015
  402TIP3    H122621   5.796   2.714  14.166  0.3721  1.4501  0.7404
  402TIP3    H222622   5.763   2.657  14.029  3.1198 -2.0455  1.4494
  403TIP3   OH222623   4.280   3.565  14.813  0.0477  0.0109  0.4323
  403TIP3    H122624   4.326   3.644  14.787 -3.2173  1.4211 -1.3471
  403TIP3    H222625   4.304   3.500  14.747 -2.5631  1.5445 -2.1562
  404TIP3   OH222626   6.684   0.822   1.909  0.7269 -0.3389  0.1724
  404TIP3    H122627   6.653   0.875   1.981  0.9164  0.4707 -0.3400
  404TIP3    H222628   6.777   0.808   1.927  1.1676  1.2521 -0.7496
  405TIP3   OH222629   2.698   6.420   4.823  0.1707  0.2066 -0.1383
  405TIP3    H122630   2.687   6.512   4.848 -1.1507  0.4398 -1.4827
  405TIP3    H222631   2.619   6.377   4.854  0.9579 -0.5606  0.8140
  406TIP3   OH222632   5.770   0.917  14.954 -0.3240 -0.8087 -0.4153
  406TIP3    H122633   5.812   1.000  14.932 -0.8784 -0.2544  0.5385
  406TIP3    H222634   5.734   0.932  15.042 -0.8329 -1.9019 -0.4334
  407TIP3   OH222635   0.997   0.473  15.579 -0.0377  0.4878  0.2851
  407TIP3    H122636   0.931   0.512  15.520 -1.8000 -0.5218  1.5235
  407TIP3    H222637   1.034   0.548  15.626 -0.2342  1.0786 -0.4810
  408TIP3   OH222638   5.685   0.248  15.668 -0.4224 -0.4580 -0.2076
  408TIP3    H122639   5.660   0.311  15.600  1.3710  0.2234 -0.2530
  408TIP3    H222640   5.688   0.300  15.748 -0.3773 -0.8015  0.0134
  409TIP3   OH222641   5.408   5.634  13.526  0.1832 -0.3519  0.3034
  409TIP3    H122642   5.321   5.596  13.541 -0.2693 -0.4662 -2.3206
  409TIP3    H222643   5.390   5.719  13.485  1.3091  0.3673  1.2576
  410TIP3   OH222644   1.128   1.420  16.987  0.3213  0.0888  0.1535
  410TIP3    H122645   1.193   1.372  16.934  0.2675  0.3384 -0.1385
  410TIP3    H222646   1.179   1.460  17.057  0.5952  0.9165 -0.5136
  411TIP3   OH222647   2.164   0.452  13.357  0.3866 -0.8640  0.1607
  411TIP3    H122648   2.259   0.453  13.365  0.2643  1.6530  1.6448
  411TIP3    H222649   2.132   0.457  13.447 -1.1216  1.2278 -0.4552
  412TIP3   OH222650   1.137   4.465  11.980 -0.2622  0.4577 -0.6021
  412TIP3    H122651   1.223   4.500  11.955 -0.8746  3.4701  1.2283
  412TIP3    H222652   1.074   4.525  11.939 -1.3818  0.7647  1.4868
  413TIP3   OH222653   5.817   5.287   4.525 -1.0143  0.2854 -0.4084
  413TIP3    H122654   5.730   5.315   4.496 -1.0265 -0.7481 -1.3723
  413TIP3    H222655   5.838   5.211   4.471  0.7346  0.8540 -0.5828
  414TIP3   OH222656   4.588   1.005  13.471  0.1736  0.3333  0.5430
  414TIP3    H122657   4.508   0.953  13.470  0.3556  0.0687 -1.1332
  414TIP3    H222658   4.658   0.940  13.478  0.2356  0.6218  3.4713
  415TIP3   OH222659   3.887   1.048  13.703  0.5264  0.1861 -0.5456
  415TIP3    H122660   3.943   1.036  13.780 -1.0998 -0.7029  0.5294
  415TIP3    H222661   3.871   0.959  13.671 -0.0273  0.4480 -1.0054
  416TIP3   OH222662   3.416   0.092  12.349  0.7168  0.6373  0.2032
  416TIP3    H122663   3.401   0.016  12.292  1.7014  1.1545 -0.7758
  416TIP3    H222664   3.454   0.054  12.428 -1.7849 -0.2167  1.0365
  417TIP3   OH222665   4.735   0.278  16.632  0.0947 -0.0798 -0.0513
  417TIP3    H122666   4.649   0.250  16.664  0.2689  0.1661  0.6438
  417TIP3    H222667   4.758   0.352  16.688 -0.0865  1.0618 -1.4629
  418TIP3   OH222668   3.899   2.979   0.605  0.0189  0.3341 -0.0994
  418TIP3    H122669   3.844   3.057   0.602 -1.6883 -0.8009  1.0002
  418TIP3    H222670   3.988   3.014   0.614 -0.8913  2.1391  2.4833
  419TIP3   OH222671   4.457   2.867  17.102 -0.0172 -0.7295  0.1408
  419TIP3    H122672   4.471   2.879  17.195  0.0489 -0.7646  0.1360
  419TIP3    H222673   4.361   2.868  17.092 -0.0262 -0.8209  0.2191
  420TIP3   OH222674   6.636   3.835  10.852  0.6939 -0.8455 -0.7290
  420TIP3    H122675   6.581   3.758  10.868 -0.2725 -0.5969 -2.7439
  420TIP3    H222676   6.724   3.807  10.876  0.2777 -2.4139 -0.9687
  421TIP3   OH222677   5.692   4.447  15.325 -0.0210  0.0567 -0.1400
  421TIP3    H122678   5.629   4.425  15.393  1.3741  1.4198  1.6364
  421TIP3    H222679   5.773   4.468  15.372  1.2809 -0.0050 -2.2686
  422TIP3   OH222680   5.710   5.585  12.727 -0.1941  0.2999 -0.2196
  422TIP3    H122681   5.761   5.568  12.647 -1.7457 -1.9036 -0.7893
  422TIP3    H222682   5.726   5.509  12.782  0.4496  1.5788  1.4029
  423TIP3   OH222683   6.714   0.272  10.769 -0.2119  0.1342  0.4589
  423TIP3    H122684   6.665   0.338  10.719 -1.1335 -1.0142 -0.1608
  423TIP3    H222685   6.752   0.215  10.702  1.6902  0.7950  0.9446
  424TIP3   OH222686   1.351   3.474  16.997 -0.1904 -0.3627 -0.0773
  424TIP3    H122687   1.433   3.523  16.992 -0.7881  0.6876  0.2260
  424TIP3    H222688   1.316   3.495  17.084 -1.0216 -0.4121 -0.4000
  425TIP3   OH222689   1.098   3.862  14.718 -0.3447  0.2165  0.3864
  425TIP3    H122690   1.117   3.919  14.793 -1.5363  0.8992  0.1684
  425TIP3    H222691   1.135   3.908  14.643 -0.1885  0.0889  0.3832
  426TIP3   OH222692   6.650   1.836   2.983 -0.4585 -0.0052  0.7696
  426TIP3    H122693   6.716   1.892   3.023  0.1596 -1.1568  1.3945
  426TIP3    H222694   6.700   1.770   2.935 -1.1842  0.7716 -1.1095
  427TIP3   OH222695   3.268   6.003   6.158  0.1671  0.3099  0.7023
  427TIP3    H122696   3.199   6.065   6.134 -1.3647 -1.9813 -1.1609
  427TIP3    H222697   3.238   5.963   6.240 -0.7011 -0.5985 -0.0443
  428TIP3   OH222698   5.820   5.608   2.731  0.2342 -0.1570  0.1379
  428TIP3    H122699   5.764   5.659   2.673 -0.1874  0.1674  0.8286
  428TIP3    H222700   5.893   5.666   2.752  0.4490 -0.3164 -0.1505
  429TIP3   OH222701   5.271   1.058  16.779  0.1132 -0.4225  0.1469
  429TIP3    H122702   5.335   1.076  16.710  0.4687 -0.4940  0.4561
  429TIP3    H222703   5.195   1.111  16.755 -0.2183 -1.3767 -0.9604
  430TIP3   OH222704   3.144   1.262  13.213 -0.4136  0.0707 -0.5725
  430TIP3    H122705   3.088   1.185  13.223 -1.2908  0.7132 -0.5425
  430TIP3    H222706   3.232   1.226  13.205 -0.4874 -0.8307  2.1861
  431TIP3   OH222707   3.772   1.301  13.312  0.0196 -0.0624  0.4119
  431TIP3    H122708   3.735   1.213  13.300 -0.7045 -0.0607  2.4033
  431TIP3    H222709   3.824   1.294  13.392 -1.5952  1.7736  1.6609
  432TIP3   OH222710   3.947   5.361  11.637 -0.0154  0.0177  0.1486
  432TIP3    H122711   3.970   5.427  11.572 -0.6917  0.7139  0.6141
  432TIP3    H222712   3.922   5.411  11.714  0.5216 -0.8056  0.8567
  433TIP3   OH222713   5.474   4.846   1.376 -0.3359 -0.0090 -0.4671
  433TIP3    H122714   5.565   4.877   1.372 -0.6381  0.8225 -1.0219
  433TIP3    H222715   5.424   4.914   1.331 -1.3732  0.1033  0.8294
  434TIP3   OH222716   2.708   4.559   1.384 -0.7979 -0.4632 -0.4699
  434TIP3    H122717   2.782   4.604   1.425 -0.1422 -1.2852 -0.7255
  434TIP3    H222718   2.668   4.625   1.327  1.0837 -0.6101 -2.0224
  435TIP3   OH222719   4.320   4.100   3.823 -0.8181  0.4610  0.0940
  435TIP3    H122720   4.229   4.113   3.795 -0.1539 -0.4910 -2.6290
  435TIP3    H222721   4.333   4.006   3.820  1.0734  0.7261 -2.4059
  436TIP3   OH222722   5.212   4.057  16.718  0.1878  0.4407  0.1357
  436TIP3    H122723   5.144   3.998  16.685  1.2544 -0.3340 -0.7653
  436TIP3    H222724   5.272   4.066  16.644  1.8569 -0.1284  1.3919
  437TIP3   OH222725   0.434   3.630  14.055  0.0253  0.1273  0.1523
  437TIP3    H122726   0.376   3.561  14.087 -1.4454  0.7411 -1.1291
  437TIP3    H222727   0.441   3.691  14.129 -0.8349 -0.0269  0.3719
  438TIP3   OH222728   0.654   6.351  11.092  0.2075  0.0621 -0.1498
  438TIP3    H122729   0.586   6.373  11.155 -0.4996 -0.5082 -0.7120
  438TIP3    H222730   0.636   6.407  11.016 -0.0564 -0.5869 -0.5697
  439TIP3   OH222731   3.971   4.594  17.091 -0.3365 -0.1692  0.1987
  439TIP3    H122732   3.949   4.577  17.000  1.2620  0.7844 -0.3771
  439TIP3    H222733   4.014   4.679  17.090  1.5613 -1.0873  1.5659
  440TIP3   OH222734   4.141   6.275   4.184  0.0120  0.1640 -0.1035
  440TIP3    H122735   4.168   6.365   4.204 -1.9387  1.1624 -1.7639
  440TIP3    H222736   4.210   6.241   4.127 -1.2996  2.1425 -3.0124
  441TIP3   OH222737   5.275   1.712   0.771 -0.1295  0.2005 -0.3607
  441TIP3    H122738   5.274   1.793   0.822  1.9912  0.0843 -0.0748
  441TIP3    H222739   5.360   1.672   0.791 -1.1845 -2.1621 -0.3973
  442TIP3   OH222740   1.404   5.853   0.406 -0.0164  0.2629 -0.0568
  442TIP3    H122741   1.350   5.793   0.458  0.4307 -0.4201 -0.3826
  442TIP3    H222742   1.380   5.940   0.439 -1.1953 -0.0401 -0.0728
  443TIP3   OH222743   3.825   2.180  14.221 -0.4466 -0.3850  0.0211
  443TIP3    H122744   3.903   2.135  14.252  0.2827  0.3355 -0.7163
  443TIP3    H222745   3.759   2.164  14.289 -0.0248 -2.0025  0.0742
  444TIP3   OH222746   6.119   6.783   2.059  0.3286  0.0194  0.2212
  444TIP3    H122747   6.201   6.777   2.010  0.7475 -0.7807  1.0262
  444TIP3    H222748   6.139   6.841   2.132  0.6747 -1.5392  1.3964
  445TIP3   OH222749   0.016   5.676  16.137  0.4080  0.5146 -0.0779
  445TIP3    H122750  -0.011   5.584  16.131 -0.8395  0.8740 -0.3194
  445TIP3    H222751  -0.048   5.715  16.196  1.4230  1.0630  0.6678
  446TIP3   OH222752   5.579   4.643   0.845  0.4466  0.5234  0.4797
  446TIP3    H122753   5.560   4.729   0.881  1.6373  1.2211 -0.5303
  446TIP3    H222754   5.671   4.646   0.821  0.5433 -1.0879  0.5704
  447TIP3   OH222755   4.082   3.780  11.239  0.0508  0.1191 -0.4577
  447TIP3    H122756   4.063   3.711  11.302 -0.2315 -0.1226 -0.8031
  447TIP3    H222757   4.073   3.862  11.288  2.0858 -0.1393  0.3864
  448TIP3   OH222758   3.899   0.094   1.913 -0.4171 -0.6388 -0.2387
  448TIP3    H122759   3.838   0.159   1.947  1.4309  0.8258  0.3288
  448TIP3    H222760   3.966   0.085   1.981  1.1692 -0.6274 -1.7562
  449TIP3   OH222761   0.544   6.585   2.755 -0.2226  0.0065 -0.9125
  449TIP3    H122762   0.524   6.643   2.682 -0.7550 -0.8931 -1.4782
  449TIP3    H222763   0.582   6.644   2.822 -2.4122  1.3130 -0.7753
  450TIP3   OH222764   3.002   1.851  15.367  0.0327 -0.0731  0.0461
  450TIP3    H122765   2.926   1.885  15.415 -1.4473 -2.6917 -0.3547
  450TIP3    H222766   2.999   1.756  15.382  2.0291 -0.4426 -1.7154
  451TIP3   OH222767   3.564   5.029   0.700  0.4869  0.2905 -0.1377
  451TIP3    H122768   3.576   5.039   0.606  3.0148 -0.9231  0.0057
  451TIP3    H222769   3.506   5.101   0.725 -0.3199  0.5308 -2.6316
  452TIP3   OH222770   3.702   1.704   2.639  0.2095  0.2582  0.1420
  452TIP3    H122771   3.716   1.647   2.563 -0.4389  0.8984 -0.4658
  452TIP3    H222772   3.729   1.791   2.608  3.7952 -0.1354  1.8716
  453TIP3   OH222773   1.648   4.448   2.540 -0.4876  0.6006 -0.0590
  453TIP3    H122774   1.662   4.365   2.496 -1.6119  0.8607 -0.9367
  453TIP3    H222775   1.712   4.449   2.611 -0.2729 -0.8789 -0.2215
  454TIP3   OH222776   5.546   3.135   4.626  0.1930 -0.1987 -0.3637
  454TIP3    H122777   5.514   3.166   4.542 -0.1002  1.1187  0.2283
  454TIP3    H222778   5.618   3.193   4.648 -0.9287  0.6520  1.1629
  455TIP3   OH222779   0.634   3.330   1.247  0.0656 -0.0567 -0.6752
  455TIP3    H122780   0.700   3.362   1.308  0.4063  0.9271 -1.5532
  455TIP3    H222781   0.621   3.238   1.272  0.4068  0.2634  0.6824
  456TIP3   OH222782   2.285   0.475  17.067 -0.1003 -0.3632  0.5648
  456TIP3    H122783   2.377   0.471  17.093  0.3760 -0.3739 -1.0278
  456TIP3    H222784   2.263   0.385  17.046  0.0811 -0.0919 -0.8357
  457TIP3   OH222785   6.392   6.348  11.063 -0.1486  0.2153 -0.1123
  457TIP3    H122786   6.297   6.349  11.054 -0.0296 -0.5157 -1.6785
  457TIP3    H222787   6.419   6.264  11.025  1.0829  0.1903  0.7594
  458TIP3   OH222788   5.123   5.011   4.221 -0.1843  0.2577 -0.0802
  458TIP3    H122789   5.103   5.065   4.145  0.1760  1.1172  0.4287
  458TIP3    H222790   5.038   4.983   4.254 -0.3818  0.7526 -0.1724
  459TIP3   OH222791   5.623   4.593  12.657  0.1658 -0.0315 -0.2173
  459TIP3    H122792   5.700   4.647  12.640  0.8749 -0.6453  0.9418
  459TIP3    H222793   5.580   4.584  12.572 -0.5225  3.1684 -0.2618
  460TIP3   OH222794   5.988   5.217  16.362 -0.1280 -0.2641  0.0856
  460TIP3    H122795   5.915   5.155  16.354  1.5251 -2.2926  0.4160
  460TIP3    H222796   5.951   5.291  16.410 -2.2202 -0.8426 -0.5841
  461TIP3   OH222797   5.099   2.678  16.549 -0.5174  0.7181  0.4181
  461TIP3    H122798   5.126   2.660  16.638 -0.0662  0.2031  0.1718
  461TIP3    H222799   5.004   2.693  16.556 -0.8036 -1.0909  0.7197
  462TIP3   OH222800   4.828   5.374   4.486 -0.5905 -0.0250 -0.0231
  462TIP3    H122801   4.847   5.403   4.575 -1.2496 -0.7035  0.3334
  462TIP3    H222802   4.855   5.282   4.484  3.0477  0.9707 -1.6208
  463TIP3   OH222803   0.192   4.758  16.868  0.2845  0.2014  0.2942
  463TIP3    H122804   0.142   4.831  16.832 -0.8092 -0.2850  0.8047
  463TIP3    H222805   0.282   4.792  16.876 -0.0939  1.2931 -0.0098
  464TIP3   OH222806   5.979   4.763  14.905  0.8075 -0.3663  0.5945
  464TIP3    H122807   5.888   4.750  14.879  0.9327 -1.2855  0.5798
  464TIP3    H222808   6.028   4.702  14.850  1.2884 -0.8040  1.4922
  465TIP3   OH222809   1.016   1.631  15.469 -0.5203  0.4695 -0.3445
  465TIP3    H122810   1.090   1.662  15.417  0.6257 -1.0038  0.3855
  465TIP3    H222811   1.010   1.693  15.542  0.7097 -0.0553  0.2036
  466TIP3   OH222812   1.595   4.956   0.472 -0.4465 -0.1556  0.1077
  466TIP3    H122813   1.559   5.017   0.409 -2.3076 -0.3005  1.0137
  466TIP3    H222814   1.678   4.928   0.433  0.2254  2.5800 -0.5119
  467TIP3   OH222815   6.294   0.717   3.214  0.0874 -0.0049 -0.2401
  467TIP3    H122816   6.211   0.762   3.198 -0.0498 -0.7168 -1.6194
  467TIP3    H222817   6.285   0.633   3.169  1.5081 -0.1328 -0.3137
  468TIP3   OH222818   0.401   5.703   2.838 -0.7305 -0.1375 -0.2625
  468TIP3    H122819   0.325   5.648   2.856  0.1130 -1.2119  0.0596
  468TIP3    H222820   0.432   5.731   2.924  0.5978 -1.5719 -0.2636
  469TIP3   OH222821   0.696   3.663  11.233  0.9099 -0.5299 -0.2452
  469TIP3    H122822   0.632   3.612  11.282 -0.8834  1.7657 -0.1406
  469TIP3    H222823   0.717   3.737  11.291  0.7360  0.7946 -1.8360
  470TIP3   OH222824   3.458   4.363  16.004 -0.2313 -0.1320 -0.2924
  470TIP3    H122825   3.508   4.344  15.924  3.0943 -1.1558  1.9169
  470TIP3    H222826   3.446   4.277  16.044  1.3497  0.7053  2.0774
  471TIP3   OH222827   3.730   0.746   2.262  0.0819 -0.0349 -0.7024
  471TIP3    H122828   3.787   0.738   2.339  0.7852 -0.5871 -1.2664
  471TIP3    H222829   3.777   0.806   2.204 -1.5551  2.2480  0.2607
  472TIP3   OH222830   4.662   5.475   2.204 -0.6242  0.1651 -0.0373
  472TIP3    H122831   4.675   5.380   2.196  1.5537  0.4620 -0.3712
  472TIP3    H222832   4.705   5.498   2.287 -2.1436  0.7095  0.6216
  473TIP3   OH222833   6.260   3.346  14.247 -0.2670 -0.7361  0.9517
  473TIP3    H122834   6.325   3.395  14.296  0.6339  0.7813 -1.6451
  473TIP3    H222835   6.246   3.266  14.298  2.7517 -0.5592  2.1591
  474TIP3   OH222836   4.324   1.479  15.658 -0.3393 -0.0878 -0.4103
  474TIP3    H122837   4.301   1.414  15.724 -1.9937 -0.0577 -0.9275
  474TIP3    H222838   4.324   1.563  15.704  0.2862 -0.2772 -0.0674
  475TIP3   OH222839   6.391   2.899   3.981 -0.1494 -0.0826 -0.2455
  475TIP3    H122840   6.381   2.865   3.892  1.7741 -1.9486  0.2070
  475TIP3    H222841   6.486   2.899   3.996 -0.3576  1.8831  1.1837
  476TIP3   OH222842   1.969   0.487  15.125  0.0631 -0.3366 -0.8442
  476TIP3    H122843   2.029   0.506  15.052  2.7091 -1.7473  0.9003
  476TIP3    H222844   1.969   0.392  15.133  0.5463 -0.1609  1.5905
  477TIP3   OH222845   0.575   2.480   4.975  0.0991  0.2724  0.0032
  477TIP3    H122846   0.572   2.537   4.898 -1.4385 -0.4804 -0.5350
  477TIP3    H222847   0.639   2.412   4.951 -0.5951 -0.1337 -0.7706
  478TIP3   OH222848   0.576   0.490  15.509 -0.2010 -0.3723  0.0560
  478TIP3    H122849   0.551   0.557  15.573 -1.3936 -1.0264  0.3053
  478TIP3    H222850   0.632   0.430  15.558 -1.2120 -0.9406  0.5444
  479TIP3   OH222851   4.108   5.092  16.809 -0.3987  0.1353 -0.5074
  479TIP3    H122852   4.173   5.161  16.821  0.6244 -0.9157  0.0581
  479TIP3    H222853   4.111   5.072  16.715 -0.6140  0.7687 -0.6485
  480TIP3   OH222854   5.025   6.335   3.904 -0.2092 -0.0898 -0.0751
  480TIP3    H122855   5.058   6.381   3.981 -1.0398  1.2582 -0.5176
  480TIP3    H222856   5.102   6.319   3.850 -0.0357  1.4844 -0.2934
  481TIP3   OH222857   5.907   3.347   2.090 -0.5309 -0.4392 -0.3513
  481TIP3    H122858   5.982   3.380   2.040 -0.6939 -0.3411 -0.5290
  481TIP3    H222859   5.934   3.357   2.181 -0.2077 -0.6786 -0.4168
  482TIP3   OH222860   5.846   3.561  14.424 -0.0116 -0.0167 -0.0420
  482TIP3    H122861   5.795   3.480  14.419  0.2407 -0.1984  0.3477
  482TIP3    H222862   5.899   3.552  14.503 -1.2084  1.2526  0.9120
  483TIP3   OH222863   5.830   2.355  15.339 -0.7974  0.0497 -0.4270
  483TIP3    H122864   5.887   2.284  15.370 -2.0141 -0.6225  0.2981
  483TIP3    H222865   5.786   2.317  15.262  1.9181  1.5710 -2.8518
  484TIP3   OH222866   5.583   1.295   4.925 -0.1725 -0.4973  0.4039
  484TIP3    H122867   5.519   1.278   4.994  1.5275 -1.9537  1.6888
  484TIP3    H222868   5.625   1.210   4.910 -0.8816 -0.3363 -2.8354
  485TIP3   OH222869   6.074   6.048   1.287 -0.1784 -0.1071 -0.6938
  485TIP3    H122870   6.126   6.078   1.362 -1.1468  3.0970 -1.2532
  485TIP3    H222871   6.139   6.011   1.227  1.1594  1.4157 -0.2188
  486TIP3   OH222872   5.668   5.842  12.081  0.1294 -0.1915 -0.4607
  486TIP3    H122873   5.736   5.900  12.046 -1.0341  0.3538 -1.9095
  486TIP3    H222874   5.688   5.833  12.174  0.2118  2.7205 -0.1635
  487TIP3   OH222875   4.185   3.333  12.642  0.2391 -0.2531 -0.2337
  487TIP3    H122876   4.211   3.320  12.551 -0.6450  2.7754 -0.9759
  487TIP3    H222877   4.090   3.343  12.638  0.2769  0.6112  0.9064
  488TIP3   OH222878   2.860   5.529   5.253  0.5615 -0.2143  0.3787
  488TIP3    H122879   2.825   5.618   5.244  1.0661  0.0235  0.7150
  488TIP3    H222880   2.813   5.493   5.328  0.5748 -0.1258  0.4297
  489TIP3   OH222881   4.138   2.234   2.037 -0.5013 -0.2535  0.2081
  489TIP3    H122882   4.153   2.316   1.991  0.9673  0.3760  1.7794
  489TIP3    H222883   4.125   2.259   2.128 -0.1898 -1.7548  0.6775
  490TIP3   OH222884   3.129   2.406   0.178 -0.3612 -0.1316  0.2904
  490TIP3    H122885   3.043   2.405   0.135 -1.2497  0.2546  2.0038
  490TIP3    H222886   3.161   2.495   0.166 -0.8993  0.1600  0.9624
  491TIP3   OH222887   5.672   5.354  12.892  0.2881 -0.0310 -0.1807
  491TIP3    H122888   5.716   5.323  12.971 -0.5509 -0.1552  0.2467
  491TIP3    H222889   5.617   5.281  12.865 -0.2346  0.3893 -0.2712
  492TIP3   OH222890   2.947   6.177  16.974 -0.3971  0.5165  0.3904
  492TIP3    H122891   3.023   6.195  16.919 -1.5203  0.3689 -1.2513
  492TIP3    H222892   2.921   6.088  16.950 -1.6259  0.8969  0.3015
  493TIP3   OH222893   2.416   1.717   0.993  0.4916 -0.1468 -0.4672
  493TIP3    H122894   2.422   1.624   1.018 -0.9005  0.3166  1.7464
  493TIP3    H222895   2.490   1.758   1.036  0.4751 -0.0523 -0.5299
  494TIP3   OH222896   6.253   3.800   2.831 -0.2368  0.0794  0.9553
  494TIP3    H122897   6.161   3.781   2.847 -0.5250 -0.2470 -0.9859
  494TIP3    H222898   6.254   3.891   2.801 -0.2033 -0.6197 -1.2288
  495TIP3   OH222899   1.709   6.555  11.811 -0.0230  1.0872  0.1428
  495TIP3    H122900   1.631   6.592  11.852 -0.6947 -1.1493  0.9835
  495TIP3    H222901   1.715   6.466  11.848  2.5696  1.0183 -0.3711
  496TIP3   OH222902   5.588   6.762  15.738  0.2931 -0.2106 -0.5422
  496TIP3    H122903   5.604   6.721  15.823  0.3572 -0.7814 -0.8290
  496TIP3    H222904   5.636   6.844  15.742  0.0559 -0.0981  0.0846
  497TIP3   OH222905   5.561   0.254   3.112 -0.1463 -0.2514  0.0396
  497TIP3    H122906   5.569   0.308   3.034 -0.9014  0.5743  0.5273
  497TIP3    H222907   5.594   0.168   3.086 -0.1262  0.1036 -1.0990
  498TIP3   OH222908   5.306   6.255  15.241 -0.4407  0.1250 -0.0636
  498TIP3    H122909   5.340   6.169  15.217 -0.7741 -0.1430  0.4027
  498TIP3    H222910   5.383   6.305  15.268 -0.3291 -0.2541  0.3228
  499TIP3   OH222911   3.155   5.019   1.542 -0.2496  0.3725 -0.0670
  499TIP3    H122912   3.114   5.021   1.455 -1.6112 -2.7033  0.4292
  499TIP3    H222913   3.208   4.939   1.541 -0.8341 -0.0610  2.1497
  500TIP3   OH222914   5.183   0.812   4.818  0.1316  0.0570 -0.2990
  500TIP3    H122915   5.141   0.898   4.814 -1.0896 -0.5406 -0.6643
  500TIP3    H222916   5.176   0.778   4.729  1.1633 -0.1589 -0.2967
  501TIP3   OH222917   0.649   6.188  16.913 -0.7788  0.4116 -0.0863
  501TIP3    H122918   0.699   6.269  16.921  0.1344 -0.0544 -1.0030
  501TIP3    H222919   0.671   6.139  16.992 -0.9235  0.8210  0.2154
  502TIP3   OH222920   2.638   5.964  13.566  0.2223 -0.3561 -0.2836
  502TIP3    H122921   2.593   6.011  13.496  0.6883  0.8916  0.2423
  502TIP3    H222922   2.609   5.874  13.557  0.6403 -0.2950 -2.3829
  503TIP3   OH222923   0.030   5.911   0.683  0.0087 -0.1113 -0.3288
  503TIP3    H122924   0.096   5.970   0.719  1.4405 -1.4956 -0.5892
  503TIP3    H222925  -0.003   5.863   0.759  0.9993 -1.0420 -0.4621
  504TIP3   OH222926   3.484   3.553   4.342 -0.4934  0.3757  0.3442
  504TIP3    H122927   3.470   3.491   4.271 -2.0324  0.3353  0.6665
  504TIP3    H222928   3.570   3.530   4.378 -1.4744 -2.2064  1.1082
  505TIP3   OH222929   3.913   4.504   4.971 -0.5627  0.3614  0.9579
  505TIP3    H122930   3.999   4.537   4.948 -0.3848  0.0524  1.1800
  505TIP3    H222931   3.923   4.469   5.059 -0.3549 -1.7541  0.1174
  506TIP3   OH222932   2.791   1.398  16.693 -0.2328  0.1208 -0.3926
  506TIP3    H122933   2.815   1.482  16.653  0.2569 -0.0835 -0.5381
  506TIP3    H222934   2.873   1.365  16.729 -0.4057 -0.3360 -0.4124
  507TIP3   OH222935   3.099   2.963  15.067  0.0477  0.1372 -0.6690
  507TIP3    H122936   3.147   3.033  15.023  1.1841  0.4194  0.9389
  507TIP3    H222937   3.012   3.000  15.084  0.5302  1.0606 -0.1444
  508TIP3   OH222938   3.018   0.925  16.916 -0.0908 -0.6631  0.2061
  508TIP3    H122939   3.104   0.956  16.889 -0.5160  0.5114  0.2117
  508TIP3    H222940   3.036   0.843  16.962  1.2699  0.8644  2.4694
  509TIP3   OH222941   4.562   1.775  10.771 -0.1175 -0.4443  0.2843
  509TIP3    H122942   4.646   1.732  10.757  0.9979  1.4195  1.0568
  509TIP3    H222943   4.549   1.828  10.693  0.3487  0.7278  0.9942
  510TIP3   OH222944   4.578   4.610   1.249 -0.8152 -0.1136 -0.4722
  510TIP3    H122945   4.607   4.534   1.299  0.2348  0.6055  0.0279
  510TIP3    H222946   4.515   4.653   1.306  0.5452  0.8265  0.3425
  511TIP3   OH222947   6.249   3.455  12.911 -0.3050  0.2433  0.4666
  511TIP3    H122948   6.183   3.430  12.846  1.1191 -1.1824 -0.4654
  511TIP3    H222949   6.210   3.431  12.995 -1.6634  0.9722  0.0662
  512TIP3   OH222950   3.561   6.371  12.276  0.7710 -0.8111  0.0092
  512TIP3    H122951   3.633   6.344  12.220  0.2517 -2.9235  0.3074
  512TIP3    H222952   3.482   6.344  12.229  0.2060  0.2371  0.3185
  513TIP3   OH222953   6.288   0.476   3.084  0.2799 -0.6377 -0.3472
  513TIP3    H122954   6.340   0.460   3.005 -1.2272 -0.4087 -1.3982
  513TIP3    H222955   6.199   0.489   3.052 -0.6459 -2.1868  1.5556
  514TIP3   OH222956   5.785   4.080   6.072  0.2001  0.2285 -0.0341
  514TIP3    H122957   5.795   4.043   6.160 -0.3176  0.6582  0.2150
  514TIP3    H222958   5.710   4.033   6.034 -1.7258  2.3386  1.0245
  515TIP3   OH222959   5.032   2.018  12.321  0.3099  0.4633  1.1729
  515TIP3    H122960   4.938   2.005  12.310  0.2138  1.0069  1.2935
  515TIP3    H222961   5.051   1.985  12.409  0.4693 -0.8209  0.6664
  516TIP3   OH222962   1.505   3.004   0.140  0.2627 -0.1722  0.1109
  516TIP3    H122963   1.453   2.924   0.143  0.4113 -0.2576  0.3587
  516TIP3    H222964   1.523   3.017   0.047  1.7443 -1.3948  0.2070
  517TIP3   OH222965   3.436   2.351   3.996 -0.1914  0.0017 -0.5852
  517TIP3    H122966   3.349   2.339   4.035 -0.5536  1.2460 -0.9854
  517TIP3    H222967   3.420   2.405   3.918  0.8898 -0.0945 -0.8811
  518TIP3   OH222968   1.160   3.160   0.097  0.3920  0.2990  0.0468
  518TIP3    H122969   1.163   3.220   0.022 -0.7068  0.9061  0.4679
  518TIP3    H222970   1.168   3.073   0.059  2.6186  0.7190 -0.5254
  519TIP3   OH222971   0.130   0.218   3.330  0.4564 -0.3741 -0.5560
  519TIP3    H122972   0.173   0.259   3.255 -1.2554  1.8321 -0.3819
  519TIP3    H222973   0.050   0.269   3.343 -0.8146 -2.6076  0.8912
  520TIP3   OH222974   0.786   4.687  14.312  0.1985 -0.1152  0.3699
  520TIP3    H122975   0.877   4.676  14.286 -0.0608 -1.3310 -0.0461
  520TIP3    H222976   0.765   4.607  14.361 -0.0884  0.9849  2.1060
  521TIP3   OH222977   3.660   4.817  13.640  0.2010 -0.7978 -0.1255
  521TIP3    H122978   3.638   4.866  13.561  0.1188 -0.8182 -0.1144
  521TIP3    H222979   3.629   4.872  13.712  1.2875 -0.2500 -0.0671
  522TIP3   OH222980   4.475   0.821   3.487 -0.6233 -0.0227 -0.0232
  522TIP3    H122981   4.553   0.817   3.543 -0.1777 -0.8578 -0.6881
  522TIP3    H222982   4.403   0.798   3.545 -0.4693  1.4105  0.7626
  523TIP3   OH222983   0.639   2.375  13.093 -0.1380  0.1265  0.8270
  523TIP3    H122984   0.670   2.463  13.074  0.1497 -0.2988 -0.7601
  523TIP3    H222985   0.550   2.387  13.125  0.2029  1.0526  1.4331
  524TIP3   OH222986   1.768   0.721   4.418  0.0457 -0.5031  1.1097
  524TIP3    H122987   1.762   0.796   4.359 -2.3581 -2.7064 -1.5533
  524TIP3    H222988   1.695   0.732   4.478 -0.9436 -1.2330  0.0560
  525TIP3   OH222989   1.694   2.658  12.467  0.1315 -0.4034 -0.3795
  525TIP3    H122990   1.643   2.621  12.539  0.4961  0.5456  0.3756
  525TIP3    H222991   1.781   2.620  12.477  0.4166  0.3960  0.1997
  526TIP3   OH222992   4.891   4.656  14.903  0.1541  0.5859 -0.3516
  526TIP3    H122993   4.917   4.565  14.885  0.1200  0.7048 -1.0317
  526TIP3    H222994   4.795   4.654  14.897  0.0371  0.2993  1.4175
  527TIP3   OH222995   3.880   2.358   0.865  0.0056 -0.3954  0.6859
  527TIP3    H122996   3.954   2.310   0.827 -1.3126 -1.2106 -0.9228
  527TIP3    H222997   3.870   2.435   0.810  1.1559  0.9987  2.3630
  528TIP3   OH222998   2.093   1.984   5.247 -0.2025  0.0853  0.0050
  528TIP3    H122999   2.142   1.940   5.316  0.0745 -0.6737 -0.6774
  528TIP3    H223000   2.105   2.078   5.266 -0.3460 -0.1089  1.1290
  529TIP3   OH223001   6.655   4.480  12.700  0.0964  0.1519  0.4002
  529TIP3    H123002   6.722   4.521  12.755  1.1759 -2.3999  1.0650
  529TIP3    H223003   6.704   4.420  12.643 -1.3634  0.2334 -0.9630
  530TIP3   OH223004   4.259   6.436   2.811  0.0601 -0.0253 -0.0122
  530TIP3    H123005   4.246   6.527   2.839 -2.0606 -0.6549  1.1797
  530TIP3    H223006   4.173   6.410   2.776  0.7468 -1.4725 -0.6452
  531TIP3   OH223007   0.148   5.270  16.841 -0.0308  0.5138  0.4273
  531TIP3    H123008   0.102   5.347  16.873  0.3082  2.0029 -2.5004
  531TIP3    H223009   0.181   5.227  16.920 -1.1503  2.7675  2.1730
  532TIP3   OH223010   3.786   5.442   1.712 -0.0986  0.2087 -0.4434
  532TIP3    H123011   3.851   5.479   1.652  0.5315 -1.2152 -0.6431
  532TIP3    H223012   3.838   5.398   1.779 -0.8543 -0.3852 -0.2455
  533TIP3   OH223013   3.043   3.245  15.630 -0.1478 -0.2198  0.2763
  533TIP3    H123014   2.970   3.254  15.691 -0.7237 -0.0867 -0.4228
  533TIP3    H223015   3.035   3.155  15.597  0.4576 -0.4541  0.7737
  534TIP3   OH223016   2.279   6.173  16.363 -0.2058  0.0985 -0.2618
  534TIP3    H123017   2.217   6.103  16.385  0.5932 -0.2646  0.9085
  534TIP3    H223018   2.288   6.223  16.444  1.1283  0.0537 -0.3653
  535TIP3   OH223019   4.562   5.722   5.501 -0.6214 -0.7034 -0.1271
  535TIP3    H123020   4.503   5.793   5.526  1.1389  0.0476  2.0739
  535TIP3    H223021   4.533   5.648   5.553  0.6180 -0.2056  1.3124
  536TIP3   OH223022   1.295   3.853  16.775  0.5086 -0.0774  0.3165
  536TIP3    H123023   1.216   3.826  16.821  0.3759 -0.0982  0.0747
  536TIP3    H223024   1.315   3.780  16.716 -1.5207  1.5795 -2.5101
  537TIP3   OH223025   0.592   5.311   0.502  0.6878  0.0120 -0.3362
  537TIP3    H123026   0.585   5.318   0.597 -0.7263 -1.2133 -0.3345
  537TIP3    H223027   0.510   5.269   0.475  1.0123  0.4770 -2.1130
  538TIP3   OH223028   0.044   6.265  16.800 -0.0857 -0.1880 -0.3991
  538TIP3    H123029   0.021   6.255  16.708 -1.1776 -1.1289 -0.0405
  538TIP3    H223030  -0.023   6.325  16.834  0.6644  0.6215 -0.3528
  539TIP3   OH223031   2.503   2.107  14.150  0.2094  0.2305 -0.3110
  539TIP3    H123032   2.432   2.058  14.109 -1.1765  2.5656 -0.8474
  539TIP3    H223033   2.574   2.105  14.085 -0.5502  0.5955 -1.1610
  540TIP3   OH223034   3.310   2.966  12.062 -0.2840 -0.5654  0.6782
  540TIP3    H123035   3.338   2.893  12.116  0.3374 -1.1715 -0.4518
  540TIP3    H223036   3.303   2.930  11.974 -0.4590  0.6168  0.1945
  541TIP3   OH223037   4.790   4.530   0.906  0.3604  0.3084 -0.1361
  541TIP3    H123038   4.864   4.575   0.865  1.5376 -1.4485 -0.0013
  541TIP3    H223039   4.830   4.456   0.953 -1.4693 -0.6893 -0.0935
  542TIP3   OH223040   5.210   5.225   3.766 -0.0797  0.3015  0.3043
  542TIP3    H123041   5.131   5.186   3.728  0.4679 -0.1817 -0.3669
  542TIP3    H223042   5.282   5.175   3.726  0.5053 -0.5078  2.3294
  543TIP3   OH223043   3.447   5.805  16.171  0.0027  0.3338 -0.5858
  543TIP3    H123044   3.537   5.793  16.202 -0.5543  0.0021  0.9851
  543TIP3    H223045   3.415   5.716  16.156 -0.4081  0.3937 -0.0799
  544TIP3   OH223046   1.328   0.087  11.190  0.0889 -0.1303 -0.3004
  544TIP3    H123047   1.280   0.144  11.130  1.8002  2.1538  0.4171
  544TIP3    H223048   1.370   0.022  11.133  0.0345  0.7645 -1.3836
  545TIP3   OH223049   6.313   1.755   2.761  0.4149  0.5418 -0.2209
  545TIP3    H123050   6.313   1.839   2.715 -0.9163  1.2229  0.9626
  545TIP3    H223051   6.368   1.770   2.838 -0.2301  0.5026  0.2562
  546TIP3   OH223052   4.686   4.528  11.172 -0.0121  0.6430 -0.3309
  546TIP3    H123053   4.682   4.461  11.240 -1.9688  0.2992 -0.7495
  546TIP3    H223054   4.752   4.590  11.203  0.0791 -0.2102  1.2310
  547TIP3   OH223055   5.051   4.672   2.040  0.0856 -0.1774 -0.3653
  547TIP3    H123056   4.985   4.682   1.972  0.7060 -0.2032 -0.9849
  547TIP3    H223057   5.114   4.742   2.023  1.4230 -1.5471 -1.2061
  548TIP3   OH223058   1.807   6.741   1.052 -0.0190 -0.0807  0.1682
  548TIP3    H123059   1.715   6.744   1.080  0.1368  1.4911  0.5604
  548TIP3    H223060   1.805   6.764   0.959 -0.0201  0.0639  0.2032
  549TIP3   OH223061   5.104   6.592   3.751 -0.2434 -0.1605  0.0946
  549TIP3    H123062   5.085   6.549   3.834 -0.7065 -1.2650 -0.5640
  549TIP3    H223063   5.159   6.529   3.704 -1.9728 -0.6036 -1.3925
  550TIP3   OH223064   3.259   5.890   0.823  0.1114  0.5416  0.0842
  550TIP3    H123065   3.324   5.827   0.792 -0.9363 -0.2439 -0.5300
  550TIP3    H223066   3.222   5.927   0.743 -0.3320  0.8479  0.4281
  551TIP3   OH223067   4.490   4.596   2.769 -0.3247 -0.6995 -0.3556
  551TIP3    H123068   4.582   4.572   2.777 -0.6776 -2.2478 -0.7299
  551TIP3    H223069   4.442   4.522   2.807 -1.4004  0.3722  0.4295
  552TIP3   OH223070   2.860   2.075  16.752  0.2551  0.3085 -0.1125
  552TIP3    H123071   2.817   2.158  16.772 -2.7296 -1.5416  1.5586
  552TIP3    H223072   2.904   2.051  16.834  1.1934  0.2877 -0.6194
  553TIP3   OH223073   4.202   4.562   3.066 -0.0722 -0.3317 -0.2239
  553TIP3    H123074   4.261   4.510   3.011 -0.4020 -1.3436  0.3658
  553TIP3    H223075   4.227   4.539   3.156 -1.4536 -0.8655  0.0288
  554TIP3   OH223076   5.535   6.272   0.169  0.2530 -0.0346 -0.3550
  554TIP3    H123077   5.575   6.354   0.196 -1.0109  0.9786 -1.4772
  554TIP3    H223078   5.530   6.278   0.073  0.9671 -1.8008 -0.5170
  555TIP3   OH223079   0.755   5.709   2.441  0.2792  0.0211  0.2615
  555TIP3    H123080   0.698   5.685   2.515 -0.5882  0.5256 -0.2298
  555TIP3    H223081   0.708   5.678   2.364  1.6521 -1.3984 -0.0320
  556TIP3   OH223082   6.272   3.581   5.457  0.0205 -0.0808  0.3743
  556TIP3    H123083   6.300   3.509   5.513 -3.4101 -1.3689  0.5372
  556TIP3    H223084   6.238   3.539   5.378 -0.2555  1.4436 -0.3441
  557TIP3   OH223085   1.094   2.819  10.648  0.3070  0.4214 -0.3078
  557TIP3    H123086   1.135   2.751  10.595  1.9622 -0.3025  1.7858
  557TIP3    H223087   1.075   2.775  10.732  1.1126  2.4429  0.9567
  558TIP3   OH223088   0.495   2.562  14.020  0.7656 -0.3069 -0.1617
  558TIP3    H123089   0.572   2.520  13.983  2.1757  1.1244  1.0360
  558TIP3    H223090   0.506   2.552  14.115 -0.2615  0.3378  0.0330
  559TIP3   OH223091   5.252   0.121  14.716 -0.0127  0.4996 -0.3860
  559TIP3    H123092   5.301   0.163  14.787 -3.0418  0.2901  1.9440
  559TIP3    H223093   5.169   0.169  14.712  0.0200  0.3792 -3.7128
  560TIP3   OH223094   4.596   3.313   5.538  0.3070  0.4060  0.3367
  560TIP3    H123095   4.511   3.306   5.581 -0.1678 -1.6958 -0.8696
  560TIP3    H223096   4.660   3.293   5.606 -0.2436  0.4375  0.8646
  561TIP3   OH223097   3.716   6.294   3.746  0.0434 -0.1371  0.0089
  561TIP3    H123098   3.659   6.227   3.708 -2.5062 -0.8804  4.7611
  561TIP3    H223099   3.804   6.273   3.712 -1.1903 -3.9481 -1.0469
  562TIP3   OH223100   1.854   6.116  11.774 -0.2368  0.6195  0.8892
  562TIP3    H123101   1.768   6.154  11.757 -0.0921  0.7558  0.4431
  562TIP3    H223102   1.879   6.149  11.861 -1.1364 -0.3535  1.5260
  563TIP3   OH223103   1.669   0.753  14.435  0.3938  0.5719  0.2662
  563TIP3    H123104   1.762   0.759  14.458  0.5894 -0.4030 -0.2583
  563TIP3    H223105   1.663   0.793  14.349  0.5470 -0.5141 -0.2553
  564TIP3   OH223106   1.861   2.714   0.523  0.2342 -0.0424 -0.0638
  564TIP3    H123107   1.816   2.638   0.485 -0.9567  0.0713  1.0631
  564TIP3    H223108   1.877   2.772   0.449  0.1950 -0.9130 -0.7728
  565TIP3   OH223109   5.111   0.950   0.739 -0.1498 -0.8692 -0.1931
  565TIP3    H123110   5.159   0.873   0.709  1.1790 -0.6331  1.2486
  565TIP3    H223111   5.083   0.928   0.828 -1.3179 -0.3555 -0.4175
  566TIP3   OH223112   3.657   0.871  15.472  0.5920  0.3381 -0.7571
  566TIP3    H123113   3.586   0.932  15.487  2.0333  1.6858  0.8116
  566TIP3    H223114   3.724   0.922  15.427  0.8703 -0.7140 -1.5634
  567TIP3   OH223115   0.962   2.342   2.378 -0.7890  0.0129  0.0445
  567TIP3    H123116   1.026   2.282   2.418 -0.6329  1.2562  1.6941
  567TIP3    H223117   0.887   2.286   2.357  0.3771 -1.2448 -0.8355
  568TIP3   OH223118   4.597   3.181   3.587 -0.3626 -0.6933  0.0576
  568TIP3    H123119   4.661   3.216   3.649 -0.4464 -1.0051  0.3167
  568TIP3    H223120   4.575   3.256   3.531  1.6336 -1.0203 -1.2330
  569TIP3   OH223121   6.668   2.347   5.633 -0.1759  0.6506  0.5297
  569TIP3    H123122   6.723   2.424   5.618 -1.4376  1.3566 -0.5872
  569TIP3    H223123   6.687   2.289   5.558 -1.0040  0.9260  0.1094
  570TIP3   OH223124   4.351   2.023  12.967 -0.1854 -0.1511 -0.1728
  570TIP3    H123125   4.370   1.999  13.058  0.1193  1.5332  0.2297
  570TIP3    H223126   4.429   1.996  12.918  0.0224 -0.2735  0.2260
  571TIP3   OH223127   4.427   3.075   0.838 -0.3236 -0.3977 -0.1207
  571TIP3    H123128   4.348   3.128   0.847  0.8402  1.8458 -2.6236
  571TIP3    H223129   4.497   3.130   0.871  0.6506 -1.1746 -0.8601
  572TIP3   OH223130   0.156   5.998   1.536  1.3552  0.7985  0.5644
  572TIP3    H123131   0.142   6.004   1.631  2.3251  2.4868  0.6230
  572TIP3    H223132   0.224   5.932   1.526 -0.7519 -1.4653  0.8355
  573TIP3   OH223133   1.705   5.556  12.125 -0.4984  0.0907  0.1630
  573TIP3    H123134   1.716   5.490  12.056 -1.0648  1.2891 -1.0983
  573TIP3    H223135   1.732   5.511  12.205 -2.1881 -2.1104 -0.4546
  574TIP3   OH223136   2.816   3.545  16.041 -0.7903  0.0838 -0.4772
  574TIP3    H123137   2.883   3.480  16.023 -1.2548 -0.4477 -0.3072
  574TIP3    H223138   2.862   3.629  16.040 -0.2713 -0.2051 -1.1368
  575TIP3   OH223139   6.378   4.644   3.784  0.2224 -0.0609 -0.1192
  575TIP3    H123140   6.437   4.584   3.738 -0.8411 -1.8380  0.7748
  575TIP3    H223141   6.322   4.587   3.836 -0.9410  1.7207  0.6269
  576TIP3   OH223142   1.150   2.178  14.477 -0.1937 -0.0468 -0.0648
  576TIP3    H123143   1.089   2.133  14.536  1.2820 -0.2206  1.3629
  576TIP3    H223144   1.232   2.182  14.526  0.5599  1.4424 -1.4006
  577TIP3   OH223145   4.723   5.955  13.367 -0.1756 -0.7047 -0.3766
  577TIP3    H123146   4.752   5.871  13.401  0.0909 -1.3996 -2.2542
  577TIP3    H223147   4.628   5.952  13.373 -0.1676 -1.1545 -0.4744
  578TIP3   OH223148   4.455   5.832  14.797 -0.0809 -0.1475 -0.0844
  578TIP3    H123149   4.516   5.829  14.723 -1.0267  0.1580 -0.8694
  578TIP3    H223150   4.389   5.895  14.772 -0.4808 -0.1385  0.9763
  579TIP3   OH223151   5.439   6.498  14.146 -0.0711 -0.3335  0.0620
  579TIP3    H123152   5.464   6.444  14.220  0.8771 -1.4229 -1.0222
  579TIP3    H223153   5.481   6.582  14.162  0.5043 -0.7072  0.5490
  580TIP3   OH223154   5.559   4.628   2.948 -0.8795  0.3448  0.6401
  580TIP3    H123155   5.565   4.710   2.898 -0.2884  0.7299  1.3434
  580TIP3    H223156   5.534   4.656   3.036  0.7671 -0.1069  1.2657
  581TIP3   OH223157   3.822   5.603   4.509  0.0491 -0.1009 -0.1777
  581TIP3    H123158   3.861   5.520   4.480 -0.1056 -0.2415  0.0164
  581TIP3    H223159   3.897   5.656   4.538  0.1492 -0.1675 -0.3176
  582TIP3   OH223160   4.068   5.982   4.157 -0.5718 -0.7685  0.0175
  582TIP3    H123161   4.058   6.072   4.189 -1.2541 -0.6900 -0.4171
  582TIP3    H223162   4.099   5.992   4.067  0.4618 -0.9834  0.3438
  583TIP3   OH223163   1.604   0.972   0.064  0.4395 -0.1522  0.4063
  583TIP3    H123164   1.652   0.954  -0.017 -0.6225  1.1582 -0.5409
  583TIP3    H223165   1.672   0.989   0.129  1.3994 -3.8857  0.5051
  584TIP3   OH223166   0.002   4.585   5.901 -0.0575  0.2709 -0.4466
  584TIP3    H123167   0.030   4.594   5.810  1.0148  2.2407  0.0490
  584TIP3    H223168   0.058   4.516   5.937 -1.0871 -1.1339 -1.4878
  585TIP3   OH223169   6.126   4.384  12.780 -0.2464  0.4115 -0.3319
  585TIP3    H123170   6.079   4.422  12.706 -1.9687  0.5062  0.7860
  585TIP3    H223171   6.214   4.421  12.774 -1.4557  3.4040 -0.1165
  586TIP3   OH223172   4.057   4.948   2.399  0.2234 -0.8403  1.3768
  586TIP3    H123173   4.061   4.981   2.488 -1.0705 -0.0671  1.1490
  586TIP3    H223174   4.033   5.023   2.346  0.1209 -1.4959  0.4805
  587TIP3   OH223175   3.000   0.718   6.335 -0.3399 -0.2675  0.5007
  587TIP3    H123176   2.932   0.783   6.352  0.8833  1.4304 -0.9815
  587TIP3    H223177   3.017   0.724   6.241  1.1073 -1.4203  0.6658
  588TIP3   OH223178   0.889   1.775  11.673 -0.2286 -0.0423  0.1702
  588TIP3    H123179   0.895   1.856  11.622 -1.7712 -0.0234 -0.0068
  588TIP3    H223180   0.863   1.708  11.609  1.5755 -0.8104  0.1994
  589TIP3   OH223181   6.047   3.262  15.527  0.5263  0.0362 -0.3733
  589TIP3    H123182   6.080   3.243  15.615  1.6011 -2.8188 -1.3680
  589TIP3    H223183   5.963   3.307  15.543  1.6069  1.2692  2.0949
  590TIP3   OH223184   6.139   6.356  14.069  0.2351  0.1549 -0.3484
  590TIP3    H123185   6.094   6.377  14.150 -0.8019 -0.4343 -0.7646
  590TIP3    H223186   6.078   6.300  14.021  0.5126  1.1133 -1.8642
  591TIP3   OH223187   1.447   3.745   3.133  0.7419  0.2619 -0.5225
  591TIP3    H123188   1.377   3.789   3.085  0.8061 -1.0746 -1.8450
  591TIP3    H223189   1.496   3.817   3.174  0.2840  1.3658 -1.8807
  592TIP3   OH223190   0.533   3.387  15.006 -0.0664 -0.1008 -0.6765
  592TIP3    H123191   0.517   3.337  14.926  0.3839  0.2909 -1.0166
  592TIP3    H223192   0.561   3.473  14.975  1.3718 -0.3421 -0.1115
  593TIP3   OH223193   0.586   6.272  16.407  0.1462  0.3258  0.1505
  593TIP3    H123194   0.499   6.269  16.367 -0.3851 -0.7906  1.3591
  593TIP3    H223195   0.646   6.273  16.332 -0.8705  0.0474 -0.6931
  594TIP3   OH223196   0.443   3.770  12.581 -0.2575 -0.0564  0.4106
  594TIP3    H123197   0.357   3.779  12.539 -1.0520  0.1790  2.0427
  594TIP3    H223198   0.486   3.699  12.533 -0.9721  0.4787 -1.0582
  595TIP3   OH223199   4.667   4.204   0.093 -0.2656  0.0734 -0.0155
  595TIP3    H123200   4.643   4.291   0.123 -0.3084 -0.2281  0.8310
  595TIP3    H223201   4.641   4.202   0.001  1.0337  1.4493 -0.4479
  596TIP3   OH223202   2.620   3.805  14.568  0.1337 -0.0684 -0.0248
  596TIP3    H123203   2.602   3.740  14.500 -0.8747  1.4934 -1.2865
  596TIP3    H223204   2.713   3.823  14.560 -0.2420  1.1543 -1.9846
  597TIP3   OH223205   6.420   6.737  16.434  0.7858  0.2026 -0.1238
  597TIP3    H123206   6.449   6.818  16.474  0.1193 -0.4170  1.6613
  597TIP3    H223207   6.347   6.707  16.489  0.2882 -1.0193 -1.4036
  598TIP3   OH223208   0.287   3.395   2.518 -0.1732  0.2568 -0.7958
  598TIP3    H123209   0.296   3.300   2.518  0.9436  0.3556 -0.8145
  598TIP3    H223210   0.271   3.418   2.427  0.5585  0.1706 -0.9483
  599TIP3   OH223211   3.427   0.751  11.140  0.2983  0.9284  0.8251
  599TIP3    H123212   3.375   0.675  11.115 -0.7281  1.4659  1.2994
  599TIP3    H223213   3.476   0.774  11.061  0.7290 -0.3053  0.7171
  600TIP3   OH223214   0.520   1.283   5.998  0.6696  0.4539  0.0325
  600TIP3    H123215   0.515   1.378   6.008 -0.5406  0.3508  0.4901
  600TIP3    H223216   0.478   1.248   6.077 -0.2554 -0.4501 -0.8406
  601TIP3   OH223217   0.423   3.577   3.857  0.0742 -0.1174 -0.3053
  601TIP3    H123218   0.382   3.493   3.835 -1.2655  0.6171 -0.6365
  601TIP3    H223219   0.400   3.635   3.785  1.0244  0.5431 -0.0851
  602TIP3   OH223220   1.971   2.778  13.137  0.0263  0.0108  0.4256
  602TIP3    H123221   1.890   2.827  13.124  0.7807  0.9796 -0.9495
  602TIP3    H223222   2.003   2.807  13.222  0.4327  1.9431 -0.3386
  603TIP3   OH223223   1.582   5.365  15.554 -0.1284 -0.2977 -0.3020
  603TIP3    H123224   1.667   5.407  15.539  0.2717 -0.9801  0.0615
  603TIP3    H223225   1.537   5.372  15.470  0.9268 -1.3945 -0.9777
  604TIP3   OH223226   3.969   1.156  17.074  0.3446 -0.2428 -0.6228
  604TIP3    H123227   4.034   1.190  17.135  2.0222 -1.3416 -1.7846
  604TIP3    H223228   3.887   1.198  17.101  1.1607 -0.2619  2.0006
  605TIP3   OH223229   3.435   3.118  12.523  0.0952  0.5746  0.5558
  605TIP3    H123230   3.511   3.159  12.483  1.6134 -2.3125  0.3696
  605TIP3    H223231   3.373   3.106  12.450  0.1024  1.3932  0.4008
  606TIP3   OH223232   4.216   5.435  15.171  0.5445  0.2342 -0.3339
  606TIP3    H123233   4.264   5.478  15.100  1.6217  1.0746  0.8886
  606TIP3    H223234   4.158   5.503  15.205 -1.6606 -0.8160 -1.8953
  607TIP3   OH223235   5.250   1.207  11.599 -0.1507 -0.0365 -0.3943
  607TIP3    H123236   5.333   1.160  11.592  1.2208  2.2702 -0.3058
  607TIP3    H223237   5.193   1.166  11.535  2.0140  0.2410 -2.5669
  608TIP3   OH223238   0.529   1.043  15.156 -0.1191  0.0257 -0.9557
  608TIP3    H123239   0.483   0.967  15.192 -0.1691  1.2939  1.8069
  608TIP3    H223240   0.622   1.024  15.173 -0.0107 -0.1553 -1.7487
  609TIP3   OH223241   6.308   4.924   1.297  0.2857  0.7845 -0.8389
  609TIP3    H123242   6.354   4.920   1.213  0.8031 -0.6512 -0.4944
  609TIP3    H223243   6.327   4.840   1.339 -1.7294  0.6064 -0.2235
  610TIP3   OH223244   4.955   1.880   3.604  0.3312  0.1305 -0.0766
  610TIP3    H123245   4.962   1.812   3.537  0.2961 -0.1532  0.2055
  610TIP3    H223246   4.903   1.949   3.563 -0.0103 -0.2049 -0.2113
  611TIP3   OH223247   3.838   5.562   6.506 -0.2709 -0.0149 -0.1713
  611TIP3    H123248   3.892   5.487   6.483  0.8203  0.8099 -0.3819
  611TIP3    H223249   3.841   5.618   6.428 -1.4695  0.0240 -0.1939
  612TIP3   OH223250   3.179   1.348  15.782 -0.2964  0.0753  0.2752
  612TIP3    H123251   3.117   1.322  15.851 -0.3994 -0.8699 -0.1728
  612TIP3    H223252   3.251   1.390  15.830 -1.4596  1.5405  0.7695
  613TIP3   OH223253   5.621   0.371  15.439  0.2157 -0.2015 -0.0970
  613TIP3    H123254   5.677   0.323  15.379  1.2823  2.6133 -1.4240
  613TIP3    H223255   5.533   0.335  15.425  1.1952 -2.7461  0.0496
  614TIP3   OH223256   6.657   0.035   2.393 -0.5179  0.3944 -0.1404
  614TIP3    H123257   6.612   0.019   2.310  0.5906 -2.8390 -0.1797
  614TIP3    H223258   6.617  -0.027   2.455  0.1471  1.2836  1.2004
  615TIP3   OH223259   4.526   0.680   2.803  0.6637 -0.1668  0.2854
  615TIP3    H123260   4.516   0.714   2.892 -1.9866  2.4511 -0.9371
  615TIP3    H223261   4.545   0.757   2.750  0.1670 -1.4050 -1.7484
  616TIP3   OH223262   4.942   5.503  13.848 -0.3925 -0.4262  0.3541
  616TIP3    H123263   4.847   5.490  13.843 -0.4907 -0.1818  1.4724
  616TIP3    H223264   4.968   5.456  13.927  0.1892  0.8939  0.9511
  617TIP3   OH223265   6.099   5.854  11.982 -0.2389 -0.3999  0.8785
  617TIP3    H123266   6.136   5.827  12.066  1.6501  1.7353  0.7936
  617TIP3    H223267   6.168   5.835  11.919 -0.3288  1.0837  0.3149
  618TIP3   OH223268   5.595   5.028   2.327 -0.3254 -0.1459  0.6297
  618TIP3    H123269   5.560   5.058   2.411 -0.2281  0.7086  0.3643
  618TIP3    H223270   5.565   4.937   2.320 -1.8463  0.3288  0.7640
  619TIP3   OH223271   2.054   0.274   0.659  0.0573  0.1939 -0.3152
  619TIP3    H123272   2.003   0.225   0.595 -1.5987 -0.6013  1.5587
  619TIP3    H223273   2.014   0.361   0.660  1.1605  0.7332 -1.5512
  620TIP3   OH223274   5.533   5.986  11.846 -0.9860 -0.0710 -0.5225
  620TIP3    H123275   5.503   6.066  11.888 -1.5971 -0.2151 -0.6813
  620TIP3    H223276   5.573   5.935  11.917  0.3015  0.8044 -0.6126
  621TIP3   OH223277   5.861   4.674  16.689 -0.4217 -0.5492 -0.6048
  621TIP3    H123278   5.784   4.667  16.745 -1.9396 -0.1621 -2.6028
  621TIP3    H223279   5.838   4.626  16.610  1.1073  0.2520 -1.5568
  622TIP3   OH223280   1.093   2.399  17.040 -0.4291 -0.4830  0.3609
  622TIP3    H123281   1.023   2.393  17.105  1.3469  2.2664  2.6574
  622TIP3    H223282   1.142   2.318  17.050 -1.9271 -1.4309  0.2854
  623TIP3   OH223283   5.521   5.886   6.294 -0.1442 -0.0688  0.2003
  623TIP3    H123284   5.600   5.895   6.241 -1.1520 -0.1609 -1.3497
  623TIP3    H223285   5.535   5.806   6.344  1.1286  0.4088  0.6529
  624TIP3   OH223286   6.567   5.018  11.309  0.8244  0.0973 -0.1883
  624TIP3    H123287   6.620   4.965  11.368 -0.8652 -0.2259  1.0660
  624TIP3    H223288   6.568   4.969  11.226  0.2943 -1.2801  0.6016
  625TIP3   OH223289   0.872   5.172   0.512 -0.4508  0.5355 -0.2097
  625TIP3    H123290   0.918   5.232   0.453  2.3050  0.5253  1.8401
  625TIP3    H223291   0.845   5.227   0.585 -0.9279 -0.0847  0.0820
  626TIP3   OH223292   1.906   3.586  16.071 -0.6422 -0.4747 -0.3237
  626TIP3    H123293   1.917   3.654  16.137  0.6113  1.8220 -2.8186
  626TIP3    H223294   1.844   3.623  16.007  0.9055 -1.1779 -2.2945
  627TIP3   OH223295   3.149   5.830  13.179  0.4280  0.3898  0.1448
  627TIP3    H123296   3.165   5.880  13.259  1.3291  2.1282 -1.0891
  627TIP3    H223297   3.062   5.793  13.191 -0.6971  3.1077  0.6681
  628TIP3   OH223298   2.696   2.904  11.004 -0.1649 -0.0651  0.5223
  628TIP3    H123299   2.620   2.959  11.024 -0.3644 -0.5605  1.1491
  628TIP3    H223300   2.723   2.931  10.916 -0.5377  0.7150  0.6464
  629TIP3   OH223301   1.169   0.328   4.235 -0.3422  0.4700  0.9494
  629TIP3    H123302   1.254   0.304   4.199 -0.2130  3.6227 -1.0701
  629TIP3    H223303   1.123   0.245   4.247  1.9805 -1.0741 -0.5860
  630TIP3   OH223304   1.436   6.166  12.675  0.3990  0.3949  0.2285
  630TIP3    H123305   1.414   6.075  12.653  1.2033  0.3833 -0.5514
  630TIP3    H223306   1.430   6.213  12.592 -2.4912  1.5875  1.0486
  631TIP3   OH223307   2.900   0.221   6.017 -0.0980 -0.3144  0.5396
  631TIP3    H123308   2.929   0.132   5.996  0.7050 -0.0878  0.6580
  631TIP3    H223309   2.848   0.248   5.941  1.5369 -0.0625 -0.5232
  632TIP3   OH223310   4.417   5.384   3.910 -0.0147  0.5982 -0.2238
  632TIP3    H123311   4.464   5.467   3.908  2.3087 -0.7011 -0.8640
  632TIP3    H223312   4.435   5.344   3.825 -0.1549 -1.0793  0.5275
  633TIP3   OH223313   6.351   5.243   2.541  0.2090  0.1427 -0.7119
  633TIP3    H123314   6.425   5.195   2.505  0.1239  0.0146 -0.7169
  633TIP3    H223315   6.279   5.180   2.540 -0.2601  0.6561 -2.0108
  634TIP3   OH223316   0.220   1.439   5.977  0.0892 -0.4538 -0.0589
  634TIP3    H123317   0.313   1.458   5.967  0.1402 -1.0508 -0.7319
  634TIP3    H223318   0.199   1.467   6.067  0.9545 -0.5139  0.1630
  635TIP3   OH223319   5.735   0.480  11.781 -0.1652 -0.0280 -0.0198
  635TIP3    H123320   5.696   0.400  11.745 -0.8858  1.4422 -2.6269
  635TIP3    H223321   5.660   0.536  11.800  0.4158  0.6459  0.3004
  636TIP3   OH223322   1.276   0.757  10.670  0.4966 -0.4513  0.2044
  636TIP3    H123323   1.187   0.745  10.637  0.3948 -1.9220  0.9670
  636TIP3    H223324   1.273   0.841  10.715  0.0292  0.4582 -1.4789
  637TIP3   OH223325   6.131   1.844   6.467 -0.3982  0.0184 -0.3709
  637TIP3    H123326   6.203   1.795   6.508 -0.1625 -0.6560 -1.5610
  637TIP3    H223327   6.067   1.776   6.444 -1.4516  0.6169  0.7129
  638TIP3   OH223328   0.358   1.125  14.932 -0.2637  0.0518  0.2790
  638TIP3    H123329   0.409   1.127  15.013  0.0507 -2.1026  0.1428
  638TIP3    H223330   0.415   1.165  14.867  1.4405 -2.6464  0.0471
  639TIP3   OH223331   6.037   3.749  15.073  0.1353  0.0253  0.4904
  639TIP3    H123332   6.068   3.812  15.008  0.2616  0.4404  0.9491
  639TIP3    H223333   6.003   3.676  15.021 -0.4211  0.6589 -0.0594
  640TIP3   OH223334   0.962   4.243  12.700  0.1455  0.1409 -0.2707
  640TIP3    H123335   0.951   4.198  12.784  0.5381 -0.6246 -0.6322
  640TIP3    H223336   1.046   4.211  12.667 -1.5682 -2.0973 -2.5517
  641TIP3   OH223337   3.319   5.448  14.582  0.2002 -0.6546 -0.0409
  641TIP3    H123338   3.254   5.503  14.538  1.0618 -0.9247 -1.6993
  641TIP3    H223339   3.359   5.505  14.647 -1.9450 -0.5987  1.2507
  642TIP3   OH223340   3.844   6.376   0.202 -0.1701  0.1569  0.9569
  642TIP3    H123341   3.900   6.372   0.280  0.5767  0.2179  0.4333
  642TIP3    H223342   3.800   6.461   0.208  1.9891  1.3967 -0.0946
  643TIP3   OH223343   2.900   3.434  10.910 -0.3753  0.8013 -0.7479
  643TIP3    H123344   2.928   3.473  10.827  0.0604 -0.2459 -1.0958
  643TIP3    H223345   2.873   3.345  10.888  2.1508 -0.3643  0.6033
  644TIP3   OH223346   0.234   4.342   5.669  0.3914  0.7390  0.3659
  644TIP3    H123347   0.191   4.262   5.638  0.6086  0.8489 -0.2169
  644TIP3    H223348   0.231   4.335   5.764 -0.9586  0.7633  0.3278
  645TIP3   OH223349   2.690   3.573  11.036 -0.1537 -0.3297  0.3266
  645TIP3    H123350   2.771   3.550  10.991  0.0309  1.7468 -0.4580
  645TIP3    H223351   2.718   3.624  11.111 -0.7586  1.0089 -0.3458
  646TIP3   OH223352   4.699   1.637   4.708 -0.0265  0.3769  0.2420
  646TIP3    H123353   4.721   1.680   4.626  2.0962 -0.4249  0.3680
  646TIP3    H223354   4.699   1.544   4.687 -2.1182  0.2691  0.5614
  647TIP3   OH223355   4.732   5.889   5.780 -0.2670 -0.0631  0.1702
  647TIP3    H123356   4.744   5.976   5.741 -0.8458 -0.4472 -0.8747
  647TIP3    H223357   4.811   5.841   5.756 -0.3111 -0.0789  0.0539
  648TIP3   OH223358   5.036   1.927  14.099  0.5180 -0.4626  0.0852
  648TIP3    H123359   4.964   1.893  14.044  0.8455 -0.3025 -0.4445
  648TIP3    H223360   5.110   1.933  14.039  0.0357  2.7879 -0.2590
  649TIP3   OH223361   1.649   2.836   5.053  0.2762 -0.2237  0.2309
  649TIP3    H123362   1.738   2.803   5.040 -0.0476 -0.6794 -0.9491
  649TIP3    H223363   1.626   2.811   5.142  1.6053  0.5639  0.8129
  650TIP3   OH223364   4.382   1.193   4.695  0.5954  0.0184  0.1086
  650TIP3    H123365   4.289   1.185   4.719  0.3088 -2.0607 -1.5341
  650TIP3    H223366   4.416   1.104   4.703  1.3226 -0.1263 -3.6586
  651TIP3   OH223367   1.145   1.880   5.485  0.2880 -0.1832 -0.3948
  651TIP3    H123368   1.197   1.952   5.521 -0.9556  1.1992 -1.3356
  651TIP3    H223369   1.060   1.918   5.466 -0.2161 -1.7703 -1.4341
  652TIP3   OH223370   1.239   1.353   5.100  0.2552 -0.0069 -0.0397
  652TIP3    H123371   1.317   1.394   5.062  0.3010 -0.3576 -0.3370
  652TIP3    H223372   1.168   1.382   5.043  0.1278  0.5391  0.3987
  653TIP3   OH223373   5.417   3.293  12.882  0.2626  0.0357 -0.3817
  653TIP3    H123374   5.348   3.338  12.933 -0.5598  0.5415 -1.9159
  653TIP3    H223375   5.417   3.338  12.798  2.1710 -0.2804 -0.5613
  654TIP3   OH223376   5.578   4.107  12.638 -0.5809  0.2145 -0.3143
  654TIP3    H123377   5.631   4.182  12.665  1.1850 -1.6088  1.4546
  654TIP3    H223378   5.571   4.053  12.717 -0.3981 -2.3256 -1.9888
  655TIP3   OH223379   5.837   6.218   4.679  0.0554  0.1017 -0.2274
  655TIP3    H123380   5.769   6.286   4.679 -0.1525 -0.1076  0.2574
  655TIP3    H223381   5.885   6.233   4.761 -0.1463 -0.4964 -0.0022
  656TIP3   OH223382   6.239   5.289   5.389  0.3615 -0.0815 -0.4855
  656TIP3    H123383   6.186   5.332   5.322  1.9031  0.3502 -1.4700
  656TIP3    H223384   6.322   5.337   5.389  1.3803 -1.7673 -0.1861
  657TIP3   OH223385   4.322   6.423  11.385 -0.0260 -0.1080 -0.1328
  657TIP3    H123386   4.310   6.456  11.296  0.1014  1.5431  0.4358
  657TIP3    H223387   4.378   6.346  11.375  0.3488  0.3184 -1.4414
  658TIP3   OH223388   3.933   5.050  11.348 -0.4382 -0.1837  0.0396
  658TIP3    H123389   3.877   5.035  11.272 -1.5101  1.3209  0.5132
  658TIP3    H223390   3.875   5.088  11.413  1.0360  0.9700  0.7076
  659TIP3   OH223391   0.749   6.618   1.058  0.2187  0.3728 -0.4997
  659TIP3    H123392   0.665   6.664   1.055  1.0413  2.1548  1.8569
  659TIP3    H223393   0.727   6.526   1.047 -2.1095  0.7578  0.7349
  660TIP3   OH223394   2.908   4.365  13.602  0.4526 -0.3839  0.2505
  660TIP3    H123395   2.960   4.392  13.526  1.8212  4.1099  2.6011
  660TIP3    H223396   2.973   4.333  13.664 -0.2411 -0.5413  0.8915
  661TIP3   OH223397   1.793   2.474  12.681  0.7070  0.0020  0.3586
  661TIP3    H123398   1.793   2.533  12.756  2.9788  1.5873 -0.8343
  661TIP3    H223399   1.773   2.388  12.719  0.1591  1.0398  2.5208
  662TIP3   OH223400   1.728   2.833  15.378  0.3158  0.0870 -0.2715
  662TIP3    H123401   1.775   2.796  15.452 -0.8508  1.1197  1.0181
  662TIP3    H223402   1.722   2.761  15.315  2.0664 -0.5567  0.2576
  663TIP3   OH223403   4.419   6.129   3.409 -0.3001  0.2271  0.0006
  663TIP3    H123404   4.399   6.209   3.359  1.7083  0.4035 -0.5713
  663TIP3    H223405   4.470   6.076   3.348 -1.3518 -1.3683  0.5011
  664TIP3   OH223406   4.680   2.125   2.001 -0.9995 -0.1902 -0.3749
  664TIP3    H123407   4.766   2.159   2.027 -1.9002  0.7920  1.3781
  664TIP3    H223408   4.620   2.198   2.014 -1.9556 -0.5106 -2.6657
  665TIP3   OH223409   2.488   2.995  12.944  0.5067  0.3926  0.4588
  665TIP3    H123410   2.537   2.915  12.960  0.3443  0.3718  0.8581
  665TIP3    H223411   2.525   3.031  12.863 -2.0291 -2.1375 -1.9378
  666TIP3   OH223412   4.340   4.190   0.241  0.2742 -0.3937 -0.0747
  666TIP3    H123413   4.348   4.145   0.325  0.5220  2.8851  1.7802
  666TIP3    H223414   4.404   4.261   0.246 -0.7631  0.7606 -2.4098
  667TIP3   OH223415   4.549   5.380   4.388 -0.7767  0.0872  0.0606
  667TIP3    H123416   4.635   5.351   4.419 -0.3907  0.6957 -0.4298
  667TIP3    H223417   4.492   5.305   4.404  0.3523 -1.2426 -1.9466
  668TIP3   OH223418   6.050   5.871  12.288 -0.0225  0.8179  0.1658
  668TIP3    H123419   6.109   5.797  12.272  1.4393  2.2020 -0.9357
  668TIP3    H223420   5.962   5.833  12.280  0.7085 -0.5328 -1.8060
  669TIP3   OH223421   6.240   1.978   1.114  0.3244 -0.1905  0.3074
  669TIP3    H123422   6.160   1.956   1.162  0.0771  0.1927  0.0806
  669TIP3    H223423   6.210   1.992   1.024  0.7521 -0.6917  0.0880
  670TIP3   OH223424   2.899   3.616  14.745  0.2124  0.5608 -0.7570
  670TIP3    H123425   2.949   3.693  14.721  0.2534  0.7867  0.0431
  670TIP3    H223426   2.837   3.647  14.811  1.0193 -0.3134  0.4382
  671TIP3   OH223427   1.558   5.339  17.165  0.0995 -0.3969  0.3562
  671TIP3    H123428   1.478   5.290  17.153  1.0716 -2.2824  1.3232
  671TIP3    H223429   1.529   5.429  17.183 -1.7904 -1.1125  0.9867
  672TIP3   OH223430   5.441   6.445  15.746  0.2109 -0.2084  0.2823
  672TIP3    H123431   5.528   6.451  15.708  0.4932 -2.0017  0.6002
  672TIP3    H223432   5.396   6.380  15.693 -0.5846 -0.0465  0.7547
  673TIP3   OH223433   0.508   4.520  11.225  0.0113 -0.1799  0.2911
  673TIP3    H123434   0.479   4.449  11.167 -1.4572  0.1887  0.5370
  673TIP3    H223435   0.581   4.560  11.180  0.9289 -1.9169  0.1943
  674TIP3   OH223436   1.104   0.278   4.617 -0.2424  0.1452 -0.0807
  674TIP3    H123437   1.119   0.373   4.616 -0.2503  0.1413 -1.0401
  674TIP3    H223438   1.027   0.266   4.561 -0.3267 -0.4113  0.1571
  675TIP3   OH223439   3.574   3.034  15.030  0.1354 -0.5892 -0.2176
  675TIP3    H123440   3.559   3.127  15.043  1.1963 -0.5048  0.5460
  675TIP3    H223441   3.514   2.991  15.092  1.2922 -0.3343  1.1103
  676TIP3   OH223442   4.184   1.049  13.010  0.5125  0.4008  0.7114
  676TIP3    H123443   4.150   0.959  13.012  0.1843  0.5201  0.6328
  676TIP3    H223444   4.106   1.103  13.024  0.0815  0.8247 -2.8417
  677TIP3   OH223445   2.394   0.524  15.055  1.0316  0.7028 -0.1109
  677TIP3    H123446   2.482   0.500  15.081  1.3605 -1.9825 -3.3562
  677TIP3    H223447   2.406   0.585  14.982  0.3288 -1.8968 -2.5046
  678TIP3   OH223448   6.395   6.319   2.160  0.9097 -0.1537  0.5779
  678TIP3    H123449   6.458   6.278   2.101  0.9049  0.2225  0.3102
  678TIP3    H223450   6.310   6.300   2.120  0.8737 -0.3710  0.7576
  679TIP3   OH223451   2.492   1.583   2.028  0.1954 -0.0631  0.5324
  679TIP3    H123452   2.571   1.604   2.079  0.4234 -2.7167  1.3602
  679TIP3    H223453   2.442   1.524   2.085 -1.1649 -0.4315 -1.0160
  680TIP3   OH223454   1.286   2.998   6.049 -0.6470 -0.0331  0.6159
  680TIP3    H123455   1.341   3.069   6.014  2.0634 -1.8811  1.0228
  680TIP3    H223456   1.266   2.944   5.973 -1.7603  0.5394  0.5003
  681TIP3   OH223457   3.748   1.985  11.024  0.0608 -0.6149 -0.0310
  681TIP3    H123458   3.842   1.981  11.005 -0.4205 -1.1991 -2.3914
  681TIP3    H223459   3.706   1.945  10.948 -2.0908 -0.8239  1.2260
  682TIP3   OH223460   2.457   1.775   1.838  0.6949  0.2877  0.1772
  682TIP3    H123461   2.519   1.749   1.770  0.2790 -0.7092  0.1705
  682TIP3    H223462   2.465   1.706   1.905 -1.6200 -0.8054 -0.5905
  683TIP3   OH223463   3.821   5.083   2.907  0.0969 -0.1833 -0.2848
  683TIP3    H123464   3.804   4.997   2.945  1.4479 -0.0610  0.6326
  683TIP3    H223465   3.829   5.141   2.983  2.3315  0.1641 -0.7455
  684TIP3   OH223466   6.293   2.455  15.493 -0.1757 -0.2530  0.2551
  684TIP3    H123467   6.299   2.363  15.518  1.6610 -0.3519 -0.4956
  684TIP3    H223468   6.249   2.454  15.408  0.1892 -0.4601  0.0705
  685TIP3   OH223469   6.053   0.692   1.948 -0.0020 -0.0065 -0.5357
  685TIP3    H123470   6.040   0.787   1.937  1.5559  0.5420  2.0065
  685TIP3    H223471   6.140   0.684   1.988 -0.5413 -2.4577  0.2183
  686TIP3   OH223472   3.269   0.544  11.035  0.2117  0.1312  0.0925
  686TIP3    H123473   3.183   0.530  10.995  0.5015  2.2587 -1.3959
  686TIP3    H223474   3.331   0.507  10.972  0.4718  0.2164  0.2982
  687TIP3   OH223475   2.653   2.011  16.502  0.4371 -0.6944  0.1660
  687TIP3    H123476   2.673   1.942  16.438  1.2981  0.0671 -0.4062
  687TIP3    H223477   2.729   2.011  16.561  0.0881 -0.7435  0.6185
  688TIP3   OH223478   1.687   2.675  10.456 -0.0864  0.1917 -0.6788
  688TIP3    H123479   1.681   2.656  10.550 -2.5170 -1.0757 -1.0526
  688TIP3    H223480   1.663   2.767  10.448  4.2321  1.4940  0.3446
  689TIP3   OH223481   0.415   5.964  16.873 -0.2107  0.1791  0.1641
  689TIP3    H123482   0.349   5.901  16.846  0.5040 -0.9114  0.9549
  689TIP3    H223483   0.425   5.951  16.967 -1.1792  2.5466  0.6390
  690TIP3   OH223484   0.542   3.072   2.219 -0.5381  0.1281 -0.5379
  690TIP3    H123485   0.567   2.989   2.178  1.4138  0.2848  0.2864
  690TIP3    H223486   0.596   3.077   2.297 -4.2798 -0.2079  2.1862
  691TIP3   OH223487   4.475   0.877  13.852 -0.4849 -0.1581 -0.2948
  691TIP3    H123488   4.401   0.837  13.896 -1.3324  1.2152 -0.4445
  691TIP3    H223489   4.537   0.898  13.922 -0.7376 -0.2595 -0.0423
  692TIP3   OH223490   2.810   1.708  11.709 -0.0786  0.6654  0.6891
  692TIP3    H123491   2.778   1.619  11.702  1.1262  0.2372  0.5221
  692TIP3    H223492   2.736   1.763  11.684  0.0789 -0.3899 -2.2823
  693TIP3   OH223493   3.235   4.840   6.800  0.4845  0.1203  0.4644
  693TIP3    H123494   3.325   4.810   6.800  0.8046  1.0515  0.7428
  693TIP3    H223495   3.240   4.932   6.772 -0.5720 -0.4012 -1.5513
  694TIP3   OH223496   4.459   1.133  11.260 -0.0235  0.0886  0.3998
  694TIP3    H123497   4.451   1.123  11.166  0.2974 -2.0254  0.5817
  694TIP3    H223498   4.545   1.097  11.282 -1.3847 -2.4398  1.8671
  695TIP3   OH223499   4.247   6.056  13.500  0.1878 -0.3365  0.1067
  695TIP3    H123500   4.250   6.111  13.578 -0.9158  2.3981 -1.7159
  695TIP3    H223501   4.172   5.999  13.514 -0.3322  0.5076  0.7823
  696TIP3   OH223502   2.606   5.777  13.056  0.1501  0.6549 -0.5056
  696TIP3    H123503   2.673   5.790  12.988 -0.3445  0.6131 -1.0080
  696TIP3    H223504   2.530   5.824  13.023 -0.2682  0.1543 -0.2462
  697TIP3   OH223505   5.738   6.309  15.859 -0.4174 -0.1641  0.0782
  697TIP3    H123506   5.738   6.363  15.780  0.9213 -2.3909 -1.5184
  697TIP3    H223507   5.648   6.315  15.893 -0.5010  2.3443 -0.5019
  698TIP3   OH223508   1.395   3.759   0.190 -0.0607  0.5298  0.2341
  698TIP3    H123509   1.313   3.794   0.223 -1.1838 -0.0324 -1.8509
  698TIP3    H223510   1.439   3.834   0.150 -0.1625  0.5804  0.2159
  699TIP3   OH223511   6.685   5.293  11.703 -0.3488  0.1192  0.0669
  699TIP3    H123512   6.718   5.224  11.645  1.0235 -0.0174  0.9992
  699TIP3    H223513   6.740   5.369  11.683 -0.0852  0.1623  0.9696
  700TIP3   OH223514   4.209   1.026   1.840  0.3236 -0.8248  0.3429
  700TIP3    H123515   4.167   1.096   1.789  0.0575  0.4404  2.2827
  700TIP3    H223516   4.286   1.001   1.788  0.1876  0.6148 -0.5644
  701TIP3   OH223517   2.667   5.832  14.532  0.0961 -0.0279  0.7000
  701TIP3    H123518   2.573   5.820  14.548 -0.3460  2.0708 -0.1742
  701TIP3    H223519   2.701   5.868  14.615  0.1721 -0.9498  1.0744
  702TIP3   OH223520   1.036   0.860   5.277  0.3006  0.3348  0.1175
  702TIP3    H123521   0.969   0.876   5.211  0.9961 -1.6990 -1.1249
  702TIP3    H223522   1.007   0.780   5.322  1.2742  0.1244  0.3850
  703TIP3   OH223523   3.582   3.641  10.631  0.2510 -0.4410  0.1979
  703TIP3    H123524   3.497   3.681  10.648  0.5008 -0.0087  0.4589
  703TIP3    H223525   3.641   3.682  10.695  0.4742 -1.3721  0.5945
  704TIP3   OH223526   4.883   5.451   5.473  0.7828  0.6042 -0.2824
  704TIP3    H123527   4.908   5.539   5.445  2.0136  1.0458  2.0336
  704TIP3    H223528   4.796   5.462   5.511  0.1023  0.4365 -1.7704
  705TIP3   OH223529   5.052   5.022   2.677 -0.4929 -0.1724 -0.3558
  705TIP3    H123530   5.143   5.002   2.655 -0.6926 -2.5909  0.9196
  705TIP3    H223531   5.051   5.030   2.772 -1.8935 -1.8515 -0.1999
  706TIP3   OH223532   2.790   3.515   2.878  0.0924  0.3015  0.4772
  706TIP3    H123533   2.807   3.582   2.944  0.5276  0.7205 -0.0560
  706TIP3    H223534   2.843   3.541   2.803 -0.1545 -0.3447  0.0735
  707TIP3   OH223535   1.306   2.158  10.408 -0.0085  0.2746 -0.1394
  707TIP3    H123536   1.233   2.219  10.406 -0.1549  0.0991 -0.1886
  707TIP3    H223537   1.378   2.204  10.364 -0.1966  0.3091 -0.4091
  708TIP3   OH223538   2.277   3.800   3.801 -0.3046  0.5509 -0.2974
  708TIP3    H123539   2.319   3.879   3.834  1.0203 -0.4914  0.5282
  708TIP3    H223540   2.211   3.778   3.868  0.8792 -0.3191  0.5944
  709TIP3   OH223541   6.268   5.383   1.462  0.0548 -0.2254  0.2823
  709TIP3    H123542   6.215   5.319   1.509 -0.0839  0.2860  0.8226
  709TIP3    H223543   6.356   5.374   1.501  0.2015 -0.5670 -0.1178
  710TIP3   OH223544   2.935   1.475   2.130 -0.0699  0.0090  0.1453
  710TIP3    H123545   2.932   1.518   2.045  0.8375 -0.1640  0.0243
  710TIP3    H223546   2.962   1.385   2.111  0.1058 -0.0378  0.6133
  711TIP3   OH223547   0.211   1.213  11.400 -0.4960  0.0909  0.2523
  711TIP3    H123548   0.282   1.248  11.454  1.1256  0.8106 -2.3077
  711TIP3    H223549   0.245   1.131  11.365 -2.0769 -1.1062  1.4075
  712TIP3   OH223550   1.191   0.334  14.800 -0.1670  0.1086  0.3924
  712TIP3    H123551   1.225   0.423  14.790  0.1442 -0.1965 -1.6672
  712TIP3    H223552   1.253   0.291  14.858  1.5149  0.3456 -1.1557
  713TIP3   OH223553   1.862   1.988   2.589 -0.4804 -0.1654  0.0437
  713TIP3    H123554   1.879   1.959   2.679  2.7206  0.6631 -0.2387
  713TIP3    H223555   1.882   1.912   2.535 -1.1100 -0.2489 -0.0799
  714TIP3   OH223556   0.343   4.940  13.519 -0.2965  0.1167  0.2191
  714TIP3    H123557   0.337   5.015  13.460 -0.2626  0.0762  0.1641
  714TIP3    H223558   0.277   4.879  13.488 -1.0832  0.5958  0.9352
  715TIP3   OH223559   2.526   5.723  12.480  0.1357  0.0935 -0.0232
  715TIP3    H123560   2.454   5.663  12.499  1.9586 -1.5603  1.9749
  715TIP3    H223561   2.584   5.716  12.557  1.9047  2.1330 -1.1163
  716TIP3   OH223562   5.312   4.536  13.987 -1.0852  0.0909  0.0452
  716TIP3    H123563   5.245   4.604  13.984  1.1264  2.2843 -0.6332
  716TIP3    H223564   5.369   4.561  14.059 -0.8649 -1.6491  0.4939
  717TIP3   OH223565   0.154   4.940   1.674 -0.3611  0.3544  0.2559
  717TIP3    H123566   0.242   4.971   1.693 -1.2698  1.1926  3.4260
  717TIP3    H223567   0.165   4.846   1.659  1.1659  0.5827 -0.1389
  718TIP3   OH223568   5.117   2.803   0.555  0.6792 -0.4759  0.3449
  718TIP3    H123569   5.059   2.741   0.511  0.2596 -0.0071  0.2370
  718TIP3    H223570   5.087   2.803   0.646  0.8675 -0.6457  0.4092
  719TIP3   OH223571   3.010   5.763  14.671 -0.1863 -0.7683  0.0568
  719TIP3    H123572   3.045   5.757  14.760 -1.1296 -2.0218  0.3585
  719TIP3    H223573   3.039   5.682  14.629 -2.3319 -1.6107  0.1786
  720TIP3   OH223574   6.160   2.939   0.529 -0.0705  0.0210 -0.1644
  720TIP3    H123575   6.232   2.887   0.495  0.6908  0.5941  0.5764
  720TIP3    H223576   6.144   2.904   0.617 -0.9268 -0.3284 -0.4460
  721TIP3   OH223577   5.869   1.662  12.758  0.2134  0.6994 -0.0760
  721TIP3    H123578   5.910   1.697  12.838 -0.1807  0.4254  0.2466
  721TIP3    H223579   5.777   1.653  12.780 -0.0259  1.2832 -0.7933
  722TIP3   OH223580   3.295   2.692  15.485 -0.9880 -0.0315  0.6167
  722TIP3    H123581   3.219   2.701  15.542 -1.5200  0.5795 -0.1688
  722TIP3    H223582   3.283   2.761  15.419 -0.6191 -1.0037 -0.4838
  723TIP3   OH223583   2.358   5.971   4.276  0.3676  0.4535 -0.2427
  723TIP3    H123584   2.408   6.051   4.295 -0.4080  0.7687  0.5228
  723TIP3    H223585   2.271   6.002   4.252  0.6668 -0.0749 -2.0605
  724TIP3   OH223586   3.893   2.195   6.865 -0.0901  0.5438  0.0053
  724TIP3    H123587   3.956   2.140   6.820 -0.5321 -0.3794  0.4998
  724TIP3    H223588   3.812   2.186   6.815 -0.1383  0.8420  0.0233
  725TIP3   OH223589   3.830   6.117  17.046 -0.1997  0.4687  0.0335
  725TIP3    H123590   3.807   6.190  16.988 -0.3763  1.1208  0.9003
  725TIP3    H223591   3.893   6.065  16.996 -1.5323  0.1543 -1.3217
  726TIP3   OH223592   6.243   2.486   0.120 -0.3202  0.2884  0.2757
  726TIP3    H123593   6.148   2.493   0.108 -0.2993  0.6397  0.3068
  726TIP3    H223594   6.277   2.570   0.089 -0.0209  0.1695  0.2829
  727TIP3   OH223595   1.097   5.213  16.359 -0.9737  0.1070 -0.1027
  727TIP3    H123596   1.049   5.131  16.355  0.6969 -1.0916  2.8465
  727TIP3    H223597   1.069   5.253  16.441  1.5272  0.3325  0.6803
  728TIP3   OH223598   4.317   1.583   1.192  0.4480  0.5515 -0.0353
  728TIP3    H123599   4.351   1.495   1.209  2.7019  1.4052  0.0652
  728TIP3    H223600   4.229   1.582   1.229 -0.9934 -2.7668 -3.2652
  729TIP3   OH223601   2.840   5.131  13.323 -0.0703  0.0599  0.0812
  729TIP3    H123602   2.856   5.037  13.332 -0.3108  0.0930  0.9152
  729TIP3    H223603   2.926   5.172  13.336  0.3372 -0.1177 -1.8386
  730TIP3   OH223604   5.376   0.659   2.092 -0.2528  0.2906  0.0687
  730TIP3    H123605   5.335   0.574   2.076  1.6376 -0.3604 -1.5156
  730TIP3    H223606   5.346   0.714   2.020 -0.0473  0.4285  0.0871
  731TIP3   OH223607   5.190   3.417  15.184 -0.2001  0.4347 -0.8426
  731TIP3    H123608   5.264   3.368  15.219 -0.5633 -0.4025 -1.2267
  731TIP3    H223609   5.228   3.500  15.153  0.5284  0.1153 -0.8042
  732TIP3   OH223610   3.081   5.506  13.381  0.4431  0.7368  0.3503
  732TIP3    H123611   3.135   5.479  13.307 -0.4641 -0.7166  0.2095
  732TIP3    H223612   3.131   5.577  13.422  1.2987  1.0471 -1.2002
  733TIP3   OH223613   4.233   5.058   0.669 -0.0248 -0.3404 -0.4341
  733TIP3    H123614   4.203   4.967   0.668 -2.1572  0.3026  1.4271
  733TIP3    H223615   4.169   5.105   0.616  0.6588  0.2143 -0.7696
  734TIP3   OH223616   4.695   6.489   6.568  0.1317  0.3676 -0.1518
  734TIP3    H123617   4.759   6.479   6.498  0.2443  1.0247 -0.1406
  734TIP3    H223618   4.651   6.404   6.572  0.4185  0.1917 -0.7292
  735TIP3   OH223619   3.681   2.139  15.441 -0.4604  0.6209  0.1090
  735TIP3    H123620   3.736   2.068  15.474  0.5542  1.0126 -0.7178
  735TIP3    H223621   3.742   2.203  15.407 -1.3642  1.9602  0.9530
  736TIP3   OH223622   0.263   3.250  17.113  0.5125  0.4612 -0.6338
  736TIP3    H123623   0.343   3.203  17.089  0.2492  0.4484 -1.5252
  736TIP3    H223624   0.267   3.257  17.208  0.9875 -0.5885 -0.5640
  737TIP3   OH223625   3.923   3.863  12.820  0.1219 -0.0992  0.6381
  737TIP3    H123626   3.956   3.950  12.839  3.4075 -0.8894 -1.1336
  737TIP3    H223627   3.865   3.874  12.745  0.4414  0.5598  0.4920
  738TIP3   OH223628   6.152   6.410  14.572 -0.0955  0.4220 -0.0200
  738TIP3    H123629   6.222   6.347  14.557  0.9509  1.2450  1.3359
  738TIP3    H223630   6.165   6.476  14.504  0.1789  0.3462 -0.0424
  739TIP3   OH223631   4.848   3.094   6.161  0.2389  0.1008 -0.4639
  739TIP3    H123632   4.932   3.053   6.183  0.3991  1.0516  0.7602
  739TIP3    H223633   4.817   3.130   6.244 -0.6887  1.0085 -1.1981
  740TIP3   OH223634   5.056   4.001  16.109  0.6083 -0.1494 -0.3671
  740TIP3    H123635   5.143   4.023  16.141  0.6539 -0.6730 -0.1258
  740TIP3    H223636   5.044   3.909  16.132 -0.4352  0.1998  0.5781
  741TIP3   OH223637   4.072   3.991   2.364 -0.2257  0.4811  0.0064
  741TIP3    H123638   4.125   3.990   2.444  0.6076 -0.7367 -0.5358
  741TIP3    H223639   4.136   4.001   2.294 -0.6479 -1.4431 -0.6836
  742TIP3   OH223640   4.838   2.659   2.413 -0.1152 -0.6102  0.0425
  742TIP3    H123641   4.802   2.570   2.416  0.5744 -0.8748  0.6331
  742TIP3    H223642   4.868   2.676   2.503  1.9747 -0.7158 -0.5973
  743TIP3   OH223643   2.470   3.565   4.916 -0.1058 -0.1335  0.1519
  743TIP3    H123644   2.402   3.578   4.982 -1.5964 -3.2037 -0.7001
  743TIP3    H223645   2.443   3.618   4.842 -0.3618  0.4625  0.6702
  744TIP3   OH223646   1.977   3.968  11.973  0.3349 -0.3585  0.1325
  744TIP3    H123647   2.014   3.945  12.058  0.1118 -1.2383  0.0014
  744TIP3    H223648   1.886   3.992  11.991  0.2007 -0.8426  0.1044
  745TIP3   OH223649   6.613   3.982  15.824 -0.0752 -0.0035 -0.4924
  745TIP3    H123650   6.671   3.946  15.757  0.7554  2.5930 -1.2354
  745TIP3    H223651   6.526   3.979  15.785 -0.0893 -1.5314 -0.3782
  746TIP3   OH223652   5.837   0.786  16.968 -0.7174 -0.0335 -0.1818
  746TIP3    H123653   5.865   0.717  17.028  0.9151  0.5444 -0.2780
  746TIP3    H223654   5.833   0.742  16.883 -0.9126 -0.3177 -0.0281
  747TIP3   OH223655   6.062   4.480   5.443  0.3759  0.2332 -0.1129
  747TIP3    H123656   6.128   4.479   5.512  0.7371 -1.6153 -0.4524
  747TIP3    H223657   5.997   4.416   5.472 -0.6018  1.0824 -0.4168
  748TIP3   OH223658   1.223   0.932   0.615 -0.2105 -0.3715  0.3621
  748TIP3    H123659   1.221   0.913   0.709 -1.5534 -0.7645  0.2741
  748TIP3    H223660   1.298   0.884   0.582 -2.3450 -3.9576  0.4958
  749TIP3   OH223661   3.787   5.377   5.863 -0.2720 -0.2826 -0.3001
  749TIP3    H123662   3.820   5.328   5.938 -1.1180 -0.8076 -0.2624
  749TIP3    H223663   3.693   5.384   5.879 -0.4201 -0.2001 -1.2046
  750TIP3   OH223664   1.835   1.898   0.140  0.1014 -0.4487  0.0470
  750TIP3    H123665   1.864   1.841   0.069 -0.3191 -2.0197  1.1118
  750TIP3    H223666   1.781   1.965   0.097  1.9865  0.1699 -1.4267
  751TIP3   OH223667   2.950   4.213  17.090  0.2451 -0.1736  0.1522
  751TIP3    H123668   3.005   4.154  17.040  0.5322 -0.0087  0.2726
  751TIP3    H223669   2.870   4.163  17.108  1.3385 -1.3010  2.1075
  752TIP3   OH223670   6.487   0.485  15.837 -0.1447 -0.4355  0.4320
  752TIP3    H123671   6.507   0.539  15.760  0.4652 -0.3415  0.6544
  752TIP3    H223672   6.453   0.403  15.800  0.4853 -0.5287  0.0472
  753TIP3   OH223673   1.320   0.628  13.038  0.0801 -0.6696 -0.5823
  753TIP3    H123674   1.307   0.542  12.997  0.6665 -1.0901  0.1151
  753TIP3    H223675   1.415   0.635  13.048  0.0325  0.0775 -0.6636
  754TIP3   OH223676   1.566   4.543  14.591  0.5034 -0.6231 -0.1100
  754TIP3    H123677   1.542   4.456  14.560 -0.6512 -0.4630  0.2967
  754TIP3    H223678   1.486   4.577  14.632  0.5074  1.2193 -1.5766
  755TIP3   OH223679   1.820   6.536  14.359  0.4544  0.7608 -0.3573
  755TIP3    H123680   1.781   6.454  14.327  0.5245  0.3804  0.5294
  755TIP3    H223681   1.754   6.602  14.341 -0.3865  0.2002  0.6768
  756TIP3   OH223682   2.816   5.118  12.342  0.1806  0.2789 -0.8015
  756TIP3    H123683   2.758   5.181  12.299  1.2560 -1.0234 -4.2996
  756TIP3    H223684   2.899   5.165  12.353 -0.3003  0.8447  0.6249
  757TIP3   OH223685   4.214   0.992  14.219 -1.1158 -0.7571 -0.5340
  757TIP3    H123686   4.144   0.928  14.234 -2.1169  0.4703  0.1404
  757TIP3    H223687   4.172   1.077  14.235  0.5917 -0.0204  0.1387
  758TIP3   OH223688   4.226   4.417  11.291 -0.4658  0.4836 -0.3123
  758TIP3    H123689   4.253   4.501  11.327  0.3695  0.1591 -0.1688
  758TIP3    H223690   4.136   4.430  11.263 -0.2744  1.4759 -0.4577
  759TIP3   OH223691   4.692   4.394   1.343 -0.1021 -0.7555 -0.2208
  759TIP3    H123692   4.775   4.393   1.390  0.1406  0.6653 -0.5947
  759TIP3    H223693   4.696   4.318   1.286  0.5780 -1.1809  0.3917
  760TIP3   OH223694   1.024   4.091   2.934  0.6568  0.0835 -0.2355
  760TIP3    H123695   0.982   4.008   2.955  0.8387 -0.2169 -1.0390
  760TIP3    H223696   0.975   4.156   2.985  1.3639 -0.6577  1.4390
  761TIP3   OH223697   3.122   3.147   1.581 -0.0680  0.1004 -0.4688
  761TIP3    H123698   3.061   3.165   1.510 -0.3886 -0.4242 -0.3347
  761TIP3    H223699   3.195   3.207   1.567 -1.9002  2.8004  1.0264
  762TIP3   OH223700   3.262   5.783  17.186  0.4828  0.3830 -0.3877
  762TIP3    H123701   3.357   5.785  17.190  0.4557  0.1272  0.3731
  762TIP3    H223702   3.234   5.869  17.215  0.4222 -0.1601  1.1926
  763TIP3   OH223703   4.076   1.462  16.461  0.6875 -0.0913 -0.3499
  763TIP3    H123704   4.101   1.508  16.381  2.2614  0.1713  0.2600
  763TIP3    H223705   4.133   1.385  16.463 -1.5626 -1.8248 -1.0813
  764TIP3   OH223706   4.865   6.615   5.835  0.2340  0.1117  0.5470
  764TIP3    H123707   4.884   6.590   5.744  1.2444 -0.2861  0.8489
  764TIP3    H223708   4.854   6.531   5.880 -1.5658  0.3409  0.5304
  765TIP3   OH223709   3.217   1.959  14.874 -0.0519  0.1853 -0.2579
  765TIP3    H123710   3.159   1.909  14.816  0.4982 -0.0333 -0.6252
  765TIP3    H223711   3.303   1.921  14.860  0.1800  0.4983  0.3034
  766TIP3   OH223712   2.314   1.485  12.470 -0.3059  0.5770  0.0986
  766TIP3    H123713   2.390   1.543  12.479 -0.4286  0.7653 -0.0705
  766TIP3    H223714   2.293   1.459  12.559 -0.1232  0.6264  0.1580
  767TIP3   OH223715   3.061   2.099  11.083  0.3572  0.3104 -0.1300
  767TIP3    H123716   3.052   2.167  11.150  2.7069 -0.1014  0.6446
  767TIP3    H223717   3.113   2.140  11.014 -3.1943  1.1784 -2.3868
  768TIP3   OH223718   3.177   3.871  11.611 -0.2244 -0.2697 -0.3679
  768TIP3    H123719   3.205   3.791  11.656  1.2898  1.0483  1.1040
  768TIP3    H223720   3.102   3.903  11.662 -0.1645 -0.2018 -0.3209
  769TIP3   OH223721   1.252   2.810   4.949  0.3344 -0.4119  0.1916
  769TIP3    H123722   1.173   2.763   4.922  0.3100 -0.6485  0.6894
  769TIP3    H223723   1.233   2.901   4.925 -0.5696 -0.2738  1.3847
  770TIP3   OH223724   4.839   3.102   1.830 -0.1111  0.4655 -0.3636
  770TIP3    H123725   4.791   3.149   1.899 -0.3201  0.0391 -0.2193
  770TIP3    H223726   4.796   3.128   1.749  0.8665  1.8866 -0.4507
  771TIP3   OH223727   1.480   4.744   1.338 -0.2195 -0.1866 -0.4127
  771TIP3    H123728   1.450   4.730   1.427 -0.4759  0.7096 -0.3624
  771TIP3    H223729   1.411   4.795   1.296 -0.7700 -1.7978 -1.5453
  772TIP3   OH223730   6.192   0.030  14.735  0.2449 -0.2012  0.1812
  772TIP3    H123731   6.129  -0.020  14.786 -0.1537  0.7955  0.6861
  772TIP3    H223732   6.271  -0.024  14.734  0.1652 -0.3611  1.6039
  773TIP3   OH223733   1.627   4.398   0.541 -0.4037 -0.3421 -0.1639
  773TIP3    H123734   1.676   4.421   0.619 -2.1395  2.0245  0.2851
  773TIP3    H223735   1.611   4.304   0.549  3.1360 -0.9955  0.1387
  774TIP3   OH223736   1.314   5.123  15.766 -0.3194  0.1686  1.1022
  774TIP3    H123737   1.301   5.218  15.772  2.6012  0.8492 -1.7506
  774TIP3    H223738   1.294   5.102  15.675  0.9093 -1.5868  1.2142
  775TIP3   OH223739   2.479   2.849   0.371  0.0815  0.0821 -0.2704
  775TIP3    H123740   2.521   2.877   0.453 -1.1334  0.0325  0.3914
  775TIP3    H223741   2.549   2.849   0.307  0.8511  1.1422  0.5443
  776TIP3   OH223742   4.189   0.451  13.120 -0.0570 -0.9139 -0.5323
  776TIP3    H123743   4.184   0.366  13.076 -0.2014 -1.5274  0.6367
  776TIP3    H223744   4.097   0.477  13.131 -0.0228 -0.7873 -0.5462
  777TIP3   OH223745   6.348   0.228   3.895 -0.5188 -0.1598  0.4323
  777TIP3    H123746   6.317   0.166   3.961  0.6693 -0.2604  0.9143
  777TIP3    H223747   6.404   0.289   3.944 -0.5071  0.4190 -0.2946
  778TIP3   OH223748   2.801   0.126  15.803 -0.1041  1.5216 -0.1468
  778TIP3    H123749   2.755   0.095  15.725  1.2276  2.0615 -1.1731
  778TIP3    H223750   2.733   0.139  15.868 -1.0970 -0.1496 -0.8127
  779TIP3   OH223751   5.275   2.973  17.045 -0.1047  0.5881 -0.5151
  779TIP3    H123752   5.231   2.919  16.978 -0.8162 -1.3087  1.4238
  779TIP3    H223753   5.207   3.034  17.074  0.0818  1.1292 -1.1962
  780TIP3   OH223754   1.608   6.081   1.298  0.0645 -0.6923  0.2920
  780TIP3    H123755   1.550   6.005   1.292 -0.6340 -0.3220  2.0179
  780TIP3    H223756   1.549   6.155   1.307  0.7539  0.0342 -0.9752
  781TIP3   OH223757   5.245   3.209  14.559 -0.7809  0.1837  0.1217
  781TIP3    H123758   5.278   3.124  14.531  0.8260  0.6577  0.5345
  781TIP3    H223759   5.172   3.188  14.618 -2.3122 -0.8441 -2.0907
  782TIP3   OH223760   0.341   3.672   0.384  0.0072 -0.7238 -0.2244
  782TIP3    H123761   0.280   3.639   0.318 -0.6670  0.4341 -0.1917
  782TIP3    H223762   0.419   3.696   0.334 -0.4319 -0.0250 -0.5780
  783TIP3   OH223763   6.205   4.067   4.033  0.2406 -0.4350 -0.0677
  783TIP3    H123764   6.225   4.079   3.940  2.0526  0.8584  0.4675
  783TIP3    H223765   6.151   3.988   4.036  1.2161 -1.2176 -2.0914
  784TIP3   OH223766   5.577   3.466  10.853  0.6375  0.1391  0.0020
  784TIP3    H123767   5.626   3.480  10.771  1.1089  0.3364  0.3179
  784TIP3    H223768   5.582   3.372  10.868  0.8580  0.1486 -0.0059
  785TIP3   OH223769   3.154   2.807   0.659 -0.8378 -0.0277 -0.7750
  785TIP3    H123770   3.086   2.865   0.693 -0.1789  1.1634 -1.4506
  785TIP3    H223771   3.234   2.836   0.704 -0.9750 -2.2944  1.0336
  786TIP3   OH223772   0.401   0.846   0.604  0.0260  0.2538  0.0759
  786TIP3    H123773   0.450   0.912   0.654 -0.5349  1.5078 -0.9924
  786TIP3    H223774   0.376   0.891   0.523 -0.0496 -1.4043 -0.8342
  787TIP3   OH223775   2.165   1.750   6.124 -0.5672 -0.1445 -0.4556
  787TIP3    H123776   2.136   1.837   6.153 -2.4402 -0.1901 -2.0907
  787TIP3    H223777   2.230   1.768   6.057  0.8373 -0.0374  0.9004
  788TIP3   OH223778   2.030   6.434  16.922  0.2216 -0.0885  0.5039
  788TIP3    H123779   2.101   6.496  16.905  0.3542 -0.5038 -0.4962
  788TIP3    H223780   1.981   6.431  16.840 -1.6123  1.0063  1.5307
  789TIP3   OH223781   6.349   1.587  16.450 -0.0210 -0.2107  0.2264
  789TIP3    H123782   6.278   1.556  16.393 -0.7805  2.5136 -0.3424
  789TIP3    H223783   6.309   1.597  16.536  0.4012 -1.4076  0.5799
  790TIP3   OH223784   2.809   6.041   1.954 -0.2960 -0.3972  0.0752
  790TIP3    H123785   2.812   6.070   1.863  0.1675 -1.0439 -0.1120
  790TIP3    H223786   2.802   6.123   2.004 -2.2753 -0.1196 -0.6147
  791TIP3   OH223787   4.810   5.963  17.159  0.0667  0.4143  0.1117
  791TIP3    H123788   4.878   5.971  17.225  0.1406  0.2492  0.0545
  791TIP3    H223789   4.733   6.003  17.198  0.3220  1.0146 -0.0041
  792TIP3   OH223790   3.378   4.921   2.628  0.3214  0.0767 -0.4345
  792TIP3    H123791   3.424   4.942   2.546 -0.6193 -1.8739 -1.4846
  792TIP3    H223792   3.433   4.959   2.696  2.3416 -0.2722 -1.8255
  793TIP3   OH223793   2.804   1.471   2.896 -0.4177 -0.7767  0.1440
  793TIP3    H123794   2.896   1.453   2.875 -0.7949 -3.3312  0.5272
  793TIP3    H223795   2.755   1.422   2.830 -1.5334 -0.5016  0.7591
  794TIP3   OH223796   5.360   0.805   6.325  0.1389 -0.0419  0.0385
  794TIP3    H123797   5.295   0.739   6.348 -0.0167  0.6401  1.6178
  794TIP3    H223798   5.443   0.758   6.326 -0.1699 -0.6121 -0.6393
  795TIP3   OH223799   4.348   6.536   6.077  0.3252  0.4446 -0.1510
  795TIP3    H123800   4.358   6.456   6.025 -2.4730  0.8726 -1.4601
  795TIP3    H223801   4.334   6.505   6.167 -1.0696 -0.5795 -0.6954
  796TIP3   OH223802   2.186   4.108  16.074 -0.3761 -0.1501 -0.4806
  796TIP3    H123803   2.092   4.123  16.086 -0.4339 -1.5386  0.9379
  796TIP3    H223804   2.212   4.173  16.008 -2.5506 -0.5132 -1.7756
  797TIP3   OH223805   6.609   1.134  14.490  0.3419  0.0529  0.3305
  797TIP3    H123806   6.590   1.060  14.547 -1.5388 -0.8912 -1.4459
  797TIP3    H223807   6.615   1.096  14.402 -0.3101  1.9323 -0.5704
  798TIP3   OH223808   6.344   4.043   2.055 -0.3928  0.1127 -0.3503
  798TIP3    H123809   6.261   4.089   2.063  0.6467  1.7902  1.1613
  798TIP3    H223810   6.396   4.098   1.997 -0.0558 -0.5536 -0.6891
  799TIP3   OH223811   2.239   5.275   4.394 -0.6680  0.6579 -0.9468
  799TIP3    H123812   2.155   5.237   4.421 -1.5019  0.0947 -4.0882
  799TIP3    H223813   2.242   5.359   4.438 -0.7301 -1.2447  2.8431
  800TIP3   OH223814   1.010   2.980  15.637 -0.3069 -0.0025  0.1757
  800TIP3    H123815   1.000   2.962  15.543 -0.2750  2.5198 -0.3336
  800TIP3    H223816   0.920   2.988  15.669 -0.3276 -1.2342  0.4627
  801TIP3   OH223817   0.487   6.772   4.154  0.1605  0.1223  0.6185
  801TIP3    H123818   0.513   6.723   4.232 -2.1747 -1.1615  0.6255
  801TIP3    H223819   0.409   6.821   4.182  0.2118  0.8384 -0.4732
  802TIP3   OH223820   2.716   2.071   3.581 -0.3243  0.2439  0.1825
  802TIP3    H123821   2.775   2.040   3.649 -1.5503 -1.9696  0.3006
  802TIP3    H223822   2.738   2.020   3.504 -0.7170  0.8599 -0.3499
  803TIP3   OH223823   3.988   2.913  14.462 -0.0184 -0.2918  0.1513
  803TIP3    H123824   3.967   2.930  14.370  0.4311  3.5718  0.6468
  803TIP3    H223825   3.910   2.873  14.498 -1.7067  1.7938 -1.0456
  804TIP3   OH223826   1.873   0.622   4.182  0.0081 -0.7863 -0.0962
  804TIP3    H123827   1.793   0.664   4.150  0.9801 -0.4069 -2.0823
  804TIP3    H223828   1.866   0.628   4.278 -2.1133 -0.3565 -0.2404
  805TIP3   OH223829   5.179   6.577  13.222  0.0095  0.2880  0.3687
  805TIP3    H123830   5.174   6.666  13.255 -1.4094  0.3596 -0.0088
  805TIP3    H223831   5.220   6.585  13.136  2.6721  0.2258  1.5975
  806TIP3   OH223832   3.592   3.907   3.227 -0.1961  0.2732  0.4790
  806TIP3    H123833   3.597   3.983   3.168 -0.2317 -0.8694 -1.0254
  806TIP3    H223834   3.510   3.918   3.274  0.0617  1.4525  0.6656
  807TIP3   OH223835   6.585   5.651  11.844  0.1013 -0.0079 -0.0006
  807TIP3    H123836   6.577   5.595  11.922  1.7577 -0.6955 -0.2971
  807TIP3    H223837   6.671   5.630  11.808 -0.1382  1.1968 -1.3401
  808TIP3   OH223838   5.765   4.733   2.106  0.8503 -0.1834  0.0502
  808TIP3    H123839   5.680   4.708   2.070  0.4108  0.5431  0.5553
  808TIP3    H223840   5.782   4.820   2.068  0.1854  0.7727  1.8969
  809TIP3   OH223841   0.231   2.083  13.266 -0.7598 -0.5395  0.6783
  809TIP3    H123842   0.211   1.993  13.291  0.0279 -0.8878  0.0561
  809TIP3    H223843   0.293   2.112  13.333 -0.4545 -0.7019  0.4686
  810TIP3   OH223844   0.342   1.883   2.988  0.3405 -0.0341 -0.1725
  810TIP3    H123845   0.385   1.798   2.986 -1.4012 -0.9247 -0.7848
  810TIP3    H223846   0.340   1.907   3.080  1.3913 -0.3646 -0.0609
  811TIP3   OH223847   3.633   0.135   4.462  0.0044  0.6519 -0.3893
  811TIP3    H123848   3.550   0.128   4.509 -0.0751  1.5317 -0.3943
  811TIP3    H223849   3.649   0.046   4.429  0.1309  0.0041  1.3932
  812TIP3   OH223850   1.481   3.285   3.646  0.1582 -0.1138  0.6669
  812TIP3    H123851   1.521   3.279   3.733 -0.0006  0.5019  0.7783
  812TIP3    H223852   1.390   3.259   3.660  0.6842 -2.2623  0.2826
  813TIP3   OH223853   0.665   4.056  14.381  0.0280  0.5798 -0.2350
  813TIP3    H123854   0.574   4.041  14.353 -0.6135  3.5581  0.1408
  813TIP3    H223855   0.708   3.971  14.368 -3.4948 -1.7517  2.3847
  814TIP3   OH223856   3.512   1.860   1.217 -1.0629  0.5582 -0.5138
  814TIP3    H123857   3.569   1.803   1.268 -1.1811  1.2774  0.4428
  814TIP3    H223858   3.556   1.870   1.133  1.1866  2.6363  0.8486
  815TIP3   OH223859   0.953   2.785   1.991  0.2579 -0.5595  0.4197
  815TIP3    H123860   0.942   2.739   1.907  0.9737  0.2928 -0.1447
  815TIP3    H223861   1.015   2.731   2.040  0.2222 -0.7967  0.2053
  816TIP3   OH223862   1.350   5.191  16.608  0.2634  0.3145  0.0714
  816TIP3    H123863   1.384   5.257  16.669  1.4840  1.1923 -1.5050
  816TIP3    H223864   1.262   5.172  16.638  1.3146 -0.2657  2.9016
  817TIP3   OH223865   6.780   4.562  14.697 -0.0814  0.2324  0.0998
  817TIP3    H123866   6.827   4.637  14.733 -0.4482  1.4116 -1.7816
  817TIP3    H223867   6.838   4.527  14.630 -0.9520  0.3601 -0.7304
  818TIP3   OH223868   5.555   4.885   5.153  0.6114  0.4284 -0.3453
  818TIP3    H123869   5.581   4.965   5.199 -2.2258  2.2691 -1.7850
  818TIP3    H223870   5.538   4.822   5.222 -0.5319  2.1702  1.0119
  819TIP3   OH223871   3.957   6.640   3.365  0.0846  0.5025 -0.1417
  819TIP3    H123872   3.958   6.710   3.300 -1.0085  2.5895  2.0014
  819TIP3    H223873   4.049   6.625   3.387  0.4182  0.1909 -1.6852
  820TIP3   OH223874   4.308   4.811   2.729 -0.2127  0.4439  0.0894
  820TIP3    H123875   4.266   4.784   2.647 -0.6462  0.0875  0.4322
  820TIP3    H223876   4.381   4.750   2.739 -0.6313 -0.0081  0.3781
  821TIP3   OH223877   2.375   2.466  14.812 -0.0433  0.1340 -0.3032
  821TIP3    H123878   2.387   2.390  14.868 -2.3988  0.2199  0.3680
  821TIP3    H223879   2.355   2.430  14.726 -0.8665 -0.0168 -0.0526
  822TIP3   OH223880   0.227   1.234  14.358  0.1319  0.2423 -1.0077
  822TIP3    H123881   0.186   1.200  14.437 -2.1364  1.6693 -1.5455
  822TIP3    H223882   0.311   1.270  14.388 -0.0798 -0.4861  0.4875
  823TIP3   OH223883   4.495   6.327  15.893 -0.6665 -0.8905 -0.1076
  823TIP3    H123884   4.557   6.255  15.894  2.0615  1.3851  2.1384
  823TIP3    H223885   4.529   6.387  15.827 -1.2183 -0.2605  0.1713
  824TIP3   OH223886   1.768   0.466  12.546 -0.3018 -0.4195  0.0291
  824TIP3    H123887   1.800   0.435  12.461  0.5667 -0.4555  0.3559
  824TIP3    H223888   1.830   0.535  12.571 -1.3650  0.5564 -0.0051
  825TIP3   OH223889   5.939   0.143  15.016  0.0282 -0.5435 -0.2280
  825TIP3    H123890   6.030   0.172  15.021 -0.5612  1.8369 -2.3229
  825TIP3    H223891   5.937   0.081  14.943 -0.1686 -0.0627 -0.6312
  826TIP3   OH223892   0.087   2.930   5.081 -0.2238  0.6802  0.6037
  826TIP3    H123893   0.171   2.963   5.112  0.7062  0.1641 -1.2569
  826TIP3    H223894   0.058   2.869   5.149  1.7130 -0.3645  0.5454
  827TIP3   OH223895   4.244   4.611   5.182 -0.0403  0.3767  0.0550
  827TIP3    H123896   4.241   4.645   5.272  1.6030  3.0445 -0.8466
  827TIP3    H223897   4.167   4.554   5.176 -1.3848  1.8275  2.5009
  828TIP3   OH223898   5.566   5.277  11.648  0.1983 -0.1236  0.7825
  828TIP3    H123899   5.646   5.330  11.653 -0.3363  0.7825 -0.1871
  828TIP3    H223900   5.495   5.339  11.661 -0.3745 -0.8195  0.9730
  829TIP3   OH223901   2.908   2.672  11.959 -0.1471 -0.2567  0.0825
  829TIP3    H123902   2.897   2.584  11.994 -0.0403  0.1092  1.0391
  829TIP3    H223903   2.895   2.662  11.865  0.9203 -1.4752  0.0576
  830TIP3   OH223904   3.912   3.459  14.307  0.1458 -0.3201  0.3806
  830TIP3    H123905   3.887   3.506  14.228  1.1500 -0.6142 -0.1093
  830TIP3    H223906   3.904   3.524  14.377  0.0522  0.1541 -0.0725
  831TIP3   OH223907   0.874   3.681  14.800 -0.5790  0.1416 -0.2088
  831TIP3    H123908   0.901   3.683  14.892 -1.0089 -1.1143 -0.0499
  831TIP3    H223909   0.939   3.735  14.756  0.7301 -0.7523  0.5613
  832TIP3   OH223910   2.428   2.902  12.575  0.0635 -0.5389 -0.1900
  832TIP3    H123911   2.489   2.889  12.649 -1.5119 -0.3101  1.1700
  832TIP3    H223912   2.341   2.894  12.614 -0.8053  0.3131 -1.9150
  833TIP3   OH223913   3.307   4.669   0.754 -0.0756 -0.2175 -0.0330
  833TIP3    H123914   3.238   4.637   0.813  2.6557 -2.3867  2.1641
  833TIP3    H223915   3.364   4.722   0.811  1.4216 -0.5514 -1.1850
  834TIP3   OH223916   4.755   1.830   0.864 -0.3305 -0.4102 -0.0721
  834TIP3    H123917   4.820   1.786   0.809  0.0120  1.5373 -1.2444
  834TIP3    H223918   4.689   1.862   0.802  0.1637  1.9843  0.6198
  835TIP3   OH223919   0.535   2.960   2.896  0.0919 -0.1299 -0.3694
  835TIP3    H123920   0.516   3.021   2.825 -1.8024  1.5918  1.5530
  835TIP3    H223921   0.451   2.919   2.917  1.0840 -2.4048 -0.6863
  836TIP3   OH223922   2.290   6.162  14.918 -0.0923  0.5761 -1.0334
  836TIP3    H123923   2.329   6.249  14.926 -1.4784  1.1663 -0.5546
  836TIP3    H223924   2.196   6.177  14.925 -0.2998 -1.0556 -0.0737
  837TIP3   OH223925   3.553   0.041  10.873 -0.5178  0.2376  0.0050
  837TIP3    H123926   3.648   0.047  10.868 -0.4320 -0.3496  0.8148
  837TIP3    H223927   3.526   0.010  10.787  0.1279 -0.8245  0.1780
  838TIP3   OH223928   3.768   1.281   5.814 -0.4597 -0.6260  0.0811
  838TIP3    H123929   3.682   1.307   5.846 -0.0596  0.1529  0.5364
  838TIP3    H223930   3.807   1.233   5.886 -0.1786 -0.2384  0.1898
  839TIP3   OH223931   1.208   2.615  15.571  0.0945 -0.3474 -0.7878
  839TIP3    H123932   1.247   2.571  15.646  1.3099  0.1975 -1.0814
  839TIP3    H223933   1.270   2.684  15.549 -0.8420  0.2765 -1.5399
  840TIP3   OH223934   1.716   1.510   1.737  0.1313 -0.2001 -0.3826
  840TIP3    H123935   1.805   1.493   1.706  0.3197 -0.6260  0.3659
  840TIP3    H223936   1.669   1.427   1.724 -0.2659  0.1479 -1.1536
  841TIP3   OH223937   0.572   3.549   0.507 -0.2616 -0.2816 -0.0532
  841TIP3    H123938   0.497   3.594   0.467  0.0958 -0.4503 -0.9056
  841TIP3    H223939   0.621   3.619   0.550  0.2353  0.1286 -1.2838
  842TIP3   OH223940   6.258   4.914   0.691 -0.4409  0.4037  0.4797
  842TIP3    H123941   6.210   4.990   0.724  1.2751  1.6592  0.1509
  842TIP3    H223942   6.347   4.925   0.725  0.0064 -1.0737 -0.1862
  843TIP3   OH223943   6.266   0.656  14.058  0.1221  0.5324 -0.3282
  843TIP3    H123944   6.361   0.662  14.065  0.0709  0.0596  0.9774
  843TIP3    H223945   6.238   0.622  14.143 -1.1629  0.0740 -0.9185
  844TIP3   OH223946   2.969   1.066   4.059  0.4532  0.2643 -0.0747
  844TIP3    H123947   2.937   1.035   4.143  0.7099  1.0474  0.3128
  844TIP3    H223948   2.892   1.104   4.017  0.7008  1.4902  0.5568
  845TIP3   OH223949   0.805   3.278   3.436 -0.2078 -0.0573 -0.0930
  845TIP3    H123950   0.816   3.228   3.355 -1.1789  1.0376 -0.9059
  845TIP3    H223951   0.727   3.331   3.421  0.3262  1.0752  1.0976
  846TIP3   OH223952   1.387   5.874  12.653 -0.5607  0.0153  0.4300
  846TIP3    H123953   1.439   5.823  12.715 -1.7012 -0.5790  0.9021
  846TIP3    H223954   1.304   5.889  12.698 -1.2997 -0.2022 -0.8589
  847TIP3   OH223955   4.094   1.605   4.739  0.0194  0.3491  0.3158
  847TIP3    H123956   4.090   1.679   4.799  0.2530 -0.5456  1.4580
  847TIP3    H223957   4.188   1.588   4.728 -0.0562 -1.2496  1.9342
  848TIP3   OH223958   4.907   6.620   1.765 -0.2894  0.1553 -0.1352
  848TIP3    H123959   4.852   6.653   1.694  0.9022 -1.9610 -2.0764
  848TIP3    H223960   4.850   6.560   1.813 -1.5146  2.6043  1.5717
  849TIP3   OH223961   5.085   3.410   2.148 -0.1818  0.0668 -0.0136
  849TIP3    H123962   5.174   3.377   2.165  0.0992  0.8886  0.1390
  849TIP3    H223963   5.028   3.340   2.179  0.4154 -0.6381 -0.4718
  850TIP3   OH223964   5.539   0.657  13.798  0.1082 -0.0473 -0.7263
  850TIP3    H123965   5.624   0.696  13.778 -0.5692  0.9559 -1.7143
  850TIP3    H223966   5.476   0.706  13.744 -0.9325 -1.6607 -1.0346
  851TIP3   OH223967   6.146   5.289  12.920  0.2706  0.4069  0.1912
  851TIP3    H123968   6.073   5.230  12.901 -0.1509  1.5700 -1.9788
  851TIP3    H223969   6.218   5.257  12.866  0.6338  0.7250  0.4819
  852TIP3   OH223970   1.764   3.836  13.846  0.2172  0.0362  0.5666
  852TIP3    H123971   1.841   3.795  13.807 -1.4349 -2.1802 -0.5384
  852TIP3    H223972   1.743   3.780  13.921 -1.6301 -0.7874 -0.5172
  853TIP3   OH223973   1.705   1.720  12.196  0.0182 -0.2723 -0.1191
  853TIP3    H123974   1.758   1.756  12.267  0.3001 -1.0740  0.0904
  853TIP3    H223975   1.657   1.648  12.236  1.5839 -1.9417 -1.1314
  854TIP3   OH223976   5.040   0.795   1.513 -0.2735 -0.6590  0.3032
  854TIP3    H123977   4.991   0.715   1.499  0.7464 -1.2777  0.1922
  854TIP3    H223978   5.081   0.784   1.599  0.0909 -0.3769  0.1709
  855TIP3   OH223979   6.244   0.055   4.084 -0.1933 -0.1159  0.1476
  855TIP3    H123980   6.294   0.116   4.139 -0.6981  0.9852 -0.5951
  855TIP3    H223981   6.230  -0.021   4.140 -1.4049  1.3170  1.8730
  856TIP3   OH223982   6.736   6.143  12.906  0.4948  0.2447  0.1189
  856TIP3    H123983   6.689   6.063  12.927 -0.8939  0.2233 -2.7599
  856TIP3    H223984   6.672   6.213  12.922 -0.1790  0.3133 -2.4844
  857TIP3   OH223985   6.585   1.422   5.912 -0.4168  0.2839 -0.7220
  857TIP3    H123986   6.610   1.332   5.894  0.7414  0.6127 -0.7513
  857TIP3    H223987   6.547   1.419   6.000  0.4867 -0.0626 -0.3470
  858TIP3   OH223988   4.404   2.645  11.126 -0.3407 -0.6111 -1.0075
  858TIP3    H123989   4.367   2.570  11.080 -0.7571 -0.3081 -1.1683
  858TIP3    H223990   4.354   2.650  11.208  1.2227 -1.9067  0.0619
  859TIP3   OH223991   0.780   2.584  15.610  0.2648 -0.4699  0.4973
  859TIP3    H123992   0.709   2.608  15.669  0.2211 -0.7831  0.5729
  859TIP3    H223993   0.859   2.594  15.662  0.4119  1.4123 -0.0504
  860TIP3   OH223994   6.475   4.912   0.244 -0.3456  0.1949  0.7887
  860TIP3    H123995   6.554   4.877   0.204 -0.7754  0.0975  0.0272
  860TIP3    H223996   6.412   4.840   0.241 -1.0033  0.7998 -0.1507
  861TIP3   OH223997   4.079   4.865   6.192 -0.3126 -0.2922  0.3879
  861TIP3    H123998   4.135   4.942   6.201  0.4390 -0.8621  0.6537
  861TIP3    H223999   3.990   4.900   6.198  0.0004  0.6581 -0.3474
  862TIP3   OH224000   1.361   4.602  11.889  0.2552  0.2636 -0.1007
  862TIP3    H124001   1.348   4.639  11.802  1.6141 -1.3713 -1.0221
  862TIP3    H224002   1.444   4.555  11.883 -0.0122 -0.5097  1.8552
  863TIP3   OH224003   1.758   6.287  15.218  0.2313 -0.0703 -0.2133
  863TIP3    H124004   1.669   6.301  15.188 -0.1717 -1.8565  0.0642
  863TIP3    H224005   1.748   6.260  15.310  1.0911  0.3466  0.0083
  864TIP3   OH224006   1.103   0.780   5.964 -0.0074  0.2367  0.3414
  864TIP3    H124007   1.035   0.754   6.026  0.1463 -0.5334  0.1936
  864TIP3    H224008   1.181   0.793   6.017 -0.1215  0.5608  0.4343
  865TIP3   OH224009   4.972   3.230   3.186  0.3180  0.5666 -0.1762
  865TIP3    H124010   4.894   3.275   3.155 -0.0372 -0.2329 -0.4413
  865TIP3    H224011   5.012   3.192   3.107  1.1357  1.2182 -0.0857
  866TIP3   OH224012   6.197   4.830  16.211 -0.4073  0.2913  0.3669
  866TIP3    H124013   6.205   4.746  16.166 -1.1440  1.1552 -1.4470
  866TIP3    H224014   6.129   4.816  16.276 -1.3631 -0.2081 -0.7194
  867TIP3   OH224015   3.902   1.710   1.110 -0.3977  0.2965 -0.1949
  867TIP3    H124016   3.956   1.681   1.183  2.5235 -1.4117 -2.9002
  867TIP3    H224017   3.814   1.722   1.147  1.4596  1.7485  4.0299
  868TIP3   OH224018   5.115   4.317   5.238  0.2591  0.0237  0.3230
  868TIP3    H124019   5.199   4.361   5.251  0.1634  0.8293 -1.5659
  868TIP3    H224020   5.049   4.386   5.249 -0.0070 -0.0654 -0.6514
  869TIP3   OH224021   4.837   2.481   2.085 -0.2341 -0.0568  0.0265
  869TIP3    H124022   4.750   2.441   2.093 -0.6810  0.3324 -2.4433
  869TIP3    H224023   4.820   2.575   2.082  0.3698  0.0746  0.5779
  870TIP3   OH224024   4.346   6.515   1.759 -0.7944  0.0574 -0.4195
  870TIP3    H124025   4.346   6.586   1.822 -1.1275  0.1580 -0.5314
  870TIP3    H224026   4.345   6.435   1.812 -0.8298  0.1387 -0.2990
  871TIP3   OH224027   1.832   3.671  14.411 -0.3191  0.2106 -0.3827
  871TIP3    H124028   1.810   3.641  14.499  1.7180  0.2039  0.1554
  871TIP3    H224029   1.827   3.767  14.416  1.3471  0.2781  0.1889
  872TIP3   OH224030   1.519   5.634  15.417 -0.1347  0.0684  0.1269
  872TIP3    H124031   1.578   5.656  15.489 -1.0304  0.2378  0.8259
  872TIP3    H224032   1.567   5.658  15.338  0.0457  1.8560  0.7456
  873TIP3   OH224033   1.109   3.961   2.135 -0.3680  0.1729 -0.6403
  873TIP3    H124034   1.136   3.924   2.219  1.0707 -0.2127 -1.2564
  873TIP3    H224035   1.168   4.035   2.121 -2.0042  1.5834 -0.3042
  874TIP3   OH224036   1.819   0.079   1.865  0.1929  0.3903  0.3168
  874TIP3    H124037   1.840  -0.013   1.885  1.1879  0.5941  0.2731
  874TIP3    H224038   1.902   0.115   1.832 -0.2561  1.2404  0.1159
  875TIP3   OH224039   5.826   2.358   5.990  0.0879  0.1884 -0.0719
  875TIP3    H124040   5.885   2.291   5.953  1.1352 -0.2321  2.2765
  875TIP3    H224041   5.883   2.434   6.004  0.5798 -0.7713  3.8187
  876TIP3   OH224042   4.469   4.584  12.964  0.4284 -0.1495  0.6769
  876TIP3    H124043   4.463   4.544  12.878  0.9752  1.0088  0.0917
  876TIP3    H224044   4.559   4.569  12.992  0.8136  1.1701  0.1933
  877TIP3   OH224045   4.244   6.773  11.508 -0.2269 -0.0451 -0.1554
  877TIP3    H124046   4.167   6.725  11.477 -0.6836  0.5213  0.0680
  877TIP3    H224047   4.219   6.865  11.501  1.0376  0.2021 -1.5840
  878TIP3   OH224048   5.692   1.602  14.699 -0.1515  0.4141 -0.9651
  878TIP3    H124049   5.639   1.667  14.653 -0.6399  0.6838 -0.0498
  878TIP3    H224050   5.766   1.585  14.641  1.0366  3.2850 -0.3879
  879TIP3   OH224051   5.121   0.943  10.985  0.1586 -0.0547  0.5083
  879TIP3    H124052   5.145   0.867  10.932  0.9999  0.0905  0.6819
  879TIP3    H224053   5.053   0.910  11.044 -2.1777  0.2273 -1.8973
  880TIP3   OH224054   0.505   1.131   0.538  0.3754 -0.0529 -0.1757
  880TIP3    H124055   0.551   1.203   0.494  0.6596 -0.3756 -0.4004
  880TIP3    H224056   0.572   1.065   0.553  0.1503 -0.1976  0.2007
  881TIP3   OH224057   3.432   4.452   5.143 -0.0659  0.4819 -0.9971
  881TIP3    H124058   3.411   4.472   5.235 -0.3713  1.4071 -1.2616
  881TIP3    H224059   3.524   4.477   5.133  0.5980 -1.5972 -0.3967
  882TIP3   OH224060   0.249   5.397  13.344 -0.6391 -0.4077 -0.2871
  882TIP3    H124061   0.291   5.479  13.369  0.9010 -0.7201 -1.7672
  882TIP3    H224062   0.235   5.405  13.250 -3.9194 -0.3258  0.1679
  883TIP3   OH224063   4.408   0.782  14.663  0.0536 -1.3814 -0.8071
  883TIP3    H124064   4.420   0.824  14.579  3.3856 -1.7397 -0.5900
  883TIP3    H224065   4.422   0.851  14.728 -1.6894 -1.2833 -0.5001
  884TIP3   OH224066   1.046   3.072  16.703  0.1182  0.1701  0.0234
  884TIP3    H124067   1.086   3.139  16.648  0.4530 -0.4411 -0.4803
  884TIP3    H224068   0.970   3.043  16.653  0.9549 -1.0513 -0.5539
  885TIP3   OH224069   3.968   2.110   5.312  0.3366 -0.0290 -0.1428
  885TIP3    H124070   3.880   2.100   5.349  0.4789  1.3311  0.5731
  885TIP3    H224071   3.965   2.059   5.231 -0.7878 -0.8540  0.3965
  886TIP3   OH224072   4.349   3.537   4.514  0.6882 -0.3017  0.4122
  886TIP3    H124073   4.388   3.528   4.427  0.6387  0.6386  0.2864
  886TIP3    H224074   4.290   3.612   4.506  0.4840 -0.3801  1.1815
  887TIP3   OH224075   3.000   4.114  13.400  0.3245  0.3515  0.3756
  887TIP3    H124076   3.002   4.062  13.481  1.7303 -1.4896 -0.7996
  887TIP3    H224077   2.908   4.122  13.379  0.0816 -1.8282  0.5002
  888TIP3   OH224078   0.013   0.221  17.009  0.2448 -0.4911  0.0843
  888TIP3    H124079   0.102   0.193  16.987  0.2171 -1.8559  1.5785
  888TIP3    H224080   0.020   0.315  17.020  0.8676 -0.1554 -2.7347
  889TIP3   OH224081   2.005   2.102   6.036 -0.3994  0.0857 -0.0701
  889TIP3    H124082   2.030   2.049   6.112 -0.0494  0.6537  0.2086
  889TIP3    H224083   2.053   2.063   5.963 -0.5461 -0.3082  0.0414
  890TIP3   OH224084   3.873   6.140  14.381  0.2794  0.3337  0.2306
  890TIP3    H124085   3.900   6.168  14.469 -1.0276  0.3682  0.6336
  890TIP3    H224086   3.793   6.090  14.396  1.0609 -1.2436 -0.7632
  891TIP3   OH224087   1.204   0.860   4.972 -0.3272  0.2705 -0.1108
  891TIP3    H124088   1.155   0.782   4.945 -0.3217  0.3863 -0.4615
  891TIP3    H224089   1.139   0.929   4.976 -0.2117  0.4026 -0.4802
  892TIP3   OH224090   2.653   4.285   5.984  0.7597  0.1334  0.4421
  892TIP3    H124091   2.741   4.267   6.017  2.4329  3.0013 -2.1098
  892TIP3    H224092   2.637   4.217   5.919  0.9263 -0.6412  1.2119
  893TIP3   OH224093   3.157   3.706   1.793  0.1834 -0.3431  1.0554
  893TIP3    H124094   3.154   3.619   1.754 -1.1853 -0.5772  1.6729
  893TIP3    H224095   3.072   3.745   1.773  1.0579  1.1658  0.1128
  894TIP3   OH224096   3.268   2.645   0.093 -0.3384  0.5572 -1.0158
  894TIP3    H124097   3.306   2.645   0.006  1.3294 -0.9592 -0.3087
  894TIP3    H224098   3.323   2.705   0.143  0.6458 -0.9892 -0.2091
  895TIP3   OH224099   2.155   0.705  13.155  0.0543 -0.0937 -0.2356
  895TIP3    H124100   2.243   0.696  13.120  1.0284 -0.4894  2.2471
  895TIP3    H224101   2.159   0.666  13.242 -2.6991 -0.5839 -0.2627
  896TIP3   OH224102   5.330   1.884   3.509 -0.1852  0.0699  0.0909
  896TIP3    H124103   5.310   1.816   3.444 -1.1530  1.2965 -0.9326
  896TIP3    H224104   5.261   1.875   3.575 -0.4463  0.1813 -0.1620
  897TIP3   OH224105   2.282   0.349   5.531  0.1072 -0.0728 -0.5421
  897TIP3    H124106   2.279   0.438   5.567  1.4270 -1.2755  2.6365
  897TIP3    H224107   2.365   0.345   5.485  0.8151 -0.1881  0.7381
  898TIP3   OH224108   0.718   0.383  12.857  0.3184 -0.6947  0.1355
  898TIP3    H124109   0.778   0.339  12.798  2.0310  1.8567 -0.1139
  898TIP3    H224110   0.751   0.363  12.945 -0.6263 -2.2634  0.1397
  899TIP3   OH224111   1.180   1.144  15.586  0.0785 -0.2715 -0.4311
  899TIP3    H124112   1.174   1.207  15.515  0.4089 -0.4367 -0.6100
  899TIP3    H224113   1.261   1.167  15.632  0.1762 -0.5329 -0.4701
  900TIP3   OH224114   2.515   5.710  13.551 -0.0870  0.2273  0.0979
  900TIP3    H124115   2.556   5.648  13.611 -0.3603 -0.7633 -0.7269
  900TIP3    H224116   2.435   5.738  13.597  0.0962  0.0554  0.5237
  901TIP3   OH224117   6.573   4.931   3.129 -0.1986  0.9335  0.0562
  901TIP3    H124118   6.544   4.935   3.038 -1.8598  0.1252  0.5375
  901TIP3    H224119   6.668   4.941   3.124  0.1927 -2.7495 -2.1046
  902TIP3   OH224120   2.878   3.127   1.096 -0.1371 -0.2952 -0.0258
  902TIP3    H124121   2.835   3.207   1.066 -0.1185 -0.2796 -0.0101
  902TIP3    H224122   2.805   3.070   1.122 -0.1019  0.1213  0.9829
  903TIP3   OH224123   3.527   0.478  15.111 -0.2472 -0.2366 -0.2085
  903TIP3    H124124   3.484   0.517  15.035 -1.5151 -0.5273  0.3423
  903TIP3    H224125   3.532   0.384  15.090  0.6623 -0.1123 -0.5325
  904TIP3   OH224126   5.943   3.831  13.672  0.2577 -0.4926 -0.1684
  904TIP3    H124127   5.889   3.773  13.725  1.5237 -0.3140  1.3378
  904TIP3    H224128   5.921   3.919  13.704  1.1481 -0.3960  0.1896
  905TIP3   OH224129   3.625   6.699   0.044 -0.0823  0.0811 -0.5544
  905TIP3    H124130   3.583   6.709   0.130  0.9296  1.9716 -0.2592
  905TIP3    H224131   3.568   6.746  -0.016 -0.9215 -1.4551 -0.9705
  906TIP3   OH224132   0.173   3.938  13.469 -0.3577  0.6831 -0.0228
  906TIP3    H124133   0.164   3.845  13.488 -2.3642  0.9227  0.3138
  906TIP3    H224134   0.088   3.976  13.492  0.0454  2.4078 -1.2379
  907TIP3   OH224135   1.335   5.300   4.661  0.1722 -0.7416  0.2086
  907TIP3    H124136   1.314   5.330   4.749 -0.5002 -1.5452  0.3242
  907TIP3    H224137   1.308   5.372   4.604  1.3786  0.1291  0.7060
  908TIP3   OH224138   2.526   5.628   6.370  0.5303 -0.5381 -0.0416
  908TIP3    H124139   2.449   5.605   6.422 -1.7045  3.7009 -1.2716
  908TIP3    H224140   2.590   5.658   6.435  0.0864 -1.3109  0.7670
  909TIP3   OH224141   0.819   2.468  12.040  0.2598 -0.2257  0.4390
  909TIP3    H124142   0.882   2.528  12.080 -0.0526  0.7634 -0.5170
  909TIP3    H224143   0.770   2.523  11.978 -0.1534 -1.4398 -0.3207
  910TIP3   OH224144   6.188   0.468  17.065 -0.2321  0.7430  0.5766
  910TIP3    H124145   6.177   0.450  16.972 -2.8098 -1.1672  1.1888
  910TIP3    H224146   6.258   0.409  17.093 -1.6892 -1.0772  0.4807
  911TIP3   OH224147   2.205   0.973   5.964 -0.1243 -0.3986  0.2804
  911TIP3    H124148   2.254   0.956   5.883  0.1756  0.3159  0.3056
  911TIP3    H224149   2.262   0.944   6.034 -1.1830 -2.8594  0.1657
  912TIP3   OH224150   0.862   2.536   3.990  0.1906  0.2827 -0.8190
  912TIP3    H124151   0.932   2.594   4.018 -1.5600  1.6682  0.8311
  912TIP3    H224152   0.869   2.535   3.894  1.8322  1.1580 -0.7313
  913TIP3   OH224153   2.067   6.402   3.235  0.1737 -0.0776  0.2527
  913TIP3    H124154   2.095   6.490   3.260 -2.0521  0.5634  0.5540
  913TIP3    H224155   2.089   6.394   3.143 -0.0336  0.9687  0.1113
  914TIP3   OH224156   4.294   4.404  15.723 -0.2183  0.3548  0.2436
  914TIP3    H124157   4.280   4.434  15.634 -0.7298 -0.9644 -0.1359
  914TIP3    H224158   4.384   4.371  15.723 -0.7023 -0.9985 -0.1924
  915TIP3   OH224159   5.438   1.726  15.635  0.0273  0.6869  0.2950
  915TIP3    H124160   5.445   1.638  15.598  1.7358  0.8354  0.2525
  915TIP3    H224161   5.513   1.733  15.694 -0.2207  2.0483  0.4515
  916TIP3   OH224162   6.488   2.457   4.471  0.5234 -0.0754 -0.5762
  916TIP3    H124163   6.394   2.472   4.459  0.0633 -0.9062  1.6660
  916TIP3    H224164   6.531   2.531   4.428 -1.2583  1.5361  0.3369
  917TIP3   OH224165   5.111   0.278  15.855 -0.2946  0.3187 -0.1348
  917TIP3    H124166   5.070   0.358  15.888 -0.5833 -0.5119  1.5033
  917TIP3    H224167   5.041   0.214  15.852  0.6243 -0.8112  1.7093
  918TIP3   OH224168   5.489   4.161  11.253  0.3730 -0.4569 -0.1612
  918TIP3    H124169   5.397   4.158  11.224  0.9333  1.8450 -2.3679
  918TIP3    H224170   5.535   4.103  11.193  1.0325  1.8371 -1.9247
  919TIP3   OH224171   1.052   6.084   5.293  0.3651  0.1335  0.2516
  919TIP3    H124172   1.117   6.104   5.359 -1.4602  3.2699  1.1608
  919TIP3    H224173   0.995   6.160   5.290 -1.6471 -1.3630 -2.4974
  920TIP3   OH224174   4.454   4.344  11.409  0.0059 -0.1853 -0.8268
  920TIP3    H124175   4.377   4.370  11.358 -0.0529 -0.4515 -0.8758
  920TIP3    H224176   4.490   4.269  11.362  1.4213  1.1327 -1.8636
  921TIP3   OH224177   6.599   1.277  13.060  0.0179  0.1109  0.5839
  921TIP3    H124178   6.645   1.252  13.140 -0.6412  0.2190  1.0039
  921TIP3    H224179   6.597   1.198  13.007  1.8117  0.4425  0.0109
  922TIP3   OH224180   5.095   1.947  15.447 -0.0687 -0.2557  0.3884
  922TIP3    H124181   5.032   2.019  15.435 -0.3161 -0.2312  1.7964
  922TIP3    H224182   5.091   1.898  15.365 -0.1591  1.1330 -0.4629
  923TIP3   OH224183   3.860   2.578  15.815 -0.1304 -0.0097  0.0583
  923TIP3    H124184   3.888   2.500  15.767 -1.4617  0.1121 -0.9377
  923TIP3    H224185   3.831   2.544  15.900  1.0791 -0.3718  0.3268
  924TIP3   OH224186   3.404   6.109  15.528 -0.0478 -0.0661 -0.5452
  924TIP3    H124187   3.331   6.116  15.467 -0.4550  0.4621 -0.0030
  924TIP3    H224188   3.440   6.021  15.513 -0.1113  0.0833 -1.5708
  925TIP3   OH224189   4.566   4.936   2.671 -0.2963  0.1354  0.7451
  925TIP3    H124190   4.481   4.950   2.712 -0.6575  0.2750 -0.0323
  925TIP3    H224191   4.589   5.022   2.633  0.1244  0.0640  0.8332
  926TIP3   OH224192   0.380   4.944  15.752  0.2064  0.1996  0.1001
  926TIP3    H124193   0.317   4.999  15.706  0.0647 -0.7346 -0.8493
  926TIP3    H224194   0.344   4.855  15.744 -0.1918  0.0869  2.6338
  927TIP3   OH224195   1.336   5.567   1.450  0.0760 -0.5248  0.2684
  927TIP3    H124196   1.389   5.642   1.475 -1.5511  0.2626  1.4513
  927TIP3    H224197   1.396   5.492   1.454  1.9785  0.8278 -1.9641
  928TIP3   OH224198   6.346   1.418  14.971  0.0320 -0.9148 -0.0056
  928TIP3    H124199   6.398   1.339  14.986  1.7695  0.2780  0.4130
  928TIP3    H224200   6.338   1.423  14.875  0.5549 -1.1979 -0.0658
  929TIP3   OH224201   6.457   5.265  14.447 -0.5381  0.0979 -0.2424
  929TIP3    H124202   6.451   5.170  14.442  0.1325  0.0487 -0.1496
  929TIP3    H224203   6.475   5.283  14.539  0.1386  0.2654 -0.4030
  930TIP3   OH224204   3.166   3.454   0.829  0.4164 -0.1336  0.6767
  930TIP3    H124205   3.245   3.493   0.792  0.5974 -0.5960  0.5681
  930TIP3    H224206   3.192   3.364   0.852 -0.3444 -0.6101 -0.2962
  931TIP3   OH224207   6.730   4.874   3.488  0.0469 -0.4585  0.5370
  931TIP3    H124208   6.792   4.932   3.533  1.3130 -2.4671  1.4944
  931TIP3    H224209   6.782   4.797   3.465 -1.6653 -1.3824 -0.3363
  932TIP3   OH224210   6.684   3.163  10.614 -0.1389 -1.1455 -0.3176
  932TIP3    H124211   6.670   3.077  10.654 -0.5630 -0.8616  0.1402
  932TIP3    H224212   6.597   3.203  10.609  0.1081 -0.5704 -0.1347
  933TIP3   OH224213   6.146   5.726  16.026 -0.6247 -0.3072 -0.6626
  933TIP3    H124214   6.164   5.673  16.103 -0.0097  0.1474 -0.4919
  933TIP3    H224215   6.129   5.814  16.060 -0.8286 -0.2151 -1.0015
  934TIP3   OH224216   6.310   0.051   3.289 -0.0522  0.1887 -0.0381
  934TIP3    H124217   6.353   0.081   3.369 -1.4975 -0.5014  1.0269
  934TIP3    H224218   6.379   0.050   3.223  1.5858 -1.0675  1.6549
  935TIP3   OH224219   1.243   4.945  11.774  0.0604 -0.1773  0.2642
  935TIP3    H124220   1.285   4.865  11.743 -0.2914 -0.8743  1.5581
  935TIP3    H224221   1.311   5.012  11.767  0.1650 -0.4215 -1.4459
  936TIP3   OH224222   4.740   0.030   5.516  0.2611  0.2527 -0.0093
  936TIP3    H124223   4.756   0.047   5.423  1.3378 -0.6916 -0.0126
  936TIP3    H224224   4.693   0.107   5.547  0.2244  0.7437 -1.2502
  937TIP3   OH224225   2.152   0.441   4.686 -0.2235  0.3762 -0.1801
  937TIP3    H124226   2.209   0.376   4.725  1.8057  2.1590 -0.0673
  937TIP3    H224227   2.064   0.419   4.717  0.6764 -1.2209  1.2566
  938TIP3   OH224228   2.406   2.183  14.859  0.4590 -0.3321 -0.3558
  938TIP3    H124229   2.344   2.181  14.786  1.6859  0.8280 -1.4790
  938TIP3    H224230   2.475   2.121  14.833  0.4542 -0.5881  0.2390
  939TIP3   OH224231   1.767   1.632  14.941  0.3449  0.1454 -0.6604
  939TIP3    H124232   1.824   1.559  14.917  1.2407 -0.5589  3.1949
  939TIP3    H224233   1.825   1.708  14.947  0.7004 -0.2500  1.7072
  940TIP3   OH224234   4.425   6.622   4.098  0.4814 -0.1761  0.8050
  940TIP3    H124235   4.388   6.677   4.029 -1.5331 -1.5786  0.7393
  940TIP3    H224236   4.485   6.563   4.051  0.4357  0.0243  0.4904
  941TIP3   OH224237   6.782   0.433   1.085 -0.3974 -0.2173  0.4919
  941TIP3    H124238   6.783   0.352   1.135 -0.6397  0.0372  0.9027
  941TIP3    H224239   6.840   0.415   1.010 -1.9011 -1.3952 -0.4256
  942TIP3   OH224240   4.827   6.540   5.575 -0.1431 -0.2147  0.2051
  942TIP3    H124241   4.751   6.571   5.525  1.5074  0.7243 -1.8215
  942TIP3    H224242   4.850   6.457   5.534  0.0996 -0.3409  0.6009
  943TIP3   OH224243   0.498   2.505  15.570 -0.2692 -0.1200 -0.1062
  943TIP3    H124244   0.590   2.505  15.547 -0.3461  1.2602 -0.4678
  943TIP3    H224245   0.494   2.465  15.657  0.9326  1.7829  0.8620
  944TIP3   OH224246   0.430   4.482  15.882 -0.0383  0.0050  0.4022
  944TIP3    H124247   0.432   4.529  15.965  0.3253 -0.7844  0.8552
  944TIP3    H224248   0.477   4.400  15.900 -0.9719 -0.6917 -0.2618
  945TIP3   OH224249   4.012   2.593  11.645  0.0793  0.4237  0.4553
  945TIP3    H124250   4.089   2.646  11.623 -0.0668  1.0492  1.4103
  945TIP3    H224251   4.013   2.522  11.581  0.6514  1.2148 -0.4363
  946TIP3   OH224252   3.271   1.825  15.349  0.1275 -0.0677 -0.0562
  946TIP3    H124253   3.182   1.860  15.340 -0.6054 -1.8764 -0.1640
  946TIP3    H224254   3.328   1.897  15.323 -1.3676  0.6171 -1.5817
  947TIP3   OH224255   6.598   5.994  16.816  0.4145  0.0687  0.0010
  947TIP3    H124256   6.672   5.934  16.808  0.0898 -0.4679  0.8692
  947TIP3    H224257   6.548   5.981  16.736  1.2474  0.4265 -0.5920
  948TIP3   OH224258   6.067   5.405  12.128 -0.0172 -0.0346  0.1117
  948TIP3    H124259   6.129   5.433  12.061  1.7330 -0.5513  1.4637
  948TIP3    H224260   5.996   5.469  12.124  0.8085  0.8210 -1.1628
  949TIP3   OH224261   6.450   1.833  15.306 -0.6152  0.2084  0.6498
  949TIP3    H124262   6.455   1.891  15.231 -0.9832 -0.4222  0.1327
  949TIP3    H224263   6.365   1.851  15.345 -0.6566  0.1392  0.5892
  950TIP3   OH224264   2.228   4.381   6.597  0.1931  0.7921  0.5339
  950TIP3    H124265   2.139   4.381   6.560  0.3888  0.7513  0.0568
  950TIP3    H224266   2.257   4.472   6.587  0.2830  0.7590  0.4934
  951TIP3   OH224267   1.245   3.562  12.997 -0.2153 -0.1941 -0.6019
  951TIP3    H124268   1.284   3.564  12.909 -2.0910 -2.5904 -1.5809
  951TIP3    H224269   1.196   3.644  13.003  0.6276  0.3881 -1.4460
  952TIP3   OH224270   6.258   4.033   5.810  0.0492 -0.0715 -0.0964
  952TIP3    H124271   6.268   3.957   5.868 -0.7975  0.2398  0.4750
  952TIP3    H224272   6.169   4.065   5.828  0.1907  0.7055 -0.7512
  953TIP3   OH224273   1.900   0.744  14.147 -0.0145 -0.0729 -0.1024
  953TIP3    H124274   1.812   0.758  14.111 -0.1297  2.3407  1.0320
  953TIP3    H224275   1.950   0.820  14.118  0.6496  0.5112  2.4766
  954TIP3   OH224276   2.189   4.779  16.790 -0.1288  0.0813 -0.1315
  954TIP3    H124277   2.262   4.837  16.768 -0.5724  1.3116  1.5347
  954TIP3    H224278   2.230   4.704  16.834  0.0170  1.4525  2.1081
  955TIP3   OH224279   5.822   2.111  12.325  0.0116  0.5168  0.0711
  955TIP3    H124280   5.889   2.147  12.383 -1.3833  1.9016  0.8539
  955TIP3    H224281   5.754   2.077  12.383 -0.6233  0.3937 -0.7247
  956TIP3   OH224282   4.491   6.527  16.487 -0.1145  0.2805  0.0680
  956TIP3    H124283   4.571   6.579  16.492 -0.3561  0.9150 -2.1462
  956TIP3    H224284   4.431   6.569  16.549  0.7551  0.7308  0.6039
  957TIP3   OH224285   1.652   4.286  13.896  0.1259 -0.6608  0.4989
  957TIP3    H124286   1.566   4.288  13.937  0.0065 -0.9792  0.2617
  957TIP3    H224287   1.698   4.362  13.933 -0.8893  0.5985 -0.7965
  958TIP3   OH224288   0.737   3.876   0.482  0.0283 -0.2771 -0.2597
  958TIP3    H124289   0.795   3.940   0.442  1.9050 -0.8069  1.5315
  958TIP3    H224290   0.705   3.823   0.409  0.8730  0.7531 -1.3852
  959TIP3   OH224291   4.460   5.878   5.698  0.5857 -0.0606 -0.1657
  959TIP3    H124292   4.552   5.890   5.719  0.7643 -2.8418  0.8165
  959TIP3    H224293   4.423   5.833   5.774 -1.4888  0.5561 -0.7600
  960TIP3   OH224294   0.007   6.106   2.964 -0.2597 -0.1526  0.5650
  960TIP3    H124295  -0.051   6.153   2.904 -0.2421 -0.0025  0.6664
  960TIP3    H224296   0.093   6.110   2.923 -0.0668  0.7252  1.0346
  961TIP3   OH224297   0.543   3.820  14.487  0.2371  0.3212 -0.0104
  961TIP3    H124298   0.553   3.841  14.579  0.2840 -1.2001  0.3340
  961TIP3    H224299   0.574   3.730  14.478 -3.0658 -0.7958 -0.8569
  962TIP3   OH224300   4.947   0.433   5.498  0.3537  0.4678 -0.3634
  962TIP3    H124301   4.998   0.476   5.431  0.6439  1.8621  0.7340
  962TIP3    H224302   4.860   0.472   5.492  0.1914  0.1143 -0.3628
  963TIP3   OH224303   4.736   4.817  12.357  0.0076  0.1252 -0.5932
  963TIP3    H124304   4.769   4.906  12.371 -0.3186  0.1614 -0.0008
  963TIP3    H224305   4.643   4.823  12.379  0.0918 -0.4695 -0.0519
  964TIP3   OH224306   0.440   3.876   4.996 -0.3538  0.2292 -0.0436
  964TIP3    H124307   0.465   3.814   4.928  3.1682  0.8313  0.6302
  964TIP3    H224308   0.459   3.831   5.078  2.5506  2.2042  0.4599
  965TIP3   OH224309   3.163   1.678   0.740 -0.0453 -0.6154 -0.1146
  965TIP3    H124310   3.221   1.602   0.729  0.1849 -0.3567 -0.6918
  965TIP3    H224311   3.222   1.754   0.736 -0.1204 -0.4474  1.5680
  966TIP3   OH224312   6.782   6.683   4.535  0.2200 -0.3398  0.0546
  966TIP3    H124313   6.863   6.727   4.560  2.3545 -3.8055 -0.3308
  966TIP3    H224314   6.723   6.695   4.610  1.7877  0.6434  1.1479
  967TIP3   OH224315   2.752   5.311  15.917  0.3477 -0.0771  0.5058
  967TIP3    H124316   2.799   5.232  15.890  0.9238 -0.0307  1.3629
  967TIP3    H224317   2.662   5.295  15.889  0.6229 -0.6907 -0.0507
  968TIP3   OH224318   2.988   2.494  15.869 -0.1544 -0.0203  0.7349
  968TIP3    H124319   3.031   2.421  15.914  2.2454  0.4670 -0.6815
  968TIP3    H224320   3.055   2.562  15.863 -1.5250  1.2834 -0.3790
  969TIP3   OH224321   1.003   3.219   5.297 -0.1503  0.1722  0.0498
  969TIP3    H124322   0.972   3.245   5.384 -0.5743 -1.4951  0.4152
  969TIP3    H224323   1.077   3.278   5.280 -2.7748  3.5067 -0.3880
  970TIP3   OH224324   1.178   2.511  12.808  0.1428 -0.2731  0.5054
  970TIP3    H124325   1.123   2.479  12.880 -1.0082  1.0929  0.2658
  970TIP3    H224326   1.219   2.433  12.773 -0.5898 -1.1612  1.5830
  971TIP3   OH224327   5.805   1.766   2.716 -0.1831 -0.0099 -0.2619
  971TIP3    H124328   5.782   1.846   2.669 -1.4604 -0.6522 -0.7461
  971TIP3    H224329   5.739   1.759   2.786  0.1695 -0.4195  0.0324
  972TIP3   OH224330   3.266   6.293   0.333  0.0671 -0.2913  0.0671
  972TIP3    H124331   3.239   6.325   0.419 -0.4742  3.8128 -1.4966
  972TIP3    H224332   3.184   6.283   0.285  0.5312  0.5675 -0.9331
  973TIP3   OH224333   3.728   1.818  14.291  0.5585 -0.6375  0.0386
  973TIP3    H124334   3.753   1.726  14.286 -1.7120 -1.2165 -1.5474
  973TIP3    H224335   3.769   1.858  14.215 -0.2090 -0.7987 -0.4641
  974TIP3   OH224336   4.685   3.301  13.726 -0.5064  0.1553 -0.2195
  974TIP3    H124337   4.744   3.244  13.677 -0.9923 -1.1724  0.7117
  974TIP3    H224338   4.663   3.251  13.805 -1.2631  1.4675  0.4225
  975TIP3   OH224339   4.455   4.790   0.781 -0.2619  0.4246  0.7263
  975TIP3    H124340   4.382   4.781   0.721 -0.1190 -0.0014  0.6175
  975TIP3    H224341   4.487   4.701   0.795  1.1329  0.7352 -0.3475
  976TIP3   OH224342   5.616   2.792  13.105 -0.1424 -0.2345  0.2437
  976TIP3    H124343   5.703   2.813  13.073  0.1549  0.1817  1.2939
  976TIP3    H224344   5.577   2.877  13.126 -0.6617 -0.4416  0.1251
  977TIP3   OH224345   5.490   1.927  14.195  0.4710 -0.7594 -0.1212
  977TIP3    H124346   5.517   1.976  14.118 -0.0208 -0.0724  0.1410
  977TIP3    H224347   5.433   1.986  14.243 -0.4142 -1.7168  0.0204
  978TIP3   OH224348   4.993   1.856  12.540 -0.6888 -0.5631 -0.0385
  978TIP3    H124349   5.037   1.843  12.624 -1.9205  2.2448  1.1063
  978TIP3    H224350   4.938   1.778  12.530 -2.0429 -0.0691  2.8098
  979TIP3   OH224351   4.242   5.817  13.098 -0.5822  0.6520  0.3129
  979TIP3    H124352   4.285   5.876  13.159  1.0885 -0.7568  0.5585
  979TIP3    H224353   4.308   5.798  13.031 -0.3201 -2.5344  1.3635
  980TIP3   OH224354   6.569   2.592   1.401 -0.6111  0.3206  0.3490
  980TIP3    H124355   6.665   2.597   1.408 -0.5963  1.9889 -0.8294
  980TIP3    H224356   6.551   2.595   1.307 -1.8329  0.2094  0.5682
  981TIP3   OH224357   1.651   0.112  16.523 -0.7640 -0.3943 -0.8608
  981TIP3    H124358   1.673   0.153  16.607 -0.4686 -2.5751  0.1601
  981TIP3    H224359   1.722   0.136  16.464  0.4913 -1.1537  0.3146
  982TIP3   OH224360   3.699   6.020  12.792  0.3669  0.0883 -0.1381
  982TIP3    H124361   3.692   5.962  12.716  0.1006 -1.3648  0.9605
  982TIP3    H224362   3.608   6.044  12.812  0.3819 -0.0097  0.0559
  983TIP3   OH224363   4.192   1.636  12.623 -0.1633  0.1072  0.3438
  983TIP3    H124364   4.217   1.544  12.619 -0.0451  0.1112  1.0390
  983TIP3    H224365   4.135   1.642  12.699  0.7275  0.8250  0.9635
  984TIP3   OH224366   5.018   3.702  15.484  0.0170  0.6522 -0.4256
  984TIP3    H124367   5.060   3.633  15.535  0.6734  2.0238  0.9056
  984TIP3    H224368   4.979   3.655  15.410 -0.8934 -1.3761  1.2575
  985TIP3   OH224369   4.043   0.377  14.922 -0.1120 -0.5706 -0.5649
  985TIP3    H124370   4.041   0.312  14.852 -0.2403  0.2017 -1.2932
  985TIP3    H224371   3.954   0.411  14.926 -0.3840 -1.3843  0.7327
  986TIP3   OH224372   5.419   2.359  16.671  0.5030  0.3866  0.0221
  986TIP3    H124373   5.388   2.269  16.670 -0.1350  0.5911  0.6030
  986TIP3    H224374   5.430   2.382  16.579 -0.8460  0.2181 -0.1972
  987TIP3   OH224375   4.582   1.581  12.512 -0.5375  0.6748 -0.4260
  987TIP3    H124376   4.555   1.656  12.564 -2.8987 -0.9689  0.8239
  987TIP3    H224377   4.617   1.519  12.576  0.8903  0.4772 -1.3732
  988TIP3   OH224378   0.253   2.760  15.305 -0.3230  0.3831 -0.4882
  988TIP3    H124379   0.348   2.773  15.293  0.0546 -1.2287  0.5462
  988TIP3    H224380   0.223   2.729  15.219  0.3408 -0.3311 -0.4751
  989TIP3   OH224381   5.114   0.231   2.672  0.2687  0.0576  1.0332
  989TIP3    H124382   5.046   0.169   2.647 -0.3439  1.3318 -0.6039
  989TIP3    H224383   5.130   0.214   2.765 -0.9402 -1.5177  0.9686
  990TIP3   OH224384   3.568   1.468   3.672  0.2762 -0.1246  0.1735
  990TIP3    H124385   3.497   1.531   3.678  1.1842  1.0180 -0.7791
  990TIP3    H224386   3.647   1.518   3.694  1.4593 -0.0363 -3.8867
  991TIP3   OH224387   2.469   3.618   1.185 -0.4303 -0.2517  0.2380
  991TIP3    H124388   2.465   3.713   1.173  0.4602  0.3250  3.8976
  991TIP3    H224389   2.381   3.594   1.215  0.0518 -0.1679  1.7505
  992TIP3   OH224390   5.365   2.029   3.931  1.0441  0.3805 -0.2279
  992TIP3    H124391   5.453   2.017   3.894  0.3494 -1.4417 -1.3085
  992TIP3    H224392   5.305   2.009   3.859 -0.2917  0.3986  0.8578
  993TIP3   OH224393   4.377   5.352   2.777  0.2201  0.3623  0.1466
  993TIP3    H124394   4.305   5.290   2.776  0.1923  0.3748 -1.8288
  993TIP3    H224395   4.435   5.323   2.706  1.1394  1.5184  0.3911
  994TIP3   OH224396   3.273   0.191   1.951 -0.0564 -0.8272  0.2188
  994TIP3    H124397   3.332   0.266   1.941 -0.5120 -0.4348  0.4732
  994TIP3    H224398   3.253   0.164   1.861  0.7954 -1.1897  0.1325
  995TIP3   OH224399   5.445   0.318  11.328 -0.4914 -0.1129 -0.1543
  995TIP3    H124400   5.369   0.375  11.315 -0.5192 -0.4077 -1.2757
  995TIP3    H224401   5.503   0.339  11.255  0.3249 -0.1952  0.4638
  996TIP3   OH224402   3.965   2.311  12.387 -0.3197 -0.1722 -0.2697
  996TIP3    H124403   3.978   2.259  12.467  3.5697 -1.4882 -1.6515
  996TIP3    H224404   3.900   2.262  12.337  0.6164 -1.8359  0.0872
  997TIP3   OH224405   3.283   4.716  15.884  0.0114 -0.1786 -0.4995
  997TIP3    H124406   3.294   4.797  15.835  0.6775  2.1917  3.4036
  997TIP3    H224407   3.372   4.681  15.893  0.1619  0.5678  0.9335
  998TIP3   OH224408   3.778   6.407  16.695  1.3646 -0.0893  0.5238
  998TIP3    H124409   3.770   6.427  16.788  0.0889 -2.3941  0.9541
  998TIP3    H224410   3.868   6.374  16.685  1.6443  0.5628  0.8395
  999TIP3   OH224411   1.864   0.858   3.246  0.5491 -0.7636  0.4209
  999TIP3    H124412   1.868   0.952   3.265  0.2831 -0.8915  1.1087
  999TIP3    H224413   1.952   0.835   3.219  0.4607 -0.1744 -0.3995
 1000TIP3   OH224414   1.778   3.227   5.014 -0.3068  0.0489  0.0147
 1000TIP3    H124415   1.787   3.158   5.080  0.1589 -0.4623 -0.5813
 1000TIP3    H224416   1.862   3.273   5.017  0.1496 -0.7061 -1.0398
 1001TIP3   OH224417   1.010   2.141  14.211  0.2751  0.1622  0.1556
 1001TIP3    H124418   1.034   2.188  14.131  1.0992 -2.5919 -1.2455
 1001TIP3    H224419   1.078   2.166  14.274 -0.7826  2.9194  0.2594
 1002TIP3   OH224420   3.181   5.414  10.979  0.1657  0.3155 -0.2824
 1002TIP3    H124421   3.229   5.432  10.899  2.6482  1.4418  1.4086
 1002TIP3    H224422   3.228   5.343  11.021 -0.5182  0.3902  0.6534
 1003TIP3   OH224423   5.197   4.207   5.765  0.0900  0.1277  0.0521
 1003TIP3    H124424   5.268   4.152   5.798  0.7834  1.4028  0.7205
 1003TIP3    H224425   5.216   4.217   5.671 -0.3452 -1.2056 -0.1882
 1004TIP3   OH224426   4.184   5.179  15.106  0.0531  0.2737 -0.3462
 1004TIP3    H124427   4.275   5.150  15.102  0.2264  0.2461  2.4315
 1004TIP3    H224428   4.189   5.273  15.120 -0.3396  0.2891 -0.3076
 1005TIP3   OH224429   5.031   3.283  15.971  0.1822  0.0865 -0.4594
 1005TIP3    H124430   5.115   3.278  15.926  1.0833 -0.9476  1.2728
 1005TIP3    H224431   5.052   3.262  16.062 -2.1427 -1.3852 -0.2450
 1006TIP3   OH224432   0.491   4.587   6.564  0.0870  0.1350  0.0301
 1006TIP3    H124433   0.504   4.651   6.493 -0.5312  0.8542  0.5505
 1006TIP3    H224434   0.414   4.537   6.537  1.8012 -1.8252 -1.3959
 1007TIP3   OH224435   2.928   0.299   5.514 -0.2107  0.3506  0.3033
 1007TIP3    H124436   3.001   0.299   5.452 -1.4700  0.8540 -1.1783
 1007TIP3    H224437   2.921   0.207   5.541  1.4680  0.4148  1.0900
 1008TIP3   OH224438   6.758   6.344   3.314  0.0293 -0.6913  0.1164
 1008TIP3    H124439   6.801   6.356   3.230  1.8552 -0.4879  1.0614
 1008TIP3    H224440   6.804   6.271   3.355 -1.3182 -1.2762  0.6569
 1009TIP3   OH224441   2.578   1.546  12.567  0.0915  0.8080 -0.3225
 1009TIP3    H124442   2.566   1.465  12.617  0.2509  0.4299 -0.8908
 1009TIP3    H224443   2.646   1.594  12.614  1.2594 -0.1908 -0.9768
 1010TIP3   OH224444   5.683   4.018   0.510  0.7719 -0.2717  0.4907
 1010TIP3    H124445   5.619   3.947   0.518  0.4627 -0.1280 -0.6159
 1010TIP3    H224446   5.767   3.974   0.506  0.6484 -0.5294  0.7227
 1011TIP3   OH224447   3.765   0.150   4.188  0.1001  0.7756  0.5067
 1011TIP3    H124448   3.815   0.195   4.256 -2.6330  1.0413  2.3993
 1011TIP3    H224449   3.774   0.057   4.209  0.5724  0.7687  0.2798
 1012TIP3   OH224450   1.714   5.353   0.704 -0.3169  0.0482  0.3760
 1012TIP3    H124451   1.718   5.257   0.697 -1.1254  0.0565 -0.3274
 1012TIP3    H224452   1.620   5.372   0.708 -0.1639  0.8296  0.1981
 1013TIP3   OH224453   3.437   3.795   3.967  0.0397  0.2191 -1.0516
 1013TIP3    H124454   3.486   3.792   4.049  0.9786  0.0556 -1.6096
 1013TIP3    H224455   3.448   3.707   3.930  1.0365  0.7931 -2.1581
 1014TIP3   OH224456   4.634   2.503  11.197  0.0136 -0.5590 -0.3411
 1014TIP3    H124457   4.682   2.583  11.217  0.8926 -0.6981 -1.7778
 1014TIP3    H224458   4.545   2.533  11.179  0.8304  0.4485 -3.1036
 1015TIP3   OH224459   1.047   4.542   4.258  0.2442 -0.0872 -0.3285
 1015TIP3    H124460   0.999   4.601   4.317 -0.4717 -0.7584 -0.2436
 1015TIP3    H224461   1.004   4.458   4.267  1.9009 -0.8801  0.2994
 1016TIP3   OH224462   6.081   5.847   3.930 -0.1482  0.6777  0.1496
 1016TIP3    H124463   6.111   5.771   3.980 -0.1694  0.0269 -0.8318
 1016TIP3    H224464   6.143   5.854   3.857 -1.5571  0.1729 -1.1091
 1017TIP3   OH224465   6.246   5.578  16.253  0.0810 -0.0128 -0.3400
 1017TIP3    H124466   6.278   5.494  16.288 -2.2615 -0.9403 -0.3082
 1017TIP3    H224467   6.303   5.644  16.293 -0.5232 -1.2986  2.7956
 1018TIP3   OH224468   3.215   4.859  13.717 -0.0018 -0.2520 -0.4642
 1018TIP3    H124469   3.158   4.935  13.729 -1.1687 -1.1508 -0.3186
 1018TIP3    H224470   3.222   4.849  13.622  0.7081  0.4421 -0.4919
 1019TIP3   OH224471   3.781   0.945   2.761 -0.0526 -0.7168  0.1548
 1019TIP3    H124472   3.755   0.863   2.803 -3.7228  0.4004  0.2338
 1019TIP3    H224473   3.752   1.013   2.822  2.0469  0.6838 -0.3810
 1020TIP3   OH224474   3.017   6.455  13.434  0.0995  0.1680 -0.0469
 1020TIP3    H124475   3.001   6.481  13.343 -0.0188  0.7535  0.1459
 1020TIP3    H224476   2.974   6.370  13.442  1.2040 -0.5047 -0.9166
 1021TIP3   OH224477   1.553   4.138  12.251 -0.5977 -0.4828 -0.1272
 1021TIP3    H124478   1.553   4.116  12.344  3.2314  0.3307  0.1588
 1021TIP3    H224479   1.562   4.234  12.249  2.1152 -0.6984 -1.2470
 1022TIP3   OH224480   0.299   6.506   0.423 -0.2350 -0.2964  0.0892
 1022TIP3    H124481   0.237   6.484   0.493  0.4125 -1.0263  0.4275
 1022TIP3    H224482   0.385   6.505   0.465  0.0788  0.0851 -0.5322
 1023TIP3   OH224483   5.501   2.178  12.256 -0.3418  0.7922 -0.0681
 1023TIP3    H124484   5.486   2.109  12.321 -3.3905 -1.6906 -3.1782
 1023TIP3    H224485   5.563   2.139  12.194 -1.0301  1.3106 -1.0993
 1024TIP3   OH224486   6.446   3.712   0.293 -0.0100 -0.6524  0.2713
 1024TIP3    H124487   6.539   3.729   0.283 -0.2789  0.4039 -0.6393
 1024TIP3    H224488   6.440   3.619   0.314  1.3606 -0.3303  2.2063
 1025TIP3   OH224489   0.847   0.693  15.543 -0.4434 -0.0954  0.5352
 1025TIP3    H124490   0.895   0.771  15.514 -0.5218 -0.0726  0.4654
 1025TIP3    H224491   0.794   0.668  15.467 -0.0055 -0.5427  0.3705
 1026TIP3   OH224492   4.764   2.306   0.582  0.2581  0.4728  0.2369
 1026TIP3    H124493   4.758   2.349   0.667  0.3952  1.0746 -0.0535
 1026TIP3    H224494   4.790   2.216   0.602 -1.3717  0.1474  0.9424
 1027TIP3   OH224495   2.853   6.240   6.091  0.0496  0.5861 -0.3029
 1027TIP3    H124496   2.832   6.204   6.177 -0.8682 -1.2216 -1.2529
 1027TIP3    H224497   2.943   6.212   6.075  0.2323  0.9492  0.0662
 1028TIP3   OH224498   2.561   6.312   3.843  0.3278 -0.0923 -0.5206
 1028TIP3    H124499   2.476   6.274   3.868  1.2260 -2.4648 -0.9210
 1028TIP3    H224500   2.546   6.406   3.842 -1.3210 -0.2241  3.1545
 1029TIP3   OH224501   4.640   5.315  12.442 -0.3876 -0.1185  0.1561
 1029TIP3    H124502   4.724   5.314  12.487 -0.5352  1.0597  0.4813
 1029TIP3    H224503   4.622   5.408  12.427 -1.5874 -0.3642  0.0090
 1030TIP3   OH224504   2.594   1.188  16.222  0.4512  0.0222 -0.0865
 1030TIP3    H124505   2.648   1.119  16.182 -0.7457 -1.2418  0.4327
 1030TIP3    H224506   2.635   1.204  16.307  0.7107 -0.0755 -0.1927
 1031TIP3   OH224507   2.596   3.027   0.943 -0.5581 -0.3897  0.2262
 1031TIP3    H124508   2.618   3.004   1.034 -1.6620 -1.0156  0.3397
 1031TIP3    H224509   2.551   3.112   0.950  1.5630  0.7916  0.0124
 1032TIP3   OH224510   3.657   2.933  12.092  0.0737  0.0470  0.2682
 1032TIP3    H124511   3.693   3.009  12.138  0.4614 -0.2771  0.5031
 1032TIP3    H224512   3.641   2.965  12.003 -0.1762  0.5268  0.4812
 1033TIP3   OH224513   0.808   4.866  13.098 -0.4304 -0.1112 -0.1786
 1033TIP3    H124514   0.899   4.855  13.127  0.0069  1.1566 -1.0087
 1033TIP3    H224515   0.795   4.960  13.097 -2.2965 -0.3176  1.4699
 1034TIP3   OH224516   5.958   0.905   4.338 -0.2569  0.2297  0.2331
 1034TIP3    H124517   5.958   0.895   4.243 -3.0558 -1.5716  0.3637
 1034TIP3    H224518   6.004   0.828   4.370  0.6186  0.7978  0.3373
 1035TIP3   OH224519   5.291   6.675   3.567  0.0457 -0.0238 -0.0447
 1035TIP3    H124520   5.332   6.738   3.508 -1.4009  0.7713 -0.2224
 1035TIP3    H224521   5.231   6.727   3.620 -1.9586 -1.3779 -0.9131
 1036TIP3   OH224522   4.483   5.960   5.308  0.2809 -0.2414  0.3318
 1036TIP3    H124523   4.460   6.037   5.360 -0.1746 -0.0838 -0.0955
 1036TIP3    H224524   4.481   5.991   5.217 -0.4290 -0.8764  0.1195
 1037TIP3   OH224525   2.618   4.762  15.374 -0.0804 -0.0094 -0.4989
 1037TIP3    H124526   2.679   4.827  15.338  0.6774 -1.4160 -1.7897
 1037TIP3    H224527   2.631   4.768  15.469  0.6213  1.1070 -0.6472
 1038TIP3   OH224528   4.808   6.602   1.414  0.1105  0.4132  0.2470
 1038TIP3    H124529   4.770   6.561   1.337  0.8179 -0.7266  0.4913
 1038TIP3    H224530   4.744   6.586   1.484  0.5635 -0.6595  0.4351
 1039TIP3   OH224531   0.909   2.995  12.914 -0.1852 -0.0745 -0.6249
 1039TIP3    H124532   0.962   2.971  12.990 -1.1917 -1.7752 -0.4550
 1039TIP3    H224533   0.956   2.957  12.839 -1.0726 -1.4580 -0.4888
 1040TIP3   OH224534   2.248   4.372   0.868 -0.3157 -0.1910 -0.0816
 1040TIP3    H124535   2.197   4.428   0.810 -0.6259 -2.0612 -1.6830
 1040TIP3    H224536   2.326   4.349   0.817 -0.1932 -1.1766  0.5276
 1041TIP3   OH224537   0.638   4.050  13.088  0.2281 -0.4719  0.1116
 1041TIP3    H124538   0.718   4.102  13.089  0.5100 -0.8884  1.8856
 1041TIP3    H224539   0.622   4.032  12.995  2.1972 -0.3931 -0.2702
 1042TIP3   OH224540   6.307   4.588   5.563 -0.5045 -0.0401 -0.2651
 1042TIP3    H124541   6.366   4.567   5.490  1.1524 -1.7858  1.5403
 1042TIP3    H224542   6.351   4.660   5.609 -0.4647 -0.4273  0.2983
 1043TIP3   OH224543   0.290   1.676  15.376  0.9005  0.7473  0.0421
 1043TIP3    H124544   0.281   1.734  15.451 -1.4635  1.1254 -0.4877
 1043TIP3    H224545   0.384   1.678  15.355  1.3438  1.8349  1.9954
 1044TIP3   OH224546   1.503   0.507   3.923  0.0835  0.1026  0.0639
 1044TIP3    H124547   1.504   0.537   4.014  0.2055  1.1453 -0.2744
 1044TIP3    H224548   1.480   0.584   3.872 -0.5327 -0.6100 -0.7525
 1045TIP3   OH224549   6.459   3.910   6.036 -0.3906  0.3320  0.2822
 1045TIP3    H124550   6.373   3.878   6.061 -0.3606 -0.0393 -0.0857
 1045TIP3    H224551   6.468   3.994   6.081 -0.5690 -0.0598  1.0436
 1046TIP3   OH224552   0.649   0.781   5.383 -0.2377  0.2203 -0.1968
 1046TIP3    H124553   0.682   0.700   5.345 -0.8708  0.0072 -0.2937
 1046TIP3    H224554   0.620   0.833   5.308 -1.3217 -0.1281 -0.0164
 1047TIP3   OH224555   3.422   4.835   0.947  0.2655  0.2398 -0.6379
 1047TIP3    H124556   3.404   4.917   0.994 -1.3730 -0.0373 -0.7358
 1047TIP3    H224557   3.460   4.778   1.014 -0.9965  0.2267  0.0842
 1048TIP3   OH224558   2.976   4.565   1.183  0.3095 -0.2357  0.2148
 1048TIP3    H124559   2.890   4.562   1.141  0.7254 -0.1938 -0.6454
 1048TIP3    H224560   2.981   4.484   1.233 -0.5992  0.1827  1.0143
 1049TIP3   OH224561   3.282   5.419   2.809 -0.0080  0.1823 -0.9904
 1049TIP3    H124562   3.304   5.423   2.902 -2.2848  1.2913 -0.4662
 1049TIP3    H224563   3.342   5.480   2.767  1.5578 -0.9025 -0.3730
 1050TIP3   OH224564   0.441   4.384   4.460  0.3824  0.1958  0.1583
 1050TIP3    H124565   0.391   4.454   4.502 -1.9879  0.7347 -3.3604
 1050TIP3    H224566   0.506   4.429   4.407  0.0368 -0.2873 -0.6901
 1051TIP3   OH224567   3.407   4.660  10.769  0.3560  0.0416 -0.2752
 1051TIP3    H124568   3.423   4.719  10.843  0.4705  1.7210 -1.6287
 1051TIP3    H224569   3.491   4.654  10.724  0.2193 -0.7737 -0.4333
 1052TIP3   OH224570   6.029   2.051  16.820 -0.4730  0.1087 -0.6820
 1052TIP3    H124571   6.059   1.960  16.823  0.6988  0.4304 -1.9645
 1052TIP3    H224572   5.939   2.047  16.851  0.0949 -1.2379  0.9469
 1053TIP3   OH224573   5.644   2.534  15.727  0.1519 -0.0373  0.4524
 1053TIP3    H124574   5.550   2.541  15.717  0.1856  0.4373  0.4332
 1053TIP3    H224575   5.666   2.600  15.793  0.4262 -0.3768  0.7049
 1054TIP3   OH224576   0.240   6.196  11.197 -0.2675  0.0061  0.1218
 1054TIP3    H124577   0.168   6.237  11.148 -0.1826 -0.5404 -0.4687
 1054TIP3    H224578   0.255   6.112  11.152 -0.2157 -0.5238  1.1140
 1055TIP3   OH224579   6.574   0.123  14.874 -0.2140  0.0273  0.0720
 1055TIP3    H124580   6.661   0.122  14.913  0.2576  0.9309 -0.9154
 1055TIP3    H224581   6.531   0.200  14.912 -0.0974  0.3496 -0.4337
 1056TIP3   OH224582   2.113   1.273  14.000  0.6853  0.2740  0.3850
 1056TIP3    H124583   2.106   1.302  13.909  0.1961  0.9035  0.6169
 1056TIP3    H224584   2.102   1.353  14.051 -2.3169 -0.5089  1.0749
 1057TIP3   OH224585   6.405   0.326  14.079 -0.3689  0.1347 -0.7023
 1057TIP3    H124586   6.483   0.275  14.062 -0.4733  0.5300 -2.5036
 1057TIP3    H224587   6.414   0.403  14.023 -0.7918  1.5150  1.0498
 1058TIP3   OH224588   1.911   6.481  12.396  0.4281 -0.0632  0.0660
 1058TIP3    H124589   1.877   6.520  12.477 -3.3476 -0.8364 -1.0529
 1058TIP3    H224590   1.974   6.416  12.426  2.8159  3.0682  2.1419
 1059TIP3   OH224591   2.854   6.486   3.510 -0.1559 -0.5977  0.0583
 1059TIP3    H124592   2.804   6.405   3.518  0.9273 -1.4643 -1.6535
 1059TIP3    H224593   2.870   6.495   3.416  1.6353  0.4397  0.4471
 1060TIP3   OH224594   5.915   3.951   0.906 -0.9586  0.3620  0.0357
 1060TIP3    H124595   5.836   3.903   0.933 -1.8915  0.7962 -1.8500
 1060TIP3    H224596   5.883   4.036   0.877  0.0631  0.1449 -1.8229
 1061TIP3   OH224597   5.750   0.388   1.298  0.2470  0.0679  0.2569
 1061TIP3    H124598   5.752   0.481   1.321 -0.6682  0.2697 -0.4712
 1061TIP3    H224599   5.841   0.359   1.309  0.7315  1.2817 -0.4902
 1062TIP3   OH224600   6.030   5.442   5.778  0.1710 -0.5641  0.4250
 1062TIP3    H124601   6.099   5.482   5.832  0.9153  0.8080 -1.5099
 1062TIP3    H224602   5.952   5.493   5.799  1.0104  1.6781 -1.6605
 1063TIP3   OH224603   6.659   0.539  16.511 -0.7774 -0.6614  0.1934
 1063TIP3    H124604   6.618   0.469  16.460 -0.2090 -1.5152  0.9050
 1063TIP3    H224605   6.747   0.507  16.531  0.0823  0.9440 -0.8629
 1064TIP3   OH224606   2.283   4.179   3.318  0.5667  0.4690  0.3317
 1064TIP3    H124607   2.264   4.109   3.379  0.1912 -0.8675 -1.2790
 1064TIP3    H224608   2.347   4.142   3.257  0.8927  1.7525 -0.1409
 1065TIP3   OH224609   5.948   3.333  13.985 -0.0467  0.3995 -0.1003
 1065TIP3    H124610   5.959   3.373  14.071  0.7298 -0.8382  0.4010
 1065TIP3    H224611   5.876   3.271  13.996  0.8908 -0.6855  0.0107
 1066TIP3   OH224612   2.486   1.154   3.837 -0.4183  0.3223 -0.2450
 1066TIP3    H124613   2.453   1.147   3.747 -1.2292 -1.9971  0.1975
 1066TIP3    H224614   2.434   1.224   3.875 -2.0499 -0.5518 -0.7800
 1067TIP3   OH224615   1.228   0.026   4.566 -0.0926  0.5600  0.1281
 1067TIP3    H124616   1.266  -0.005   4.648  0.4377  0.2932 -0.2210
 1067TIP3    H224617   1.223   0.121   4.577 -0.7924  0.4575  0.7963
 1068TIP3   OH224618   3.126   1.843   2.554  0.2175 -0.3444 -0.7861
 1068TIP3    H124619   3.038   1.835   2.592 -0.1924 -1.8402 -1.9700
 1068TIP3    H224620   3.123   1.789   2.475  1.7972  0.7133 -1.6046
 1069TIP3   OH224621   3.452   0.045  15.929  0.5918  0.0080  0.0775
 1069TIP3    H124622   3.382   0.076  15.987  0.1078 -1.1258  0.1274
 1069TIP3    H224623   3.451  -0.050  15.940 -0.0321 -0.2975 -2.3659
 1070TIP3   OH224624   1.375   2.148  14.655  0.3262 -0.1848  0.3327
 1070TIP3    H124625   1.312   2.083  14.687  0.9226 -1.2911 -0.6759
 1070TIP3    H224626   1.457   2.123  14.698  0.3532  0.4635  0.6520
 1071TIP3   OH224627   1.645   6.441  15.913 -0.4594  0.8131  0.3599
 1071TIP3    H124628   1.685   6.366  15.870  0.6280  1.1764  0.7162
 1071TIP3    H224629   1.717   6.482  15.961 -1.0322  2.0966  0.1408
 1072TIP3   OH224630   6.755   6.642   1.768  0.1749 -0.0328 -0.3685
 1072TIP3    H124631   6.672   6.604   1.739  0.9232 -0.2486 -2.3300
 1072TIP3    H224632   6.815   6.568   1.771  1.0383  0.5993 -1.8571
 1073TIP3   OH224633   3.797   4.622   0.099 -0.4288  0.2776  0.3621
 1073TIP3    H124634   3.885   4.642   0.131 -0.2065 -1.0611  0.6009
 1073TIP3    H224635   3.810   4.575   0.017 -0.9793  2.0714 -0.7987
 1074TIP3   OH224636   2.341   1.766   2.717 -1.2730  0.2253  0.0697
 1074TIP3    H124637   2.305   1.777   2.805 -1.9248 -0.4592 -0.1026
 1074TIP3    H224638   2.341   1.854   2.680  1.4523  0.9376  1.6722
 1075TIP3   OH224639   3.420   5.750  12.543  0.6670 -0.3213  0.1820
 1075TIP3    H124640   3.332   5.724  12.517 -0.1951  0.6523  1.9873
 1075TIP3    H224641   3.470   5.754  12.461 -0.8256 -1.3873 -0.7916
 1076TIP3   OH224642   5.745   3.576   4.747  0.2647  0.3560 -0.1080
 1076TIP3    H124643   5.766   3.487   4.775 -1.1042 -0.1480 -0.6224
 1076TIP3    H224644   5.761   3.576   4.652 -0.3975  0.4580 -0.2191
 1077TIP3   OH224645   5.094   2.314   0.939 -0.0167 -0.2012  0.3554
 1077TIP3    H124646   5.163   2.381   0.929 -2.2748  2.1705  0.0176
 1077TIP3    H224647   5.050   2.338   1.021 -1.4200 -0.7290 -0.2345
 1078TIP3   OH224648   4.370   0.528   3.382  0.0884 -0.1385  0.1265
 1078TIP3    H124649   4.381   0.563   3.470 -1.8375 -2.2314  1.2640
 1078TIP3    H224650   4.440   0.463   3.373 -1.0950 -1.5820  1.0404
 1079TIP3   OH224651   4.975   3.650  14.136 -0.3739  0.7545 -0.3127
 1079TIP3    H124652   4.992   3.556  14.143  0.8785  0.8164 -2.0015
 1079TIP3    H224653   5.053   3.692  14.171  0.2361  1.1146 -2.0287
 1080TIP3   OH224654   6.590   1.678   3.353  0.2283 -0.0637 -0.4431
 1080TIP3    H124655   6.657   1.714   3.295  0.4527 -0.6193 -0.5299
 1080TIP3    H224656   6.557   1.601   3.308  1.0028 -0.9870  0.5307
 1081TIP3   OH224657   1.540   1.888  13.089 -0.0574  0.1928  0.3461
 1081TIP3    H124658   1.540   1.951  13.017  1.3186 -0.1437  0.0375
 1081TIP3    H224659   1.463   1.832  13.073 -1.0728  1.5535  0.4279
 1082TIP3   OH224660   2.781   2.331   5.971 -0.2191 -0.0536 -0.0041
 1082TIP3    H124661   2.771   2.248   5.924  0.0874 -0.6321  0.9299
 1082TIP3    H224662   2.828   2.307   6.052 -0.8537  0.8937  0.6572
 1083TIP3   OH224663   1.986   5.397  14.859  0.3020  0.0766 -0.5294
 1083TIP3    H124664   2.055   5.434  14.803  1.6283  0.2393  1.1675
 1083TIP3    H224665   1.991   5.448  14.940 -0.6633 -1.0599  0.2632
 1084TIP3   OH224666   6.316   0.195  14.396 -0.2609 -0.1793  0.3701
 1084TIP3    H124667   6.355   0.119  14.353 -1.8571 -0.3835 -0.7595
 1084TIP3    H224668   6.356   0.196  14.483 -0.4077 -2.4597  0.4952
 1085TIP3   OH224669   0.046   0.619  15.088  0.0032 -0.8636  0.1401
 1085TIP3    H124670   0.136   0.648  15.073 -0.3788  0.3969  0.2610
 1085TIP3    H224671   0.018   0.666  15.166 -1.4192  0.2566 -1.0163
 1086TIP3   OH224672   4.639   3.462  14.424 -0.0892 -0.3581 -0.1517
 1086TIP3    H124673   4.720   3.497  14.461  0.5569 -0.2269 -1.6804
 1086TIP3    H224674   4.570   3.512  14.467  0.7441  1.5466 -0.9472
 1087TIP3   OH224675   2.546   5.355  16.964  0.6552  0.0460  0.0665
 1087TIP3    H124676   2.579   5.310  16.886 -0.6753  1.1824 -1.1743
 1087TIP3    H224677   2.613   5.421  16.983 -0.0116  1.1764 -1.3959
 1088TIP3   OH224678   0.604   1.330   0.335  0.9378 -0.2689  0.2535
 1088TIP3    H124679   0.537   1.398   0.328 -0.6593 -1.6787  1.3152
 1088TIP3    H224680   0.668   1.352   0.268  0.2121  2.0075  0.2845
 1089TIP3   OH224681   0.866   6.192  12.270 -0.1807  0.4324 -0.4835
 1089TIP3    H124682   0.782   6.207  12.314 -0.1281  1.5873 -0.7535
 1089TIP3    H224683   0.902   6.115  12.313 -1.4841 -0.2087 -0.5251
 1090TIP3   OH224684   5.022   0.971  11.414  0.0733  0.1897 -0.5192
 1090TIP3    H124685   4.965   0.975  11.337 -0.2226 -0.8334 -0.3613
 1090TIP3    H224686   5.022   0.878  11.439  1.0687  0.3389  0.0385
 1091TIP3   OH224687   6.342   6.241  12.451  0.3313 -0.3345 -0.3939
 1091TIP3    H124688   6.265   6.186  12.434 -0.4106  0.8485 -0.9527
 1091TIP3    H224689   6.317   6.292  12.528 -0.2431  1.4585 -1.7283
 1092TIP3   OH224690   1.720   3.981  12.067 -0.2281  0.0312 -0.3943
 1092TIP3    H124691   1.697   3.905  12.120 -0.2325 -0.6349 -1.3279
 1092TIP3    H224692   1.685   4.056  12.115  0.9232 -0.4261  1.2008
 1093TIP3   OH224693   1.904   2.124   4.542 -0.5603 -0.9628  0.3797
 1093TIP3    H124694   1.817   2.104   4.509 -1.4140 -0.1650  2.1017
 1093TIP3    H224695   1.895   2.121   4.638  0.7779  1.2691  0.6049
 1094TIP3   OH224696   5.986   0.165  15.790  0.7086 -0.0923  0.2959
 1094TIP3    H124697   5.906   0.147  15.741  0.2787 -0.5521  1.1668
 1094TIP3    H224698   6.029   0.235  15.741 -0.2401  0.1729 -0.1549
 1095TIP3   OH224699   2.017   1.172  14.556 -0.8786  0.0044 -0.1381
 1095TIP3    H124700   2.088   1.131  14.507 -1.6309 -0.8916 -0.5144
 1095TIP3    H224701   2.037   1.154  14.647 -1.7162 -2.1291 -0.3424
 1096TIP3   OH224702   1.453   3.319  15.110 -0.8201  0.3079 -0.1093
 1096TIP3    H124703   1.362   3.320  15.140 -1.6971  0.3281 -2.6551
 1096TIP3    H224704   1.447   3.301  15.016  1.8991 -1.2751 -0.0199
 1097TIP3   OH224705   1.824   3.349   0.772  0.0742  0.0629  0.1431
 1097TIP3    H124706   1.775   3.429   0.748  0.2147  0.0778 -0.0927
 1097TIP3    H224707   1.756   3.282   0.782  0.1455 -0.3499 -1.9209
 1098TIP3   OH224708   5.292   0.138   1.018  0.2860 -0.1121 -0.2365
 1098TIP3    H124709   5.253   0.110   1.101 -1.7285  1.1607 -0.7244
 1098TIP3    H224710   5.220   0.140   0.956  1.6910 -0.6125 -1.9423
 1099TIP3   OH224711   1.861   6.581   2.222  0.3218 -0.2801 -0.7061
 1099TIP3    H124712   1.821   6.637   2.289 -0.8942 -1.3663 -0.5245
 1099TIP3    H224713   1.869   6.495   2.264  0.0807 -0.8233 -1.7605
 1100TIP3   OH224714   5.546   4.383  15.558  0.3264 -0.5923 -0.0035
 1100TIP3    H124715   5.539   4.436  15.637  0.3739 -2.3148  1.1885
 1100TIP3    H224716   5.456   4.363  15.534  0.2553  1.0865 -1.2138
 1101TIP3   OH224717   6.699   5.541  10.595  0.6538  0.2008  0.5065
 1101TIP3    H124718   6.716   5.629  10.561  3.1988  0.0972  1.4431
 1101TIP3    H224719   6.632   5.553  10.662  1.1538  1.4508  0.7782
 1102TIP3   OH224720   2.701   0.355  14.493 -0.5533  0.0001 -0.1639
 1102TIP3    H124721   2.649   0.434  14.510 -0.3606  0.0146  0.3694
 1102TIP3    H224722   2.769   0.384  14.432 -0.0624  0.4165  0.5640
 1103TIP3   OH224723   5.629   3.321  14.454  0.3290  0.1918 -0.9191
 1103TIP3    H124724   5.576   3.374  14.513  1.2101  1.4859 -1.2549
 1103TIP3    H224725   5.648   3.241  14.503  0.9030  1.1740  0.4963
 1104TIP3   OH224726   5.343   2.872  16.105 -0.1362  0.1642  0.1794
 1104TIP3    H124727   5.341   2.810  16.032 -0.4915  0.2287  0.1330
 1104TIP3    H224728   5.252   2.896  16.119  0.1884  2.3082 -1.1845
 1105TIP3   OH224729   5.977   1.385  15.967  0.4926  0.0154 -0.4396
 1105TIP3    H124730   5.954   1.454  16.029 -1.3762 -1.7414  0.8821
 1105TIP3    H224731   6.052   1.420  15.918  1.6265  1.6795  2.3958
 1106TIP3   OH224732   3.129   6.135  14.078  0.0141 -0.1111  0.2616
 1106TIP3    H124733   3.038   6.107  14.081 -0.3395  0.8490 -0.6617
 1106TIP3    H224734   3.167   6.085  14.006 -0.7043  1.9039 -1.6104
 1107TIP3   OH224735   2.597   1.231  12.703  0.3186  0.2222 -0.1604
 1107TIP3    H124736   2.687   1.218  12.673  0.0622 -0.7186 -0.5380
 1107TIP3    H224737   2.604   1.231  12.799  1.0153  2.3963 -0.1872
 1108TIP3   OH224738   0.252   5.085  15.298  0.2126  1.3402  0.2124
 1108TIP3    H124739   0.217   4.998  15.280 -2.0070  2.4356 -0.9456
 1108TIP3    H224740   0.185   5.129  15.350  1.0517  2.5673  0.3085
 1109TIP3   OH224741   1.138   5.194   2.350 -0.2175  0.0536 -0.3987
 1109TIP3    H124742   1.163   5.114   2.397  1.3233  0.2216 -0.9120
 1109TIP3    H224743   1.153   5.264   2.413  0.3157  0.1238 -0.6022
 1110TIP3   OH224744   0.244   4.283  16.089 -0.1893 -0.0574 -0.1142
 1110TIP3    H124745   0.191   4.228  16.146 -0.2556 -0.2607 -0.3742
 1110TIP3    H224746   0.245   4.368  16.133 -1.2203  0.1091 -0.4113
 1111TIP3   OH224747   2.206   4.227   0.576  0.2926 -0.0310 -0.4993
 1111TIP3    H124748   2.189   4.135   0.595  0.5301 -0.4310 -2.1257
 1111TIP3    H224749   2.119   4.266   0.566  0.2125 -0.4627 -1.5188
 1112TIP3   OH224750   3.344   4.114  13.926 -0.3185  0.3920  0.0487
 1112TIP3    H124751   3.420   4.057  13.934 -0.1895  0.4827 -0.4691
 1112TIP3    H224752   3.287   4.089  13.999  0.2840  0.4475  0.5391
 1113TIP3   OH224753   2.841   4.478  10.926 -0.2773 -0.3587 -0.3629
 1113TIP3    H124754   2.797   4.445  11.005  0.7267 -0.4059  0.1891
 1113TIP3    H224755   2.884   4.402  10.888 -0.7164 -0.3245 -0.9366
 1114TIP3   OH224756   4.039   2.796  16.779  0.0593  0.1981  0.0754
 1114TIP3    H124757   3.996   2.790  16.864 -0.5157  0.8888 -0.1580
 1114TIP3    H224758   3.980   2.747  16.720  1.7207 -2.4599  0.5250
 1115TIP3   OH224759   0.169   0.709  12.050  0.3750 -0.5193 -0.2711
 1115TIP3    H124760   0.190   0.625  12.091 -0.2058  0.0606  1.2542
 1115TIP3    H224761   0.181   0.694  11.957 -0.4043 -2.4960 -0.0684
 1116TIP3   OH224762   2.465   2.491  16.282 -0.8000  0.1120 -0.3642
 1116TIP3    H124763   2.370   2.494  16.287 -0.9271 -1.0397 -1.8845
 1116TIP3    H224764   2.486   2.401  16.256  0.7406  0.1502  0.6305
 1117TIP3   OH224765   3.306   0.555  16.943 -0.0310  0.1078  0.2172
 1117TIP3    H124766   3.364   0.537  17.017  0.2321  2.3900  0.5941
 1117TIP3    H224767   3.362   0.601  16.880 -0.8579  0.3156 -0.3651
 1118TIP3   OH224768   0.604   4.713  16.674 -0.6406 -0.5457  0.1308
 1118TIP3    H124769   0.513   4.694  16.655 -0.8374  1.4375 -1.0077
 1118TIP3    H224770   0.636   4.760  16.597  1.1351 -0.5896  0.8100
 1119TIP3   OH224771   0.728   5.633   3.412  0.0464 -0.0361  0.4080
 1119TIP3    H124772   0.776   5.557   3.444  0.5261 -0.1427 -0.5579
 1119TIP3    H224773   0.730   5.625   3.317  0.5579  1.4538  0.2709
 1120TIP3   OH224774   0.090   0.281  11.793 -0.6134 -0.3979  0.1006
 1120TIP3    H124775   0.184   0.286  11.814 -0.8680  0.9949  0.9503
 1120TIP3    H224776   0.084   0.211  11.728  0.9445 -0.9018  0.4670
 1121TIP3   OH224777   2.891   6.320  11.845 -0.1048 -0.1845  0.2679
 1121TIP3    H124778   2.895   6.306  11.940 -1.0554 -0.4052  0.2760
 1121TIP3    H224779   2.910   6.234  11.807  1.3827  0.1389  0.2367
 1122TIP3   OH224780   0.018   2.478  15.498 -0.4209 -0.8722 -0.4165
 1122TIP3    H124781  -0.033   2.415  15.447 -1.0105 -2.6235  2.1979
 1122TIP3    H224782   0.079   2.424  15.548  0.5602  0.8252  0.2684
 1123TIP3   OH224783   4.384   0.381   5.560 -0.7672 -0.1017 -0.4505
 1123TIP3    H124784   4.330   0.426   5.625  0.0076  2.5910 -1.5990
 1123TIP3    H224785   4.365   0.426   5.478  0.4698 -1.5553 -1.5664
 1124TIP3   OH224786   3.668   3.436   2.461  0.0204  0.2005  0.3185
 1124TIP3    H124787   3.740   3.373   2.466 -0.3126 -0.2989 -0.9124
 1124TIP3    H224788   3.710   3.521   2.462  0.4856 -0.0328  1.9012
 1125TIP3   OH224789   5.846   6.043   1.764  0.1014 -0.1486  0.6852
 1125TIP3    H124790   5.873   6.041   1.673 -3.2435  0.3811 -0.3913
 1125TIP3    H224791   5.868   5.957   1.798 -2.5281 -1.8899 -1.8451
 1126TIP3   OH224792   1.589   1.554   2.448 -0.0297  0.3006  0.0146
 1126TIP3    H124793   1.599   1.487   2.515 -0.2082 -0.7715 -1.0182
 1126TIP3    H224794   1.511   1.527   2.399 -0.4930  1.6215 -0.0027
 1127TIP3   OH224795   4.118   5.370  17.055  0.4557  0.3381  0.0914
 1127TIP3    H124796   4.181   5.431  17.016 -1.3901  1.4199 -1.2507
 1127TIP3    H224797   4.036   5.419  17.060 -0.2774 -1.0069  1.9455
 1128TIP3   OH224798   6.558   6.275  16.687 -0.9784 -0.3648  0.0205
 1128TIP3    H124799   6.589   6.231  16.766 -2.0524 -1.3370 -0.0888
 1128TIP3    H224800   6.550   6.205  16.622  0.3529  0.4996 -1.0987
 1129TIP3   OH224801   6.127   4.573  14.773 -0.4163  0.3452  0.6255
 1129TIP3    H124802   6.101   4.493  14.727 -1.2548  0.6912  0.4861
 1129TIP3    H224803   6.206   4.603  14.726 -0.2854 -0.2223  0.4810
 1130TIP3   OH224804   1.173   5.328   1.343  0.3448 -0.1043 -0.5940
 1130TIP3    H124805   1.251   5.365   1.302  0.0999  0.8097 -0.2476
 1130TIP3    H224806   1.195   5.324   1.436 -0.4307  1.2167 -0.3401
 1131TIP3   OH224807   1.281   4.977  16.951  0.2560 -0.2106  0.2892
 1131TIP3    H124808   1.282   4.971  16.856 -1.3221 -1.2436  0.3199
 1131TIP3    H224809   1.313   4.892  16.981  0.3669 -0.0331  0.6793
 1132TIP3   OH224810   4.746   3.814   0.187 -0.3388 -0.2028  0.2215
 1132TIP3    H124811   4.711   3.749   0.248 -0.2183  0.6672  1.2267
 1132TIP3    H224812   4.716   3.898   0.222  0.3522  0.3474 -0.5048
 1133TIP3   OH224813   0.446   5.040  16.660 -0.5930  0.2731  0.0331
 1133TIP3    H124814   0.380   5.024  16.593 -0.0790  1.2234 -0.6983
 1133TIP3    H224815   0.527   5.005  16.623 -0.1610  1.4520 -0.1553
 1134TIP3   OH224816   4.834   5.074  12.002  0.3473 -0.4443 -0.3298
 1134TIP3    H124817   4.840   5.108  12.092  0.9000 -0.5282 -0.3321
 1134TIP3    H224818   4.742   5.049  11.992  0.8278 -3.1131  1.2102
 1135TIP3   OH224819   5.499   1.660  10.703 -0.2967  0.1855  0.3532
 1135TIP3    H124820   5.506   1.726  10.634 -2.6269  0.3572  0.2306
 1135TIP3    H224821   5.577   1.672  10.756 -0.9523  3.4993  0.6929
 1136TIP3   OH224822   3.409   4.816   5.918  1.2644 -0.9869 -0.2152
 1136TIP3    H124823   3.415   4.722   5.901  2.0191 -1.0112  0.1427
 1136TIP3    H224824   3.332   4.845   5.869  0.7642 -1.8694  0.0394
 1137TIP3   OH224825   0.139   2.255   5.771  0.2056  0.5290  0.3646
 1137TIP3    H124826   0.150   2.247   5.865 -0.7927 -1.6238  0.3302
 1137TIP3    H224827   0.046   2.273   5.759 -0.0687 -1.3092 -0.3123
 1138TIP3   OH224828   5.562   4.252  10.955  0.1569  0.3089  0.0972
 1138TIP3    H124829   5.657   4.264  10.957 -0.1164  2.5869  3.1659
 1138TIP3    H224830   5.528   4.332  10.917 -0.6316  0.3455  0.8587
 1139TIP3   OH224831   6.039   0.314   5.955  0.0045  0.1577  0.1353
 1139TIP3    H124832   5.983   0.390   5.967  2.4521  1.9138  0.8156
 1139TIP3    H224833   5.988   0.241   5.990 -3.1452  1.0995 -2.2293
 1140TIP3   OH224834   5.987   0.796  13.498  0.0284 -0.0887  0.2507
 1140TIP3    H124835   6.001   0.832  13.586  2.4384 -0.5762  0.1045
 1140TIP3    H224836   6.007   0.869  13.439 -1.8545  0.3192  0.0762
 1141TIP3   OH224837   5.155   2.830   5.327 -0.5951 -0.4118 -0.3741
 1141TIP3    H124838   5.248   2.819   5.346 -1.2257 -1.3907  2.2555
 1141TIP3    H224839   5.124   2.894   5.391 -1.9558 -0.8085 -0.6251
 1142TIP3   OH224840   6.169   0.107   1.522  0.1643 -0.4395  0.0888
 1142TIP3    H124841   6.175   0.202   1.515  0.6478 -0.5496 -1.1179
 1142TIP3    H224842   6.077   0.087   1.506  0.2810 -0.2613 -0.8200
 1143TIP3   OH224843   6.775   6.306  14.700 -0.4448  0.0480  0.9096
 1143TIP3    H124844   6.750   6.216  14.677  0.3469  0.2440 -0.7969
 1143TIP3    H224845   6.870   6.309  14.685 -0.2096  0.7385  2.4443
 1144TIP3   OH224846   4.639   4.880  13.051  0.0803 -0.1655  0.2700
 1144TIP3    H124847   4.705   4.879  12.981  1.3057  0.8612  1.3795
 1144TIP3    H224848   4.641   4.791  13.086  1.1658 -0.0453  0.5449
 1145TIP3   OH224849   5.940   6.090  13.478  0.1660  0.4692  0.3965
 1145TIP3    H124850   5.883   6.033  13.530  1.3675 -0.7891  0.3380
 1145TIP3    H224851   5.997   6.132  13.542  1.8687 -1.3284  0.1197
 1146TIP3   OH224852   4.212   4.585   4.248  0.1535 -0.4872  0.2727
 1146TIP3    H124853   4.243   4.581   4.339 -0.1242 -0.6636  0.3606
 1146TIP3    H224854   4.117   4.585   4.255  0.1339 -0.1415 -0.0066
 1147TIP3   OH224855   2.085   4.225   3.825 -0.3129 -0.1403 -0.1807
 1147TIP3    H124856   2.116   4.271   3.747 -1.3900  1.7988  0.5062
 1147TIP3    H224857   2.078   4.293   3.892  0.1019 -1.6890  1.4804
 1148TIP3   OH224858   2.017   1.305   1.180 -0.0539  0.3499  0.4276
 1148TIP3    H124859   1.957   1.319   1.106 -0.1861 -0.9734  0.2665
 1148TIP3    H224860   1.962   1.264   1.247 -0.3944  3.3139  2.0146
 1149TIP3   OH224861   1.553   5.157  12.267  1.0995  0.8769 -0.2237
 1149TIP3    H124862   1.569   5.217  12.340  0.4132  0.3283  0.3836
 1149TIP3    H224863   1.499   5.088  12.305  1.6131  0.0434 -0.9979
 1150TIP3   OH224864   4.864   1.046  15.086  0.3298  0.4155  0.9816
 1150TIP3    H124865   4.771   1.052  15.064  0.4947 -0.0536  0.1385
 1150TIP3    H224866   4.879   0.953  15.103  0.8100  0.3663  0.3273
 1151TIP3   OH224867   0.885   0.740   0.583  0.8173 -0.8249  0.2104
 1151TIP3    H124868   0.951   0.691   0.633 -1.0991 -0.6862  3.0049
 1151TIP3    H224869   0.823   0.674   0.554  0.3134 -0.5368  0.6272
 1152TIP3   OH224870   0.115   0.773  14.543  0.2585 -0.1464 -0.0831
 1152TIP3    H124871   0.202   0.749  14.575  0.2931 -2.0446 -1.5030
 1152TIP3    H224872   0.058   0.763  14.620  1.1332  0.1878  0.6140
 1153TIP3   OH224873   5.755   2.369   2.271  0.2831  0.1115 -0.7756
 1153TIP3    H124874   5.841   2.411   2.269  1.1223 -1.5064 -0.0460
 1153TIP3    H224875   5.749   2.332   2.359 -0.6946 -0.7438 -1.1959
 1154TIP3   OH224876   0.343   2.864  17.058 -0.6071  0.6585 -0.3804
 1154TIP3    H124877   0.398   2.808  17.112 -2.4331  1.2180  2.1713
 1154TIP3    H224878   0.263   2.813  17.045 -1.1158  1.4890 -0.5336
 1155TIP3   OH224879   1.008   4.924  12.204 -0.4308 -0.1366 -0.5835
 1155TIP3    H124880   1.066   4.871  12.149 -0.6888 -0.6027 -0.4073
 1155TIP3    H224881   1.021   5.014  12.173  2.3886  0.1654  1.1878
 1156TIP3   OH224882   1.187   4.708   3.263  0.1521 -0.2758  0.2806
 1156TIP3    H124883   1.154   4.793   3.292  1.5094  0.0104  1.0359
 1156TIP3    H224884   1.152   4.646   3.326 -0.2237 -0.1921  0.1595
 1157TIP3   OH224885   1.872   5.307  12.168 -0.5453  0.1638  1.0758
 1157TIP3    H124886   1.808   5.329  12.236  0.4770  0.4621  1.9547
 1157TIP3    H224887   1.897   5.216  12.187 -0.0810  0.3264  1.2379
 1158TIP3   OH224888   0.330   5.410   4.681 -0.4126  0.2247  0.2143
 1158TIP3    H124889   0.242   5.446   4.682 -0.5257  0.0046 -0.9195
 1158TIP3    H224890   0.341   5.370   4.767 -0.9068  1.4547  0.8543
 1159TIP3   OH224891   3.614   3.460  15.751 -0.2590 -0.3160 -0.0418
 1159TIP3    H124892   3.554   3.514  15.801  0.0738  0.2905 -0.2940
 1159TIP3    H224893   3.570   3.375  15.743 -1.1318  0.1648 -0.3377
 1160TIP3   OH224894   3.154   5.352   1.215 -0.1053 -0.2912  0.7618
 1160TIP3    H124895   3.101   5.423   1.177 -1.2720 -1.3202  0.4240
 1160TIP3    H224896   3.182   5.300   1.139  0.3800 -0.4382  1.0418
 1161TIP3   OH224897   6.529   3.291   4.047 -0.1993 -0.5216  0.0167
 1161TIP3    H124898   6.543   3.218   4.109 -1.3275  1.0508  2.1774
 1161TIP3    H224899   6.436   3.312   4.055  0.1548  1.2863 -0.4123
 1162TIP3   OH224900   2.138   5.635  14.164 -0.2494 -0.1720 -0.3308
 1162TIP3    H124901   2.119   5.728  14.179 -0.7553  0.2620 -3.3679
 1162TIP3    H224902   2.230   5.625  14.190 -0.2667  1.1066  0.2631
 1163TIP3   OH224903   1.652   2.501   6.346 -0.6689 -0.0191 -0.2327
 1163TIP3    H124904   1.685   2.498   6.436 -0.7961  0.3926 -0.1718
 1163TIP3    H224905   1.570   2.452   6.349 -0.1851 -0.8419 -0.3340
 1164TIP3   OH224906   2.118   1.602  16.062 -0.4467 -0.5496 -0.1326
 1164TIP3    H124907   2.084   1.559  15.984 -3.2015  1.4673 -0.0915
 1164TIP3    H224908   2.046   1.599  16.125  0.7898  0.3471  1.3597
 1165TIP3   OH224909   3.860   1.833  16.549  0.0088 -0.1536  0.4568
 1165TIP3    H124910   3.894   1.821  16.638  0.8479 -0.7449  0.0682
 1165TIP3    H224911   3.846   1.743  16.518 -0.1002  0.0479 -0.0691
 1166TIP3   OH224912   4.949   5.148  13.035  0.1906  0.5523  0.4906
 1166TIP3    H124913   4.891   5.126  13.108  0.5954 -0.2989  0.5582
 1166TIP3    H224914   5.037   5.128  13.067  0.5017  1.5790  0.2864
 1167TIP3   OH224915   4.668   0.789  12.578  0.3301 -0.4775 -0.1275
 1167TIP3    H124916   4.641   0.700  12.600 -0.6576  0.1431  1.2536
 1167TIP3    H224917   4.587   0.832  12.549  0.5201  0.3545  0.5440
 1168TIP3   OH224918   0.639   0.083  11.548 -0.3309  0.1169 -0.6073
 1168TIP3    H124919   0.612   0.007  11.497 -0.8656 -1.5732  2.1093
 1168TIP3    H224920   0.558   0.118  11.584  0.2780 -0.4503  1.3987
 1169TIP3   OH224921   6.602   1.069  12.651 -0.0017 -0.2388 -0.6172
 1169TIP3    H124922   6.673   1.026  12.699  0.2970  0.6594 -0.2469
 1169TIP3    H224923   6.643   1.146  12.612 -1.0756  1.0456  0.7421
 1170TIP3   OH224924   1.046   4.156   4.989  0.4520  0.3100  0.1951
 1170TIP3    H124925   0.992   4.164   5.068 -0.3748 -1.0884 -0.2021
 1170TIP3    H224926   1.043   4.242   4.948 -1.2974  0.3201  0.3064
 1171TIP3   OH224927   5.878   1.612  16.119  0.6088 -0.1842  0.5017
 1171TIP3    H124928   5.810   1.652  16.173 -0.4634 -2.6424  1.0536
 1171TIP3    H224929   5.956   1.612  16.176  0.2059 -0.2778  1.0620
 1172TIP3   OH224930   1.284   6.574  12.935  0.1049 -0.1087 -0.4968
 1172TIP3    H124931   1.275   6.637  13.007  1.8421  0.7877 -1.0423
 1172TIP3    H224932   1.378   6.565  12.923 -0.1712 -0.8658 -2.1267
 1173TIP3   OH224933   3.047   1.646   2.750  0.2079  0.1194 -0.2383
 1173TIP3    H124934   3.046   1.720   2.811  1.4866  1.1065 -1.3972
 1173TIP3    H224935   3.139   1.634   2.727  0.0260 -1.8866 -0.0133
 1174TIP3   OH224936   1.569   6.502   2.353  0.2683 -0.4028 -0.5545
 1174TIP3    H124937   1.591   6.417   2.392  1.3278  0.4170  0.6690
 1174TIP3    H224938   1.492   6.531   2.401  1.2449  0.3485  0.6152
 1175TIP3   OH224939   5.575   6.593   2.669  0.0447 -0.2581  0.5898
 1175TIP3    H124940   5.528   6.515   2.640 -0.1624  0.8924 -2.4240
 1175TIP3    H224941   5.663   6.582   2.634  0.1120  0.6775  0.4470
 1176TIP3   OH224942   6.207   3.177   2.630  0.1810 -0.2943  0.5243
 1176TIP3    H124943   6.276   3.114   2.609 -0.4840 -1.2731  1.2238
 1176TIP3    H224944   6.248   3.237   2.693  0.6895 -0.2682  0.1747
 1177TIP3   OH224945   6.520   0.471   3.664  0.4535  0.2747 -0.5837
 1177TIP3    H124946   6.502   0.505   3.577  3.1419  2.0472 -0.4990
 1177TIP3    H224947   6.504   0.546   3.722 -2.9287 -1.3174  0.7137
 1178TIP3   OH224948   5.193   0.822  14.545  0.2117 -0.3796 -0.1124
 1178TIP3    H124949   5.234   0.741  14.577 -0.0291 -0.7655 -0.7602
 1178TIP3    H224950   5.121   0.792  14.489 -0.0257  0.2879 -0.1664
 1179TIP3   OH224951   1.835   1.125   3.290  0.0218  0.0762  0.3379
 1179TIP3    H124952   1.763   1.165   3.339 -0.0371  1.0979 -0.5663
 1179TIP3    H224953   1.912   1.178   3.314 -0.3441  1.7832 -2.0999
 1180TIP3   OH224954   4.193   0.648   3.187 -0.1900 -0.1328 -0.5861
 1180TIP3    H124955   4.232   0.616   3.268  2.0048  3.5005 -0.0733
 1180TIP3    H224956   4.264   0.647   3.124 -0.1839  2.8819 -0.7196
 1181TIP3   OH224957   2.355   5.679  15.974  0.2600  0.4331 -0.0463
 1181TIP3    H124958   2.423   5.619  16.002  0.5598  1.0536  0.5858
 1181TIP3    H224959   2.273   5.637  16.000  0.5277  1.0093  1.8720
 1182TIP3   OH224960   2.435   0.336  16.721  0.5219  0.1785 -0.2068
 1182TIP3    H124961   2.418   0.261  16.778 -0.0071 -0.3440 -1.0371
 1182TIP3    H224962   2.355   0.388  16.726  0.8171  0.5877  0.2224
 1183TIP3   OH224963   2.031   6.619  14.146 -0.4607 -0.2808 -0.0456
 1183TIP3    H124964   2.009   6.526  14.157 -1.4166  0.0610  1.2005
 1183TIP3    H224965   2.039   6.651  14.236 -1.1787  1.0641 -0.4510
 1184TIP3   OH224966   2.344   3.047   0.616  0.4169  0.0662  0.4456
 1184TIP3    H124967   2.298   2.969   0.587  1.1410  0.1587 -1.0033
 1184TIP3    H224968   2.286   3.088   0.680 -0.4936 -1.0101  0.3040
 1185TIP3   OH224969   4.208   3.696  17.196  0.0205  0.0792 -0.0870
 1185TIP3    H124970   4.171   3.711  17.109  2.2218  2.5870 -0.6397
 1185TIP3    H224971   4.298   3.666  17.179 -0.1432 -1.2956  1.3149
 1186TIP3   OH224972   1.834   1.274   2.051  0.5033  0.1901 -0.4800
 1186TIP3    H124973   1.753   1.258   2.004 -0.2254  0.0473  0.7933
 1186TIP3    H224974   1.851   1.367   2.040 -0.6942  0.5460  0.5616
 1187TIP3   OH224975   5.948   1.591  14.879  0.4735  0.3835 -0.1743
 1187TIP3    H124976   5.989   1.547  14.804 -0.3980  1.8328 -1.5479
 1187TIP3    H224977   5.857   1.603  14.853  0.5811  2.5630  0.3321
 1188TIP3   OH224978   3.320   2.856   2.734  0.0490 -0.3682 -0.2753
 1188TIP3    H124979   3.271   2.839   2.653  1.1271 -0.3681 -0.9401
 1188TIP3    H224980   3.409   2.875   2.704  0.3094  0.2568  0.8773
 1189TIP3   OH224981   6.735   0.682   5.688 -0.1606  0.6946  0.1036
 1189TIP3    H124982   6.661   0.623   5.702  0.8027 -0.3448  0.8625
 1189TIP3    H224983   6.709   0.763   5.733 -0.8918  0.3859  0.2419
 1190TIP3   OH224984   3.314   5.399  15.055  0.2211  0.7018 -0.6555
 1190TIP3    H124985   3.381   5.453  15.098 -1.2899  0.8249  1.6590
 1190TIP3    H224986   3.359   5.319  15.030  1.5216  1.3145 -0.3100
 1191TIP3   OH224987   1.386   1.877   1.406  0.5350  0.2631  0.0025
 1191TIP3    H124988   1.301   1.838   1.385 -0.7222  1.8114  2.1065
 1191TIP3    H224989   1.397   1.861   1.500  2.5195  0.2121 -0.2189
 1192TIP3   OH224990   4.428   3.009   3.278 -0.5981 -0.2291  0.2825
 1192TIP3    H124991   4.472   2.935   3.320  1.2467  0.9719  0.4809
 1192TIP3    H224992   4.335   2.997   3.301 -0.0873 -1.5056  1.7937
 1193TIP3   OH224993   0.546   5.682   4.396  0.0740 -0.1877  0.2485
 1193TIP3    H124994   0.452   5.698   4.404  0.0651  0.0707 -0.4133
 1193TIP3    H224995   0.557   5.644   4.309  0.7299  0.8209 -0.1093
 1194TIP3   OH224996   5.383   2.540  12.665 -0.9765  0.1840 -0.2870
 1194TIP3    H124997   5.414   2.594  12.738 -0.3673  0.6137 -0.8595
 1194TIP3    H224998   5.457   2.484  12.643 -0.9583  0.4518 -0.9389
 1195TIP3   OH224999   4.608   5.523   1.603  0.0416  0.3165 -0.8970
 1195TIP3    H125000   4.591   5.429   1.590 -1.1172  0.3256  0.4056
 1195TIP3    H225001   4.626   5.556   1.515 -0.0666 -1.0299 -1.4457
 1196TIP3   OH225002   3.207   1.286   1.528  0.1679  0.1026 -0.0535
 1196TIP3    H125003   3.249   1.211   1.486  1.4717  0.8261 -0.0628
 1196TIP3    H225004   3.124   1.252   1.561  1.1633 -1.5660  0.7681
 1197TIP3   OH225005   3.741   2.012   2.195 -0.2379  0.0637 -0.3057
 1197TIP3    H125006   3.647   2.025   2.182  0.1035  0.4925 -2.6144
 1197TIP3    H225007   3.778   2.012   2.106  2.1424  1.4433  0.6223
 1198TIP3   OH225008   2.406   0.917   3.580  0.2499 -0.5031  0.0932
 1198TIP3    H125009   2.323   0.908   3.533 -2.1044  4.8704  2.8065
 1198TIP3    H225010   2.394   0.865   3.660  0.7596 -2.1946 -0.8968
 1199TIP3   OH225011   5.097   4.135  11.719 -0.5711 -0.4943 -0.2449
 1199TIP3    H125012   5.132   4.207  11.666  0.5679  1.3477  2.8487
 1199TIP3    H225013   5.170   4.075  11.730 -0.3887 -0.1560  0.4123
 1200TIP3   OH225014   0.155   5.085   3.976 -0.0656  0.1737  0.6078
 1200TIP3    H125015   0.066   5.051   3.972 -0.5280  1.4102  0.2304
 1200TIP3    H225016   0.192   5.064   3.890  0.1942 -0.8350  0.9626
 1201TIP3   OH225017   6.158   3.526   3.021  0.5123 -0.6034  1.0288
 1201TIP3    H125018   6.231   3.529   2.960 -1.0738 -0.1375 -0.9021
 1201TIP3    H225019   6.160   3.611   3.065 -1.9699  1.6007 -2.8383
 1202TIP3   OH225020   6.482   0.092  11.322  0.4820  0.4937  0.0127
 1202TIP3    H125021   6.475   0.008  11.276  1.1935 -0.0682  0.8888
 1202TIP3    H225022   6.461   0.158  11.257 -0.2782 -0.3897 -0.6376
 1203TIP3   OH225023   0.841   0.344   4.224  0.0473  0.9149  0.0954
 1203TIP3    H125024   0.848   0.320   4.317  1.0411  1.2225  0.1111
 1203TIP3    H225025   0.799   0.269   4.183  1.9321 -0.3168  0.3646
 1204TIP3   OH225026   3.044   0.827   0.381 -0.0856 -0.4785  0.1458
 1204TIP3    H125027   3.109   0.811   0.313  1.7129 -0.8410  1.8868
 1204TIP3    H225028   3.063   0.761   0.448  0.1733  1.7648  2.3514
 1205TIP3   OH225029   3.395   1.333  14.615  0.0879  0.1214 -0.0370
 1205TIP3    H125030   3.400   1.331  14.711  1.4908 -1.0974 -0.1202
 1205TIP3    H225031   3.321   1.392  14.596 -0.8551 -0.4220  1.8087
 1206TIP3   OH225032   3.557   4.704  16.281  0.1006 -0.8486  0.1084
 1206TIP3    H125033   3.631   4.649  16.307  0.0799 -0.1016  1.8588
 1206TIP3    H225034   3.491   4.688  16.349 -1.7304 -2.2196 -1.9392
 1207TIP3   OH225035   6.485   5.193  13.258  0.5766 -0.8473 -0.2527
 1207TIP3    H125036   6.527   5.249  13.192 -1.0368  0.5999 -0.0749
 1207TIP3    H225037   6.436   5.129  13.207 -0.4758  0.1231 -0.4749
 1208TIP3   OH225038   2.038   2.224  12.380 -0.6641 -0.4651 -0.2042
 1208TIP3    H125039   2.008   2.259  12.296  0.3970 -1.5693 -1.0744
 1208TIP3    H225040   2.045   2.301  12.437  0.8747  0.6715 -1.8356
 1209TIP3   OH225041   1.284   4.798   5.116 -0.5554  0.8772 -0.1153
 1209TIP3    H125042   1.302   4.892   5.120 -2.4840  1.3048 -0.8294
 1209TIP3    H225043   1.286   4.769   5.207 -0.9926  1.8373  0.2064
 1210TIP3   OH225044   4.926   6.296   1.519 -0.8169  0.7740 -0.3120
 1210TIP3    H125045   4.984   6.259   1.453  1.2947  2.6818  0.4204
 1210TIP3    H225046   4.884   6.371   1.475  0.4232  1.9089  0.4211
 1211TIP3   OH225047   5.326   0.028   0.093 -0.6621 -0.0405  0.0807
 1211TIP3    H125048   5.319   0.063   0.004  3.5743 -1.6145 -1.0149
 1211TIP3    H225049   5.311  -0.066   0.083 -0.0937 -0.2351  1.0147
 1212TIP3   OH225050   0.559   6.130   4.398  0.2610  0.5128  0.4660
 1212TIP3    H125051   0.561   6.139   4.493  1.0565  0.2711  0.4842
 1212TIP3    H225052   0.645   6.163   4.369  0.1045  0.4004 -0.1427
 1213TIP3   OH225053   5.121   1.594   1.350 -0.2123  0.6680 -0.2763
 1213TIP3    H125054   5.086   1.600   1.261  0.2103  0.8914 -0.4298
 1213TIP3    H225055   5.194   1.656   1.351  1.2868 -1.0276 -0.4946
 1214TIP3   OH225056   0.906   4.802   2.258 -0.1901 -0.1549 -0.6312
 1214TIP3    H125057   0.981   4.836   2.210  0.1184  0.3956  0.2222
 1214TIP3    H225058   0.887   4.717   2.218  1.5185 -0.7601 -0.1770
 1215TIP3   OH225059   4.690   6.635   0.088 -0.1067 -0.6216 -0.1375
 1215TIP3    H125060   4.699   6.701   0.156 -1.0366 -0.2147 -0.4046
 1215TIP3    H225061   4.602   6.599   0.101 -0.3011 -0.5205 -1.1422
 1216TIP3   OH225062   5.069   5.852  13.061 -0.1805 -0.1240 -0.1994
 1216TIP3    H125063   5.111   5.779  13.107 -0.7564 -0.1508  0.2818
 1216TIP3    H225064   5.141   5.894  13.013  0.9629  1.5450  2.8487
 1217TIP3   OH225065   6.094   1.975  15.589 -0.0729  0.2546  0.1194
 1217TIP3    H125066   6.019   1.924  15.620  0.0135 -0.4537 -0.8276
 1217TIP3    H225067   6.123   2.024  15.666 -0.5860 -0.6095  0.8714
 1218TIP3   OH225068   6.624   4.660   5.527  0.2148  0.1173  0.5556
 1218TIP3    H125069   6.713   4.696   5.528  0.1763  0.3127 -1.0735
 1218TIP3    H225070   6.576   4.717   5.466 -0.3107 -1.5888 -0.6650
 1219TIP3   OH225071   3.390   1.533   1.367 -0.0235 -0.3425  0.0162
 1219TIP3    H125072   3.333   1.607   1.347 -1.5015 -1.6742 -0.7657
 1219TIP3    H225073   3.336   1.474   1.419  1.3655 -0.5768  1.2265
 1220TIP3   OH225074   0.390   5.259  15.142  0.0551  0.3899 -0.6211
 1220TIP3    H125075   0.346   5.194  15.198  0.1544  1.4555  0.7238
 1220TIP3    H225076   0.477   5.268  15.180  0.1075  1.1644 -0.9142
 1221TIP3   OH225077   3.876   4.091   1.240  0.3602  0.4854  0.0464
 1221TIP3    H125078   3.940   4.060   1.303 -0.1289  0.6232  0.6115
 1221TIP3    H225079   3.878   4.026   1.169 -1.2726 -1.2873  1.5999
 1222TIP3   OH225080   1.340   3.181   3.229  0.2102 -0.0056 -0.2395
 1222TIP3    H125081   1.390   3.146   3.155 -1.8369 -1.7177 -0.8729
 1222TIP3    H225082   1.261   3.216   3.189 -1.1567 -1.4238  1.1812
 1223TIP3   OH225083   2.319   2.686   6.439  0.2210  0.1089  0.2806
 1223TIP3    H125084   2.300   2.682   6.532  0.3219 -0.0673  0.2937
 1223TIP3    H225085   2.378   2.613   6.423  0.1697  0.1109  0.0705
 1224TIP3   OH225086   6.236   0.415   3.707 -0.2847  0.0252 -0.5810
 1224TIP3    H125087   6.256   0.382   3.795 -0.5731 -0.2387 -0.6118
 1224TIP3    H225088   6.316   0.400   3.656 -0.2681 -0.2279 -0.4790
 1225TIP3   OH225089   1.932   6.058  11.160  0.5775 -0.0827  0.6712
 1225TIP3    H125090   1.964   5.972  11.136  0.1308 -0.9405  3.0079
 1225TIP3    H225091   1.928   6.056  11.256 -2.3594  1.4530  0.6228
 1226TIP3   OH225092   1.359   5.105   6.403  0.1776 -0.0031  0.5581
 1226TIP3    H125093   1.447   5.141   6.415  0.4129 -0.0717 -0.9072
 1226TIP3    H225094   1.313   5.171   6.353 -0.2797 -0.4559  0.3831
 1227TIP3   OH225095   4.758   6.121  15.135  0.4137 -0.3052 -0.1814
 1227TIP3    H125096   4.711   6.110  15.052 -0.8952 -0.5580  0.5847
 1227TIP3    H225097   4.735   6.044  15.186  0.6350  0.2033  0.6963
 1228TIP3   OH225098   6.249   1.302   5.015  0.1667  0.1157 -0.4534
 1228TIP3    H125099   6.228   1.313   4.923 -0.8430 -0.6405 -0.3174
 1228TIP3    H225100   6.275   1.390   5.044 -0.3438  0.5284 -1.2371
 1229TIP3   OH225101   4.379   5.720   5.886 -0.6166  0.3659  0.1922
 1229TIP3    H125102   4.388   5.693   5.977  2.7409 -1.6731 -0.6493
 1229TIP3    H225103   4.369   5.638   5.838 -2.1058  1.4095 -1.3440
 1230TIP3   OH225104   3.972   1.331  15.770  0.8869  0.2096  0.1799
 1230TIP3    H125105   3.980   1.315  15.864  0.3903  1.2471  0.4062
 1230TIP3    H225106   3.971   1.244  15.731 -0.9792 -0.2858  1.3087
 1231TIP3   OH225107   0.406   1.825  16.471 -0.1726  0.3975 -0.4086
 1231TIP3    H125108   0.419   1.916  16.498  1.0059  0.3881 -0.8997
 1231TIP3    H225109   0.319   1.803  16.502 -1.2272  2.2857 -1.8749
 1232TIP3   OH225110   3.722   3.231   0.065 -0.6085  0.3750 -0.0254
 1232TIP3    H125111   3.778   3.242   0.142 -1.7875  1.2744  0.7304
 1232TIP3    H225112   3.636   3.209   0.101 -0.7663 -0.8735 -1.1624
 1233TIP3   OH225113   0.764   3.351  12.646  0.0347 -0.0402  0.5086
 1233TIP3    H125114   0.853   3.383  12.627 -0.0267 -0.1288  0.0694
 1233TIP3    H225115   0.732   3.319  12.562 -0.9465  1.2732  0.3640
 1234TIP3   OH225116   2.663   4.346   2.251  0.2654  0.2774 -0.6102
 1234TIP3    H125117   2.619   4.428   2.230  3.1354  1.7240 -1.2181
 1234TIP3    H225118   2.659   4.295   2.171  0.3516  0.7330 -0.9075
 1235TIP3   OH225119   4.164   2.819   3.224 -0.2376  0.0067 -0.1222
 1235TIP3    H125120   4.243   2.778   3.188 -0.5749 -0.1417 -0.7113
 1235TIP3    H225121   4.108   2.745   3.248 -0.9991  0.1006 -1.5296
 1236TIP3   OH225122   6.329   4.985  16.571  0.2757  0.6737  0.4642
 1236TIP3    H125123   6.388   5.059  16.557 -0.1432  0.8727 -0.2686
 1236TIP3    H225124   6.368   4.937  16.645  0.2936  1.8802  1.2441
 1237TIP3   OH225125   0.787   3.564   3.106  0.1589 -0.5705  0.6089
 1237TIP3    H125126   0.727   3.629   3.069  0.7507 -0.2686  0.1671
 1237TIP3    H225127   0.736   3.484   3.110  0.1844 -0.7199 -1.2768
 1238TIP3   OH225128   2.296   0.759  15.195  0.3575  0.7092 -0.1243
 1238TIP3    H125129   2.372   0.817  15.194 -0.5557  1.9192 -0.6629
 1238TIP3    H225130   2.320   0.686  15.137  2.1429 -0.3164  1.8114
 1239TIP3   OH225131   5.836   0.048   2.028 -0.0465  0.4367  0.1403
 1239TIP3    H125132   5.924   0.020   2.053  0.0165  1.0137  0.5592
 1239TIP3    H225133   5.846   0.138   1.996 -0.3839  0.2814 -0.4273
 1240TIP3   OH225134   0.310   4.372   5.937  0.2814  0.2778 -0.8632
 1240TIP3    H125135   0.356   4.420   5.868  0.5645  1.0888 -0.1122
 1240TIP3    H225136   0.356   4.396   6.018 -0.4326 -0.1942 -0.3109
 1241TIP3   OH225137   0.583   4.893   4.390  0.1717  0.0932  0.1696
 1241TIP3    H125138   0.543   4.880   4.476 -0.9986 -2.5071 -0.6991
 1241TIP3    H225139   0.509   4.888   4.328  1.3276 -1.0000 -1.1718
 1242TIP3   OH225140   3.156   3.885   0.231 -0.2915 -0.1006  0.4802
 1242TIP3    H125141   3.150   3.974   0.195  0.0161  0.0720  0.8427
 1242TIP3    H225142   3.121   3.829   0.163 -1.3467  0.3893  0.6075
 1243TIP3   OH225143   2.742   2.992   5.139 -0.2322 -0.0830 -0.2594
 1243TIP3    H125144   2.732   2.932   5.213 -1.1272  0.1101 -0.2224
 1243TIP3    H225145   2.727   2.938   5.062 -1.9048  0.2478 -0.1981
 1244TIP3   OH225146   2.319   3.426  14.808 -0.1800 -0.4941 -0.9838
 1244TIP3    H125147   2.300   3.352  14.866  0.6662  0.0756  0.0294
 1244TIP3    H225148   2.353   3.385  14.728 -0.1285 -1.2205 -0.5959
 1245TIP3   OH225149   1.573   3.652  14.076  0.4637 -0.2809  0.4158
 1245TIP3    H125150   1.598   3.741  14.099 -0.5695  0.6488 -1.9240
 1245TIP3    H225151   1.546   3.613  14.159  2.3480  1.0855  1.7200
 1246TIP3   OH225152   0.117   5.995   3.209 -0.4223  0.5213 -0.5213
 1246TIP3    H125153   0.078   5.993   3.296  0.1994  3.8458 -0.1217
 1246TIP3    H225154   0.056   6.046   3.156 -0.5409 -1.0357 -1.9363
 1247TIP3   OH225155   1.615   0.848  11.468  0.6907 -0.2904  0.2593
 1247TIP3    H125156   1.530   0.823  11.503  0.1218  0.2635 -0.7149
 1247TIP3    H225157   1.625   0.940  11.493  0.2320  0.1402 -1.1130
 1248TIP3   OH225158   6.371   3.778   0.033 -0.0909  0.0372  0.1999
 1248TIP3    H125159   6.277   3.775   0.014 -0.1554  0.4136  0.4542
 1248TIP3    H225160   6.377   3.766   0.127  0.1168  0.0366  0.1877
 1249TIP3   OH225161   5.779   5.174  13.602  0.2314  0.5271 -0.1048
 1249TIP3    H125162   5.823   5.226  13.669  0.7113  0.5900 -0.4651
 1249TIP3    H225163   5.805   5.214  13.520 -0.0555  0.2193 -0.3456
 1250TIP3   OH225164   5.378   1.023  15.576  0.0306  0.1701 -0.7887
 1250TIP3    H125165   5.403   1.022  15.669 -0.2597 -1.1197 -0.7152
 1250TIP3    H225166   5.283   1.033  15.577  0.1509  1.4557 -0.9907
 1251TIP3   OH225167   5.999   6.401   3.583  0.3026  0.1761 -0.1966
 1251TIP3    H125168   6.086   6.419   3.619  0.3552 -1.0206  0.2718
 1251TIP3    H225169   5.939   6.446   3.642  0.7100  2.7268 -1.6666
 1252TIP3   OH225170   3.020   2.745   5.216 -0.2363  0.0420 -0.1260
 1252TIP3    H125171   3.069   2.802   5.276 -1.3263  1.2233 -0.3416
 1252TIP3    H225172   2.945   2.715   5.266 -0.3150 -0.2157 -0.3965
 1253TIP3   OH225173   0.373   4.982  11.513  0.2231  0.1545  0.3646
 1253TIP3    H125174   0.412   4.945  11.592 -0.9958  0.6176  1.1916
 1253TIP3    H225175   0.358   4.907  11.456  3.0067  0.0499 -0.2844
 1254TIP3   OH225176   3.682   3.318   3.991 -0.0873 -0.6215 -0.4414
 1254TIP3    H125177   3.612   3.304   4.055  0.0576 -1.4030 -0.4533
 1254TIP3    H225178   3.661   3.259   3.919  0.2355 -0.3854 -0.7294
 1255TIP3   OH225179   0.628   5.536  14.554 -0.6030  0.4151  0.0654
 1255TIP3    H125180   0.605   5.452  14.514  1.0073  0.7177 -1.5190
 1255TIP3    H225181   0.649   5.515  14.645  0.0948 -0.9387 -0.4114
 1256TIP3   OH225182   4.903   4.094  15.881  0.2909  0.0578  0.0732
 1256TIP3    H125183   4.948   4.026  15.832 -0.2336 -0.1716 -0.0823
 1256TIP3    H225184   4.963   4.115  15.953  0.0299 -1.2535  0.6883
 1257TIP3   OH225185   2.033   5.665  11.719  0.3756  0.5377 -0.2502
 1257TIP3    H125186   1.962   5.716  11.758  0.9508  0.8183  0.4416
 1257TIP3    H225187   2.109   5.723  11.722  0.8389 -0.0641 -0.2041
 1258TIP3   OH225188   6.595   2.234  16.395  0.1110 -0.1664  0.2336
 1258TIP3    H125189   6.513   2.193  16.424 -0.1705  0.0466 -0.2573
 1258TIP3    H225190   6.568   2.321  16.364  0.4651 -0.2467 -0.2991
 1259TIP3   OH225191   3.173   0.580   2.614 -0.0329  0.3465  0.4847
 1259TIP3    H125192   3.086   0.588   2.576  0.5018  0.8026 -0.6712
 1259TIP3    H225193   3.227   0.639   2.562  1.3156 -1.1711  0.1147
 1260TIP3   OH225194   6.704   1.887  11.872  0.3209  0.0522  0.1840
 1260TIP3    H125195   6.636   1.872  11.938 -0.2711  1.7236 -0.0494
 1260TIP3    H225196   6.661   1.868  11.789  0.2081  0.8611  0.0568
 1261TIP3   OH225197   5.359   2.717   4.053  0.3144 -0.0669 -0.0701
 1261TIP3    H125198   5.388   2.642   4.106  0.6158  0.6414  0.7780
 1261TIP3    H225199   5.306   2.678   3.984 -0.1585 -1.0116  0.8001
 1262TIP3   OH225200   1.260   4.652  15.640 -0.1408 -0.3877  0.7024
 1262TIP3    H125201   1.231   4.743  15.631  0.5174 -0.2566 -0.1777
 1262TIP3    H225202   1.184   4.606  15.677 -0.7278  0.3664  0.4515
 1263TIP3   OH225203   6.450   3.224   3.633 -0.7423  0.7620 -0.1496
 1263TIP3    H125204   6.461   3.272   3.715 -1.8116  0.0197  0.4446
 1263TIP3    H225205   6.531   3.174   3.623 -0.1203  1.7618 -0.1592
 1264TIP3   OH225206   4.497   4.588  16.602  0.1038  0.0819 -0.2547
 1264TIP3    H125207   4.422   4.627  16.558 -0.6332 -1.9783 -0.8853
 1264TIP3    H225208   4.519   4.650  16.672 -2.0250  0.8140 -0.2037
 1265TIP3   OH225209   4.027   2.341   4.666 -0.3597  0.1461 -0.4101
 1265TIP3    H125210   3.990   2.428   4.680 -0.0650  0.3655 -0.9305
 1265TIP3    H225211   3.951   2.284   4.652 -0.5929  0.1356  0.8854
 1266TIP3   OH225212   6.333   4.406  12.469  0.4233 -0.1570 -0.2283
 1266TIP3    H125213   6.399   4.378  12.405  0.7035  0.8112 -0.3720
 1266TIP3    H225214   6.251   4.408  12.419  0.2571 -1.4268 -0.0317
 1267TIP3   OH225215   3.168   4.775   2.486  0.1942  0.2621  0.3864
 1267TIP3    H125216   3.141   4.848   2.431  0.9032 -0.4626 -0.9333
 1267TIP3    H225217   3.247   4.807   2.532  0.4453  0.3630 -0.1136
 1268TIP3   OH225218   1.554   5.034  13.573  0.8748 -0.1323 -0.0922
 1268TIP3    H125219   1.458   5.030  13.570  0.6861  0.2298  3.4976
 1268TIP3    H225220   1.582   4.943  13.577  0.7492 -0.2717 -2.0007
 1269TIP3   OH225221   6.584   5.671  16.541 -0.4592 -0.5627 -0.2273
 1269TIP3    H125222   6.538   5.617  16.605  0.3262  0.9817  1.6647
 1269TIP3    H225223   6.619   5.607  16.478 -1.1785 -2.1143  0.8954
 1270TIP3   OH225224   2.089   5.837  16.758  0.8362 -0.3663  0.4772
 1270TIP3    H125225   2.001   5.800  16.763  0.8201 -0.4661 -0.5593
 1270TIP3    H225226   2.116   5.822  16.668  0.9537  1.8748  0.1318
 1271TIP3   OH225227   2.299   2.320   2.941 -0.3433 -0.7114  0.5333
 1271TIP3    H125228   2.241   2.278   3.005 -0.0940 -1.3908  0.3198
 1271TIP3    H225229   2.316   2.252   2.876 -1.2603  0.2189 -0.7009
 1272TIP3   OH225230   2.972   2.487   2.732  0.6310 -0.0777 -0.3455
 1272TIP3    H125231   3.053   2.459   2.690  0.8142  0.1060 -0.1195
 1272TIP3    H225232   2.990   2.577   2.761 -0.3964  0.8278 -2.3123
 1273TIP3   OH225233   2.177   2.453  13.536  0.4152  0.0523  0.2501
 1273TIP3    H125234   2.095   2.403  13.532  0.0791  0.5552  0.8244
 1273TIP3    H225235   2.150   2.542  13.557  0.8598  0.8555 -2.3469
 1274TIP3   OH225236   1.414   5.102  11.288 -0.2834  0.3063  0.1267
 1274TIP3    H125237   1.435   5.009  11.286  0.7983  0.4634  2.3874
 1274TIP3    H225238   1.498   5.146  11.273 -0.6514  0.9217 -0.1727
 1275TIP3   OH225239   0.911   0.507  11.969 -0.2999  0.3342  0.5738
 1275TIP3    H125240   0.855   0.568  12.017  0.3614  0.3205  1.3763
 1275TIP3    H225241   0.944   0.448  12.036  1.5511  1.0086  0.2723
 1276TIP3   OH225242   2.560   4.836   6.125 -0.6682 -0.0387  0.4391
 1276TIP3    H125243   2.573   4.865   6.035  1.6814 -0.6148  0.5547
 1276TIP3    H225244   2.594   4.746   6.126 -0.5910 -0.0044  1.9016
 1277TIP3   OH225245   0.663   3.102   4.763  0.8516 -0.0736  0.4573
 1277TIP3    H125246   0.584   3.144   4.729  0.5075 -0.9482  0.1656
 1277TIP3    H225247   0.637   3.069   4.849  1.1168  0.2740  0.6761
 1278TIP3   OH225248   2.208   5.158  15.884  0.0993 -0.6537  0.0880
 1278TIP3    H125249   2.228   5.149  15.977 -1.0729  1.7325  0.6004
 1278TIP3    H225250   2.284   5.120  15.840  0.4081 -2.3593  1.9885
 1279TIP3   OH225251   2.708   3.920   3.958 -0.2859 -0.4708 -0.0021
 1279TIP3    H125252   2.619   3.954   3.949 -0.4208 -0.9309 -0.4981
 1279TIP3    H225253   2.753   3.982   4.015 -0.1548  1.2354 -1.8910
 1280TIP3   OH225254   0.046   2.099  13.667  0.5119 -0.6350  0.6969
 1280TIP3    H125255   0.012   2.059  13.747  0.3924 -0.8640  0.5297
 1280TIP3    H225256   0.021   2.039  13.597  0.0598 -0.1165  0.4102
 1281TIP3   OH225257   1.516   4.119  14.719 -0.3960  0.0678  0.1305
 1281TIP3    H125258   1.475   4.146  14.801 -0.7247  1.7636 -0.5786
 1281TIP3    H225259   1.594   4.173  14.712 -0.3808 -0.0623 -0.6914
 1282TIP3   OH225260   2.338   2.294   1.880 -0.4929  0.1625  0.5091
 1282TIP3    H125261   2.414   2.253   1.839 -0.3993  2.0959 -1.3124
 1282TIP3    H225262   2.270   2.227   1.878  0.6513 -1.0082  0.6325
 1283TIP3   OH225263   5.628   5.256   2.894 -0.3991 -0.2206 -0.3348
 1283TIP3    H125264   5.622   5.184   2.957  2.9267 -2.3857 -2.3389
 1283TIP3    H225265   5.705   5.306   2.921 -0.9683  0.8835 -0.6974
 1284TIP3   OH225266   3.648   6.675   4.307  0.7424  0.0934  0.1337
 1284TIP3    H125267   3.716   6.620   4.267 -0.3852 -0.7524 -0.6778
 1284TIP3    H225268   3.566   6.639   4.273 -0.1105  1.0976  1.1000
 1285TIP3   OH225269   1.196   5.279   3.300 -0.1321 -0.2380  0.2486
 1285TIP3    H125270   1.165   5.196   3.265  1.5229 -1.7011  2.1390
 1285TIP3    H225271   1.227   5.328   3.224 -1.7003 -1.0873 -0.9461
 1286TIP3   OH225272   5.387   5.418   0.489  0.2053 -0.1388 -0.8408
 1286TIP3    H125273   5.469   5.374   0.512  1.2357  0.7189 -2.8278
 1286TIP3    H225274   5.388   5.499   0.540  0.5478 -0.1638 -0.8058
 1287TIP3   OH225275   0.044   1.616  11.894  0.7928  0.1507  0.1276
 1287TIP3    H125276   0.014   1.578  11.977  0.1536  1.3838  0.4748
 1287TIP3    H225277  -0.009   1.695  11.884  1.1418  0.2080 -1.2728
 1288TIP3   OH225278   2.536   5.202  16.307 -0.3796 -0.1756  0.5109
 1288TIP3    H125279   2.527   5.255  16.386 -1.5555  1.6492 -0.7921
 1288TIP3    H225280   2.625   5.168  16.310  0.3127  1.6569  1.5593
 1289TIP3   OH225281   4.216   3.765   1.026  0.4931 -0.2853  0.1565
 1289TIP3    H125282   4.159   3.725   1.092  1.2467 -0.3873  0.7594
 1289TIP3    H225283   4.278   3.817   1.077  1.1123 -0.3990 -0.4762
 1290TIP3   OH225284   6.386   0.377  15.499 -0.1811 -0.2157 -0.6288
 1290TIP3    H125285   6.357   0.395  15.410 -2.3591  0.9387  0.2684
 1290TIP3    H225286   6.402   0.463  15.537 -1.2166 -0.5775  0.6800
 1291TIP3   OH225287   6.682   3.440  13.611  0.1521 -0.1793  0.2106
 1291TIP3    H125288   6.643   3.355  13.630 -0.6094  0.0302 -0.3446
 1291TIP3    H225289   6.607   3.496  13.591  0.7684  0.0312 -1.6627
 1292TIP3   OH225290   6.706   5.038  17.093  0.1754 -0.5393  0.7393
 1292TIP3    H125291   6.633   4.991  17.134 -0.6446 -0.5992 -0.7645
 1292TIP3    H225292   6.666   5.090  17.024  1.3138  1.0092  1.2124
 1293TIP3   OH225293   3.705   1.609   5.155 -0.3377 -0.0652  0.1380
 1293TIP3    H125294   3.798   1.602   5.134 -0.7593  0.3213 -1.9900
 1293TIP3    H225295   3.697   1.693   5.200  0.0672  0.8136 -1.3980
 1294TIP3   OH225296   5.231   5.703  17.011  0.5456 -0.5386  0.0113
 1294TIP3    H125297   5.302   5.759  17.042 -0.9333  1.7274 -0.5956
 1294TIP3    H225298   5.171   5.698  17.085 -0.9453  1.4639 -1.0107
 1295TIP3   OH225299   0.924   6.404  12.094  0.1464 -0.0245 -0.0198
 1295TIP3    H125300   0.941   6.351  12.016  0.2428  0.2747 -0.2032
 1295TIP3    H225301   0.893   6.341  12.159 -0.6454 -0.1615 -0.5260
 1296TIP3   OH225302   2.946   6.754  11.941 -0.0863  0.7506  0.0619
 1296TIP3    H125303   2.918   6.689  11.877 -0.2497  0.0542  0.8314
 1296TIP3    H225304   3.041   6.751  11.939 -0.0866 -0.1947  0.7595
 1297TIP3   OH225305   0.670   0.208   0.392  0.0579  0.1329 -0.0737
 1297TIP3    H125306   0.687   0.301   0.378  0.9698 -0.4443 -3.2790
 1297TIP3    H225307   0.746   0.178   0.443  0.0268  0.9945  0.5070
 1298TIP3   OH225308   5.113   0.342  13.732 -0.4050 -0.3535 -0.1852
 1298TIP3    H125309   5.122   0.401  13.807  0.1534  0.5045 -0.9036
 1298TIP3    H225310   5.198   0.298  13.726 -0.3585 -0.2240 -0.4718
 1299TIP3   OH225311   5.938   4.992  17.079 -0.6489  0.2996  0.2875
 1299TIP3    H125312   6.029   4.965  17.071 -0.8079  0.0630 -0.7070
 1299TIP3    H225313   5.895   4.919  17.124  0.3484  1.8782  4.0734
 1300TIP3   OH225314   1.016   0.732  16.170 -0.6413  0.7037  0.4018
 1300TIP3    H125315   1.102   0.774  16.169  0.0027 -0.5797  0.0453
 1300TIP3    H225316   0.953   0.804  16.164  0.4632  1.5347 -1.9279
 1301TIP3   OH225317   4.018   5.426   0.695 -0.0932 -0.5233  0.4376
 1301TIP3    H125318   4.032   5.479   0.617  0.1206 -0.2529  0.6575
 1301TIP3    H225319   4.082   5.459   0.758 -1.5371  0.5423  1.3620
 1302TIP3   OH225320   5.064   5.547   2.804 -0.1698  0.3205  0.5689
 1302TIP3    H125321   5.134   5.553   2.869  1.6481 -1.0443 -1.2171
 1302TIP3    H225322   5.074   5.625   2.750 -0.2122  0.2692  0.4869
 1303TIP3   OH225323   3.414   3.893  14.515  0.3556  0.0493  0.4159
 1303TIP3    H125324   3.334   3.911  14.565 -0.0132 -0.0517 -0.1326
 1303TIP3    H225325   3.479   3.954  14.551 -0.6171  1.8283 -0.7598
 1304TIP3   OH225326   4.172   3.871  14.619  0.1725  0.4213  0.9193
 1304TIP3    H125327   4.242   3.924  14.579 -0.3237  0.2865 -0.1469
 1304TIP3    H225328   4.092   3.900  14.575 -0.2836 -0.2564  1.2989
 1305TIP3   OH225329   1.916   6.241   5.825 -0.2522  0.7829 -0.4230
 1305TIP3    H125330   1.895   6.277   5.911  3.1954 -0.1396  0.9014
 1305TIP3    H225331   1.835   6.202   5.795 -1.8374  2.1980  1.8652
 1306TIP3   OH225332   4.445   2.161  14.281 -0.3678  0.5668  0.4703
 1306TIP3    H125333   4.465   2.175  14.374  4.3205 -1.5126 -0.0952
 1306TIP3    H225334   4.411   2.071  14.278 -0.0466  0.4597  0.1101
 1307TIP3   OH225335   2.505   1.835  15.973 -0.1795  0.2025 -0.0427
 1307TIP3    H125336   2.535   1.817  15.884  0.2986  1.5871 -0.1783
 1307TIP3    H225337   2.423   1.884  15.961  0.9331  2.1975  0.2133
 1308TIP3   OH225338   4.647   0.423  11.321  0.2193 -0.4638 -0.9526
 1308TIP3    H125339   4.681   0.355  11.263 -1.0344  0.3046 -2.6232
 1308TIP3    H225340   4.559   0.442  11.288  0.5240  1.9300 -0.5198
 1309TIP3   OH225341   2.886   1.141   2.711  0.1286 -0.1717 -0.5407
 1309TIP3    H125342   2.869   1.171   2.801  1.1751 -0.6403 -0.1822
 1309TIP3    H225343   2.936   1.213   2.672 -0.9052  0.3250 -0.9639
 1310TIP3   OH225344   1.230   4.824  12.039 -0.5030 -0.1723 -0.4183
 1310TIP3    H125345   1.231   4.877  11.959  0.1390 -1.0659 -1.0108
 1310TIP3    H225346   1.245   4.734  12.009 -2.8779 -0.8999  0.4252
 1311TIP3   OH225347   4.617   3.599  11.421 -0.0678  0.5705 -0.3784
 1311TIP3    H125348   4.690   3.545  11.452 -0.7719  0.9602  2.0873
 1311TIP3    H225349   4.611   3.670  11.485 -2.3236  0.7911 -0.7852
 1312TIP3   OH225350   5.049   1.541   5.106  0.5129 -0.1875 -0.6720
 1312TIP3    H125351   5.011   1.458   5.080  0.6105 -0.3526 -0.3007
 1312TIP3    H225352   5.006   1.561   5.190 -1.2772  1.3163 -1.9024
 1313TIP3   OH225353   0.228   3.114  12.238  0.1055 -0.6887  0.9721
 1313TIP3    H125354   0.136   3.122  12.263  0.3544 -2.4845  2.5711
 1313TIP3    H225355   0.226   3.088  12.146 -0.9491  0.3797  0.6816
 1314TIP3   OH225356   0.485   1.051  16.317 -0.1879  0.1834 -0.1779
 1314TIP3    H125357   0.401   1.080  16.353  0.4200  0.6819  0.8703
 1314TIP3    H225358   0.546   1.122  16.338  0.9705 -1.1184  0.9988
 1315TIP3   OH225359   0.725   2.622   2.069  0.1371 -0.2753 -0.3985
 1315TIP3    H125360   0.800   2.681   2.062  0.1286 -0.0310  1.3342
 1315TIP3    H225361   0.727   2.591   2.160 -2.5710  0.7244  0.0547
 1316TIP3   OH225362   2.682   0.838  14.787  0.7701 -0.7361  0.9129
 1316TIP3    H125363   2.732   0.857  14.867  0.7747 -0.3564  0.8232
 1316TIP3    H225364   2.744   0.856  14.716  0.5384 -0.3637  0.8040
 1317TIP3   OH225365   0.117   0.990   2.578 -0.4298 -0.3362 -0.4061
 1317TIP3    H125366   0.099   1.082   2.598 -3.5114 -1.0636  0.3217
 1317TIP3    H225367   0.116   0.986   2.482 -0.2500  0.3816 -0.4434
 1318TIP3   OH225368   6.466   5.552  17.119  0.1249  0.0446  0.3400
 1318TIP3    H125369   6.479   5.511  17.034 -1.4141  0.0576  0.0770
 1318TIP3    H225370   6.509   5.494  17.181  1.8895  0.4139 -0.5100
 1319TIP3   OH225371   1.142   1.777   6.410 -0.1214  0.3621 -0.2544
 1319TIP3    H125372   1.110   1.718   6.478 -1.0325  1.7806  0.5670
 1319TIP3    H225373   1.071   1.840   6.397  0.8849  1.3739 -0.9880
 1320TIP3   OH225374   4.449   3.656  16.421 -0.0724 -0.9100  0.5151
 1320TIP3    H125375   4.441   3.749  16.443 -0.7847 -0.9749  0.5633
 1320TIP3    H225376   4.430   3.611  16.503  1.4252 -1.0842  0.7774
 1321TIP3   OH225377   0.348   3.576  16.137  0.1003 -0.2231 -0.0520
 1321TIP3    H125378   0.311   3.663  16.122  0.1714 -0.0626  0.6842
 1321TIP3    H225379   0.442   3.587  16.124  0.1846 -0.0386  0.7223
 1322TIP3   OH225380   3.515   5.293  16.771  0.1220  0.1990  0.3756
 1322TIP3    H125381   3.571   5.370  16.768  0.5743 -0.1485 -0.1064
 1322TIP3    H225382   3.573   5.219  16.752 -0.3508 -0.2358  0.6000
 1323TIP3   OH225383   1.230   6.022   3.783 -0.5843 -0.1866 -0.0944
 1323TIP3    H125384   1.291   6.096   3.783 -2.1501  1.1283 -0.1511
 1323TIP3    H225385   1.190   6.024   3.870  1.5410 -2.8597  1.0497
 1324TIP3   OH225386   0.317   5.049   0.112  0.0192 -0.2878  0.2764
 1324TIP3    H125387   0.349   4.973   0.161  1.7912  0.1365 -0.1993
 1324TIP3    H225388   0.348   5.034   0.022 -1.2432  0.0689 -0.2261
 1325TIP3   OH225389   5.870   2.072   5.928 -0.2838 -0.6594 -0.0173
 1325TIP3    H125390   5.890   2.101   5.839  1.7080 -1.0587  0.2888
 1325TIP3    H225391   5.781   2.038   5.922 -0.5852  0.3451 -1.6036
 1326TIP3   OH225392   2.515   0.519   1.999  0.6509 -0.5213 -0.5034
 1326TIP3    H125393   2.537   0.612   2.005  0.8880 -0.6081  0.0313
 1326TIP3    H225394   2.504   0.491   2.090 -0.3452 -0.7993 -0.7015
 1327TIP3   OH225395   6.157   4.807  12.530  0.9160  0.3354 -0.1013
 1327TIP3    H125396   6.205   4.779  12.452 -1.6742 -1.1567 -1.2297
 1327TIP3    H225397   6.129   4.896  12.510  0.8821  0.2169 -0.6000
 1328TIP3   OH225398   4.401   0.104   2.125  0.0965  0.2665 -0.6616
 1328TIP3    H125399   4.345   0.178   2.103  0.4767  0.6053 -0.4874
 1328TIP3    H225400   4.473   0.142   2.175  0.4023 -0.1905 -0.7493
 1329TIP3   OH225401   1.989   3.884   6.108  0.4712 -0.4100 -0.1644
 1329TIP3    H125402   1.911   3.831   6.089 -0.6862  1.0762  0.2758
 1329TIP3    H225403   2.063   3.829   6.082 -0.7606 -1.4942 -1.4750
 1330TIP3   OH225404   2.648   4.239   5.692 -0.3537  0.1685  0.0055
 1330TIP3    H125405   2.702   4.210   5.619 -1.4423 -1.0451 -0.3329
 1330TIP3    H225406   2.558   4.218   5.666 -0.9259  1.3947  0.9177
 1331TIP3   OH225407   5.040   5.574  11.897 -0.0422 -0.1637  0.0239
 1331TIP3    H125408   4.977   5.609  11.960 -0.4090  0.1262 -0.5055
 1331TIP3    H225409   5.006   5.487  11.874 -0.5707  0.2387 -0.7197
 1332TIP3   OH225410   3.664   6.740  13.534  0.7732  0.1252  0.2670
 1332TIP3    H125411   3.749   6.751  13.577  2.2299 -0.3186 -2.3919
 1332TIP3    H225412   3.648   6.646  13.537  0.4186  0.1921  0.6212
 1333TIP3   OH225413   0.743   3.713  15.495 -0.4004  0.5125 -0.2707
 1333TIP3    H125414   0.768   3.771  15.423 -0.4976  0.4411 -0.3606
 1333TIP3    H225415   0.777   3.627  15.469 -0.7502  0.4134 -0.3958
 1334TIP3   OH225416   6.199   4.251  13.188 -0.1836  0.0501 -0.3250
 1334TIP3    H125417   6.116   4.266  13.143 -1.5484 -1.7817  1.4666
 1334TIP3    H225418   6.207   4.155  13.194  2.2854  0.1850 -0.8732
 1335TIP3   OH225419   6.664   3.311   2.901  0.1144 -0.3592 -0.3910
 1335TIP3    H125420   6.666   3.371   2.976 -2.0322  0.6161 -1.0771
 1335TIP3    H225421   6.721   3.351   2.836  0.0277  0.0666 -0.2030
 1336TIP3   OH225422   6.740   2.441  17.236  0.3094  0.1604 -0.7139
 1336TIP3    H125423   6.719   2.413  17.147  1.1772 -1.2291 -0.4880
 1336TIP3    H225424   6.688   2.383  17.293 -0.3023  1.0877 -0.3000
 1337TIP3   OH225425   2.285   3.757  16.814  0.5390  0.0458  0.4368
 1337TIP3    H125426   2.344   3.685  16.834  0.0776 -0.0086  1.6270
 1337TIP3    H225427   2.265   3.747  16.721  1.5788 -0.5370  0.2728
 1338TIP3   OH225428   6.013   3.402  12.662 -0.1084 -0.2599 -0.1182
 1338TIP3    H125429   5.923   3.432  12.676 -0.3514 -1.3321  0.7090
 1338TIP3    H225430   6.004   3.311  12.634  0.6773 -0.0208 -1.1415
 1339TIP3   OH225431   0.460   3.724   4.072 -1.3301 -0.7859 -0.4098
 1339TIP3    H125432   0.458   3.810   4.031  2.4393  0.0064  0.8675
 1339TIP3    H225433   0.454   3.662   3.999 -2.2598  0.5442 -1.4836
 1340TIP3   OH225434   3.143   3.885  13.921  0.2277  0.1754  0.1584
 1340TIP3    H125435   3.191   3.899  14.003  0.4297 -2.4420  0.5109
 1340TIP3    H225436   3.209   3.898  13.852  0.9342 -1.1409  0.5620
 1341TIP3   OH225437   5.830   1.160   3.532  0.6775  0.3414  0.6600
 1341TIP3    H125438   5.873   1.140   3.616 -0.8811 -1.0919  1.1276
 1341TIP3    H225439   5.739   1.179   3.556  0.4956  1.0345 -0.5873
 1342TIP3   OH225440   1.868   3.739  15.090  1.1448 -0.2570  0.5903
 1342TIP3    H125441   1.838   3.753  15.179  0.2729  1.1203  0.0945
 1342TIP3    H225442   1.897   3.826  15.060  0.1213 -0.4265 -0.9318
 1343TIP3   OH225443   1.496   5.355   5.397  0.2463  0.0202 -0.1723
 1343TIP3    H125444   1.540   5.330   5.478 -1.8776 -2.2900  0.3234
 1343TIP3    H225445   1.505   5.278   5.340 -0.6655  0.5942 -1.1042
 1344TIP3   OH225446   5.593   1.317  17.104 -0.2895 -0.3771  0.1234
 1344TIP3    H125447   5.651   1.252  17.143  0.2176 -0.8205 -1.3003
 1344TIP3    H225448   5.553   1.271  17.030 -2.3365 -0.0185  0.9801
 1345TIP3   OH225449   0.156   1.383   3.878 -0.5031 -0.1742 -0.8651
 1345TIP3    H125450   0.072   1.340   3.896 -0.8817  0.5782 -0.7999
 1345TIP3    H225451   0.133   1.475   3.863  0.2452 -0.0701 -1.4260
 1346TIP3   OH225452   3.306   5.349  16.617 -0.1876 -0.0114  0.0602
 1346TIP3    H125453   3.369   5.393  16.560 -0.0680 -0.0694  0.1484
 1346TIP3    H225454   3.354   5.335  16.699 -0.1098 -0.6297 -0.0870
 1347TIP3   OH225455   3.539   1.972  15.238 -0.2491 -0.2003 -0.0746
 1347TIP3    H125456   3.589   2.014  15.308  1.6475  0.5923 -1.8482
 1347TIP3    H225457   3.454   2.016  15.238 -0.1361  0.0294  1.4838
 1348TIP3   OH225458   3.283   0.080  17.231 -0.3784  0.7438 -0.2839
 1348TIP3    H125459   3.283   0.103  17.324  1.5674  2.6760 -0.7233
 1348TIP3    H225460   3.191   0.063  17.211 -0.3558 -4.2856  3.0255
 1349TIP3   OH225461   6.115   4.946   2.092  0.1303 -0.1875  0.0175
 1349TIP3    H125462   6.100   4.883   2.162 -2.8526  1.1126  0.5852
 1349TIP3    H225463   6.200   4.985   2.113 -0.2488 -0.5439  2.3389
 1350TIP3   OH225464   2.325   6.587   3.195 -0.0715 -0.0620  0.0761
 1350TIP3    H125465   2.336   6.578   3.290 -0.4931  1.8659  0.3381
 1350TIP3    H225466   2.323   6.498   3.162 -2.4669 -0.8407  2.1695
 1351TIP3   OH225467   5.143   6.348   0.848 -0.3486 -0.1096 -0.2433
 1351TIP3    H125468   5.093   6.267   0.849 -0.5415  0.0243  0.7022
 1351TIP3    H225469   5.097   6.406   0.909  1.8168 -0.5055  1.8022
 1352TIP3   OH225470   3.796   0.707  15.178 -0.3216  0.2342  0.1476
 1352TIP3    H125471   3.889   0.696  15.198  0.0436 -0.5579 -1.8401
 1352TIP3    H225472   3.795   0.734  15.086 -2.0890 -0.5376 -0.0704
 1353TIP3   OH225473   4.275   2.488  15.774 -0.2388  0.1028  0.5605
 1353TIP3    H125474   4.337   2.451  15.837  0.4644  0.8889  0.3463
 1353TIP3    H225475   4.265   2.419  15.708  0.3404 -0.0712  0.6426
 1354TIP3   OH225476   6.369   1.469   2.904  0.0926  0.0700  0.5095
 1354TIP3    H125477   6.391   1.408   2.833 -0.4308 -0.3995  0.7439
 1354TIP3    H225478   6.332   1.545   2.860  0.9410  0.3082  0.1981
 1355TIP3   OH225479   2.897   3.488   0.728  0.0216 -0.3289 -0.4377
 1355TIP3    H125480   2.980   3.494   0.776  1.1120 -0.8187 -2.2074
 1355TIP3    H225481   2.853   3.412   0.766  0.6011 -0.3674  0.1814
 1356TIP3   OH225482   1.840   3.636  12.119  0.8500 -0.4750  0.3987
 1356TIP3    H125483   1.768   3.678  12.165  0.8430 -0.9080  0.7893
 1356TIP3    H225484   1.800   3.596  12.041  0.1757 -3.0107  1.9883
 1357TIP3   OH225485   1.540   6.786   3.530  1.0975 -0.0354  0.0558
 1357TIP3    H125486   1.451   6.805   3.503  1.0861 -1.6954 -1.1621
 1357TIP3    H225487   1.531   6.718   3.596  1.3134  1.8444  2.0769
 1358TIP3   OH225488   5.605   1.897   3.481  1.0132 -0.1901 -0.2005
 1358TIP3    H125489   5.622   1.813   3.440  0.5529 -0.6613  0.5551
 1358TIP3    H225490   5.516   1.890   3.514  1.6332 -0.1290  1.5638
 1359TIP3   OH225491   2.936   6.404   6.753 -0.6192 -0.5835  0.3046
 1359TIP3    H125492   2.903   6.386   6.665 -1.1277  0.8416  0.1815
 1359TIP3    H225493   3.025   6.438   6.739 -1.2102  0.9670  0.2287
 1360TIP3   OH225494   6.161   3.424   0.322  0.2701 -0.5268  0.2876
 1360TIP3    H125495   6.158   3.331   0.347  1.4104 -0.6862 -0.1740
 1360TIP3    H225496   6.183   3.423   0.229  2.7981  0.2821  0.8612
 1361TIP3   OH225497   0.375   5.277   5.252  0.1568 -0.5205  0.0355
 1361TIP3    H125498   0.340   5.195   5.218 -2.2007 -0.6944  2.6875
 1361TIP3    H225499   0.446   5.250   5.311 -0.5954 -0.6658  0.8812
 1362TIP3   OH225500   1.322   0.006   1.914 -0.3130  0.3066 -0.0444
 1362TIP3    H125501   1.253   0.056   1.957 -1.7336 -3.0370  1.7102
 1362TIP3    H225502   1.384  -0.014   1.985 -1.2833 -2.8882 -0.0035
 1363TIP3   OH225503   1.110   4.609  13.684 -0.1573 -0.8775 -0.2751
 1363TIP3    H125504   1.019   4.578  13.685 -1.4790  2.7458  0.6343
 1363TIP3    H225505   1.126   4.634  13.593  0.1970 -2.1714 -0.5785
 1364TIP3   OH225506   6.373   6.454  14.019 -0.1838 -0.5619 -0.2044
 1364TIP3    H125507   6.288   6.435  14.059 -0.2919  0.3283 -0.0198
 1364TIP3    H225508   6.436   6.433  14.087 -0.3198  0.0412  0.1066
 1365TIP3   OH225509   4.761   0.556  14.457  0.0184  0.2566 -0.1080
 1365TIP3    H125510   4.849   0.590  14.470  0.2402 -0.2606 -0.2405
 1365TIP3    H225511   4.710   0.631  14.426 -0.2081  1.1840  2.4455
 1366TIP3   OH225512   2.630   2.317   2.926 -0.7400 -0.1166  0.0225
 1366TIP3    H125513   2.584   2.309   2.842 -0.9089 -0.9033  0.1788
 1366TIP3    H225514   2.595   2.397   2.965  0.6726  1.2638 -1.4629
 1367TIP3   OH225515   3.338   5.460   2.162 -0.3188 -0.6982  0.3527
 1367TIP3    H125516   3.255   5.475   2.117 -0.6718 -1.2976  0.7947
 1367TIP3    H225517   3.378   5.546   2.169 -2.4673  0.1449  3.1944
 1368TIP3   OH225518   3.104   0.053   5.124  0.4173 -0.2794  0.5257
 1368TIP3    H125519   3.055   0.135   5.116 -0.0267 -0.6358 -0.5844
 1368TIP3    H225520   3.036  -0.015   5.126  0.8790 -0.8554 -2.0866
 1369TIP3   OH225521   1.697   3.400  11.935  0.2572 -0.0278 -0.0467
 1369TIP3    H125522   1.777   3.411  11.883 -0.2845  1.0125 -0.6808
 1369TIP3    H225523   1.656   3.487  11.934  0.3894  0.0880  2.3970
 1370TIP3   OH225524   4.046   2.358  14.067 -0.1050 -0.3144  0.1780
 1370TIP3    H125525   3.974   2.420  14.059  0.5418  0.2629 -1.3294
 1370TIP3    H225526   4.053   2.341  14.161 -2.6373 -0.9158  0.2960
 1371TIP3   OH225527   4.126   3.451  13.159 -0.1606  0.0129  0.0598
 1371TIP3    H125528   4.170   3.454  13.075  1.3874 -0.4726  0.8407
 1371TIP3    H225529   4.049   3.506  13.148 -0.3750 -0.6525 -1.8941
 1372TIP3   OH225530   5.385   1.500  16.832 -0.2119 -0.9467  0.7246
 1372TIP3    H125531   5.460   1.454  16.870  1.4187  1.0445  0.0010
 1372TIP3    H225532   5.401   1.500  16.738 -1.7758 -1.6015  0.4411
 1373TIP3   OH225533   0.950   5.639   4.888 -0.1933 -0.4961  0.4220
 1373TIP3    H125534   1.021   5.589   4.927 -0.4713 -0.8557  0.4656
 1373TIP3    H225535   0.926   5.591   4.809  1.2291  0.9105 -0.9157
 1374TIP3   OH225536   2.090   2.809  16.701 -0.0840 -0.4753  0.0595
 1374TIP3    H125537   2.129   2.846  16.780 -1.1192  1.7293 -0.4089
 1374TIP3    H225538   1.996   2.823  16.712 -0.5676 -3.2862 -0.0315
 1375TIP3   OH225539   1.862   5.407  14.457 -0.7265 -0.2081  0.0076
 1375TIP3    H125540   1.932   5.470  14.473  0.3052 -1.1744 -0.6129
 1375TIP3    H225541   1.831   5.383  14.544 -1.1016  1.1095  0.2542
 1376TIP3   OH225542   6.766   2.057   3.638  0.5045 -0.1956  0.0099
 1376TIP3    H125543   6.688   2.017   3.601 -0.6117  1.1957  0.8528
 1376TIP3    H225544   6.765   2.033   3.730  0.9780 -0.0176  0.0673
 1377TIP3   OH225545   3.333   0.901   4.372 -0.2121 -0.1716 -0.0341
 1377TIP3    H125546   3.323   0.980   4.319  0.5037  0.0366  0.1270
 1377TIP3    H225547   3.428   0.887   4.375 -0.2428 -0.2061  1.1339
 1378TIP3   OH225548   5.157   1.169  11.256  0.2316  0.2136 -0.7374
 1378TIP3    H125549   5.159   1.095  11.316 -0.1720 -0.7512 -1.8854
 1378TIP3    H225550   5.192   1.242  11.307 -1.5435 -0.1992  1.1611
 1379TIP3   OH225551   2.897   5.295  16.447  0.1943  0.2531 -0.2646
 1379TIP3    H125552   2.852   5.222  16.404  0.8467  0.3353 -1.1043
 1379TIP3    H225553   2.968   5.254  16.497 -0.7708  0.1276  1.0304
 1380TIP3   OH225554   2.096   5.241  16.189  0.2550 -0.7703 -0.2921
 1380TIP3    H125555   2.025   5.293  16.152  0.2044 -0.7871 -0.2190
 1380TIP3    H225556   2.166   5.305  16.205 -0.3121 -0.4654  1.1064
 1381TIP3   OH225557   0.106   2.664  13.051  0.6607 -0.5891  0.2602
 1381TIP3    H125558   0.126   2.655  13.144  1.7283  0.4771  0.1555
 1381TIP3    H225559   0.013   2.685  13.048  0.5268 -1.0535  1.0598
 1382TIP3   OH225560   3.899   0.641   6.289 -0.1098 -0.2757  0.7596
 1382TIP3    H125561   3.812   0.681   6.296  0.3244  0.9088 -0.3707
 1382TIP3    H225562   3.932   0.669   6.203  0.5578 -2.4202  0.2739
 1383TIP3   OH225563   1.545   3.506  14.341  0.6016  0.0622  0.3952
 1383TIP3    H125564   1.496   3.427  14.364 -0.0139  0.3773  0.1940
 1383TIP3    H225565   1.626   3.500  14.391  0.9228 -1.0971 -0.2521
 1384TIP3   OH225566   2.322   4.611  15.306 -0.0547  0.6470  0.2323
 1384TIP3    H125567   2.392   4.666  15.270 -0.2357  0.0132 -1.1072
 1384TIP3    H225568   2.260   4.674  15.343  1.1028  1.2242  1.2269
 1385TIP3   OH225569   4.875   4.517  15.667  0.0550  0.5664  0.5880
 1385TIP3    H125570   4.817   4.553  15.599 -0.4697  0.0313  0.7460
 1385TIP3    H225571   4.910   4.437  15.629  0.3001  0.6270  0.6869
 1386TIP3   OH225572   4.431   1.852   5.432  0.1120  0.1549 -0.9715
 1386TIP3    H125573   4.518   1.833   5.467  0.1438 -0.1808 -1.2317
 1386TIP3    H225574   4.407   1.935   5.473  1.3927  1.2726 -2.4250
 1387TIP3   OH225575   1.581   0.212   3.327 -0.0188 -0.2122  0.8424
 1387TIP3    H125576   1.538   0.291   3.296  0.6534 -0.4799 -0.7974
 1387TIP3    H225577   1.521   0.141   3.303  1.0025 -0.5202 -0.8270
 1388TIP3   OH225578   4.591   0.033   1.207  0.3632  0.1914  0.3537
 1388TIP3    H125579   4.549  -0.035   1.260 -0.3370 -0.6681 -1.2713
 1388TIP3    H225580   4.519   0.072   1.158  1.1175  0.4030 -0.5953
 1389TIP3   OH225581   0.551   5.219  13.150  0.1767  0.0616  0.2959
 1389TIP3    H125582   0.466   5.244  13.115  0.7829 -1.1501 -2.1163
 1389TIP3    H225583   0.614   5.257  13.090  1.2595 -1.5409  0.3794
 1390TIP3   OH225584   0.098   0.973  15.285 -0.3774  0.1594 -0.0868
 1390TIP3    H125585   0.077   1.019  15.203 -0.9259 -0.1143 -0.1011
 1390TIP3    H225586   0.028   0.997  15.345  1.7911  3.0742  1.3940
 1391TIP3   OH225587   3.072   5.494  15.271 -0.0420  0.0555 -0.3113
 1391TIP3    H125588   3.044   5.456  15.188 -0.9712  1.8704 -0.8501
 1391TIP3    H225589   3.044   5.585  15.267  0.8781  0.4541  1.5441
 1392TIP3   OH225590   5.831   6.047   5.087 -0.0341 -0.4768 -0.9015
 1392TIP3    H125591   5.804   6.103   5.161 -0.1067  1.3330 -2.2791
 1392TIP3    H225592   5.857   5.965   5.129 -1.3059  0.0556  1.0519
 1393TIP3   OH225593   2.819   0.464   1.416  0.6340 -0.3067 -0.1389
 1393TIP3    H125594   2.858   0.501   1.496 -0.5028  0.5763  0.0253
 1393TIP3    H225595   2.725   0.477   1.427  0.3376 -1.8114 -0.8327
 1394TIP3   OH225596   5.115   6.650  16.261 -0.4862 -0.2726 -0.0859
 1394TIP3    H125597   5.078   6.581  16.316 -2.5803  1.7866  1.1418
 1394TIP3    H225598   5.181   6.692  16.316 -1.8305  1.1012  0.4795
 1395TIP3   OH225599   2.875   6.489  16.386 -0.2152  0.0835  0.4227
 1395TIP3    H125600   2.786   6.467  16.413 -0.3989 -0.9141 -0.9298
 1395TIP3    H225601   2.865   6.528  16.299  0.6559  0.0286  0.2927
 1396TIP3   OH225602   5.582   4.545  15.789 -0.6095 -0.4267 -0.5215
 1396TIP3    H125603   5.509   4.563  15.849 -0.3437  1.9227 -0.8520
 1396TIP3    H225604   5.634   4.479  15.834 -1.8373 -0.6150  0.6506
 1397TIP3   OH225605   3.259   3.463  14.217  0.2209  0.1544 -0.1836
 1397TIP3    H125606   3.324   3.440  14.151 -0.1655 -0.3654 -0.3817
 1397TIP3    H225607   3.189   3.507  14.168 -0.1864 -0.4651 -0.1601
 1398TIP3   OH225608   2.127   6.538   6.262 -0.3998  0.2042  0.0738
 1398TIP3    H125609   2.057   6.594   6.228 -0.2210  0.1507 -0.3885
 1398TIP3    H225610   2.114   6.455   6.217  2.0034  1.1947 -2.6367
 1399TIP3   OH225611   1.458   1.653   3.035 -0.0304 -0.0997 -0.0664
 1399TIP3    H125612   1.539   1.604   3.044  1.7465  2.9397  1.2564
 1399TIP3    H225613   1.462   1.692   2.948  0.0952  0.2911  0.1111
 1400TIP3   OH225614   5.839   6.747   5.580 -0.2554  0.0228  0.0634
 1400TIP3    H125615   5.779   6.794   5.522 -0.9492  0.4674  1.1202
 1400TIP3    H225616   5.925   6.756   5.538 -0.4392  1.9212  0.0213
 1401TIP3   OH225617   2.142   6.644   5.737 -0.9682 -0.3107  0.7725
 1401TIP3    H125618   2.123   6.566   5.788 -0.7308 -1.2640 -0.5661
 1401TIP3    H225619   2.229   6.628   5.701 -1.7328 -0.3254 -1.1351
 1402TIP3   OH225620   6.631   3.150   4.546 -0.4143 -0.3613  0.3442
 1402TIP3    H125621   6.621   3.161   4.640 -1.6631  0.0250  0.1811
 1402TIP3    H225622   6.654   3.238   4.514 -1.5187 -0.1448  0.1155
 1403TIP3   OH225623   4.279   1.309   1.191 -0.2490 -0.6482 -0.6109
 1403TIP3    H125624   4.214   1.292   1.259 -0.3777  0.6992 -0.3918
 1403TIP3    H225625   4.353   1.253   1.213 -1.1544 -1.8587 -0.6069
 1404TIP3   OH225626   3.088   0.602  14.070 -0.5981  0.4886 -0.1439
 1404TIP3    H125627   3.159   0.579  14.010  1.6133  2.1525  1.7668
 1404TIP3    H225628   3.042   0.674  14.026  0.7633  1.4368 -0.0164
 1405TIP3   OH225629   3.508   6.772  17.041 -0.7404  0.0347 -0.6470
 1405TIP3    H125630   3.455   6.710  16.991 -1.2135  0.5516 -0.7888
 1405TIP3    H225631   3.449   6.846  17.058 -0.3579  0.1883  0.0281
 1406TIP3   OH225632   0.588   5.637   2.656 -0.0614 -0.6835  0.2768
 1406TIP3    H125633   0.649   5.638   2.729 -1.4097 -1.4732  1.4396
 1406TIP3    H225634   0.505   5.666   2.693 -0.6370 -0.5879 -1.0528
 1407TIP3   OH225635   4.087   5.878  16.728 -0.2992 -0.2432  0.3287
 1407TIP3    H125636   4.049   5.834  16.652 -1.3048 -1.1290  1.3184
 1407TIP3    H225637   4.077   5.815  16.799  0.6218  0.5781  1.2005
 1408TIP3   OH225638   4.420   6.101   2.076  0.1448  0.0210  0.0503
 1408TIP3    H125639   4.470   6.071   2.152  0.1268 -0.9193 -0.3013
 1408TIP3    H225640   4.336   6.055   2.083 -0.2700  0.7678  0.0550
 1409TIP3   OH225641   5.242   1.399   3.281 -0.0444 -0.4595 -0.0179
 1409TIP3    H125642   5.274   1.443   3.360  0.4596  0.5374 -0.7570
 1409TIP3    H225643   5.183   1.331   3.314  0.1865 -0.0880  1.2159
 1410TIP3   OH225644   5.357   0.747  13.492 -0.4034 -0.8567  0.7496
 1410TIP3    H125645   5.442   0.708  13.473 -0.5152 -1.1731  0.9083
 1410TIP3    H225646   5.297   0.708  13.427 -0.1533  0.3906 -0.2562
 1411TIP3   OH225647   3.284   5.038  12.346  0.2964  0.0637  0.3616
 1411TIP3    H125648   3.223   4.975  12.384 -0.4957 -0.3933 -1.6580
 1411TIP3    H225649   3.312   5.091  12.421 -0.1394 -1.7311  1.8319
 1412TIP3   OH225650   6.107   1.183   3.238  0.8414  0.6050  0.7909
 1412TIP3    H125651   6.019   1.221   3.241  0.2916 -0.4133 -1.2430
 1412TIP3    H225652   6.146   1.218   3.158  2.2426  0.9333  1.6052
 1413TIP3   OH225653   0.518   0.822  14.548 -0.1573  0.6038 -0.6924
 1413TIP3    H125654   0.598   0.775  14.571 -0.4259  0.4488 -0.0507
 1413TIP3    H225655   0.467   0.759  14.497 -0.2216  0.4233 -0.4087
 1414TIP3   OH225656   6.673   4.142   4.862 -0.3525  0.6084  0.6190
 1414TIP3    H125657   6.626   4.133   4.944  0.1182 -2.8202  0.6123
 1414TIP3    H225658   6.628   4.082   4.802  0.7101  1.3484 -0.9605
 1415TIP3   OH225659   0.227   4.844  13.116 -0.5206 -0.2129 -0.3786
 1415TIP3    H125660   0.237   4.926  13.163  3.0328 -0.0770 -1.2462
 1415TIP3    H225661   0.181   4.868  13.035  0.2038  0.8676 -0.4712
 1416TIP3   OH225662   0.656   4.412   2.961  0.3809 -0.4356  0.2958
 1416TIP3    H125663   0.693   4.497   2.983  2.1799 -0.7451 -1.3242
 1416TIP3    H225664   0.657   4.410   2.865  2.1106 -2.9793  0.3118
 1417TIP3   OH225665   1.673   4.207  12.535 -0.0495  0.1739 -0.1951
 1417TIP3    H125666   1.631   4.154  12.603 -0.4380  0.0727 -0.5077
 1417TIP3    H225667   1.759   4.228  12.570 -0.6099  0.9550  0.7531
 1418TIP3   OH225668   6.319   0.157   3.617  0.0352  0.0214  0.4521
 1418TIP3    H125669   6.322   0.184   3.709 -0.8347  1.8888 -0.0433
 1418TIP3    H225670   6.392   0.203   3.576  1.3295 -1.9570  0.4770
 1419TIP3   OH225671   4.939   3.975   2.240  0.1627 -0.6611 -0.0039
 1419TIP3    H125672   5.013   3.972   2.300  0.6871 -0.2674 -0.6289
 1419TIP3    H225673   4.973   3.941   2.157  0.5697  2.5729 -1.2277
 1420TIP3   OH225674   0.767   3.621   1.083 -0.1050 -0.2198  0.6144
 1420TIP3    H125675   0.759   3.534   1.043  1.6347  0.6910 -1.8155
 1420TIP3    H225676   0.856   3.623   1.119  0.1339  0.8051 -0.0134
 1421TIP3   OH225677   0.594   4.801  13.535 -0.1182  0.9485 -0.1835
 1421TIP3    H125678   0.590   4.733  13.602  2.5539 -0.2956 -1.2252
 1421TIP3    H225679   0.504   4.835  13.530 -1.0416 -1.0581  1.8037
 1422TIP3   OH225680   0.147   1.566   4.748 -0.2139  0.6683  0.1429
 1422TIP3    H125681   0.200   1.530   4.677 -1.5872 -0.9013 -0.1190
 1422TIP3    H225682   0.158   1.660   4.742  1.8803  0.4032 -0.4262
 1423TIP3   OH225683   6.645   5.375   0.301  0.3810 -0.0089  0.2689
 1423TIP3    H125684   6.702   5.438   0.257 -1.0845 -0.2283 -2.0386
 1423TIP3    H225685   6.561   5.420   0.311  0.2112 -0.5389  1.3700
 1424TIP3   OH225686   0.524   4.911   5.402  0.3222 -0.2134 -0.3192
 1424TIP3    H125687   0.521   4.947   5.314 -2.0916 -0.1978 -0.2677
 1424TIP3    H225688   0.480   4.826   5.395 -2.6817  1.1393  1.4403
 1425TIP3   OH225689   6.090   0.100  14.042 -0.2270 -0.4054  0.5235
 1425TIP3    H125690   6.079   0.191  14.071 -0.0018 -0.0775 -0.4000
 1425TIP3    H225691   6.111   0.052  14.122  0.3553  0.4744  0.9104
 1426TIP3   OH225692   3.385   6.019  14.017 -0.7169 -0.4707  0.5076
 1426TIP3    H125693   3.418   6.072  13.944 -1.9678 -1.1416 -0.5787
 1426TIP3    H225694   3.371   6.082  14.088 -0.9059  0.4505 -0.3278
 1427TIP3   OH225695   0.932   5.013   3.444 -0.0671 -0.6395 -0.5751
 1427TIP3    H125696   0.891   5.053   3.367  0.9410  1.2755 -0.1634
 1427TIP3    H225697   0.884   5.050   3.518 -0.3311 -1.6403 -0.2460
 1428TIP3   OH225698   0.489   5.397   5.905  0.0436  0.1410  0.4672
 1428TIP3    H125699   0.470   5.432   5.818 -2.0802 -1.9345  0.0622
 1428TIP3    H225700   0.520   5.308   5.889  2.2091  0.6438  1.6937
 1429TIP3   OH225701   0.061   0.983  16.162  0.1075  0.0368 -0.3621
 1429TIP3    H125702   0.124   0.928  16.209  0.4437  0.7341  0.0179
 1429TIP3    H225703   0.091   0.983  16.071  0.6245  0.3074 -0.1955
 1430TIP3   OH225704   6.189   2.405   3.639  0.2527 -0.0789  0.6528
 1430TIP3    H125705   6.124   2.358   3.586  1.5572 -0.1577 -0.9209
 1430TIP3    H225706   6.152   2.492   3.653  0.6201  0.5182 -1.8698
 1431TIP3   OH225707   3.606   2.246  10.879  0.0042  0.5974 -0.3787
 1431TIP3    H125708   3.534   2.308  10.869 -0.7153 -0.6083 -2.8752
 1431TIP3    H225709   3.584   2.197  10.958 -1.6204  0.6342 -0.7864
 1432TIP3   OH225710   5.666   5.915   5.494 -0.0091  0.3166 -0.1886
 1432TIP3    H125711   5.752   5.878   5.476 -1.9118 -2.6462 -3.9917
 1432TIP3    H225712   5.641   5.877   5.579  1.4733 -0.6024 -0.1554
 1433TIP3   OH225713   2.640   1.158   1.377  0.4455  0.1163 -0.6952
 1433TIP3    H125714   2.706   1.166   1.446  0.4156 -1.9238 -0.3898
 1433TIP3    H225715   2.647   1.067   1.348 -1.1633  0.3082 -1.7330
 1434TIP3   OH225716   0.083   4.887   2.816 -0.6317  0.2916  0.0795
 1434TIP3    H125717   0.175   4.904   2.795 -0.6595  0.5053  0.1287
 1434TIP3    H225718   0.065   4.801   2.778  0.2992 -0.8940  2.2494
 1435TIP3   OH225719   1.626   0.196   4.933  0.8003  0.4830 -0.3085
 1435TIP3    H125720   1.544   0.245   4.939  0.4177  0.0029 -1.3492
 1435TIP3    H225721   1.629   0.166   4.842  1.1243 -1.2341  0.2387
 1436TIP3   OH225722   4.458   0.058  13.739 -0.0822 -0.0091  0.3641
 1436TIP3    H125723   4.395  -0.005  13.775  0.0587  1.1295  2.6648
 1436TIP3    H225724   4.543   0.024  13.766  0.2161 -0.6108 -1.2693
 1437TIP3   OH225725   1.376   6.388  12.028 -0.2431  0.5049 -0.0675
 1437TIP3    H125726   1.314   6.451  12.066 -0.4637  0.5745 -0.5369
 1437TIP3    H225727   1.361   6.307  12.076 -1.7612  0.0988 -1.2069
 1438TIP3   OH225728   6.546   6.070  16.507  0.6951 -0.9689 -0.1189
 1438TIP3    H125729   6.502   5.995  16.547  0.7225 -1.4002 -0.8979
 1438TIP3    H225730   6.502   6.082  16.423 -0.4608  0.9532  0.7102
 1439TIP3   OH225731   4.385   0.905  11.962  0.2346 -0.3500  0.1862
 1439TIP3    H125732   4.308   0.959  11.979 -0.6457 -2.0204  1.5606
 1439TIP3    H225733   4.455   0.949  12.011 -0.4096 -0.2746  1.0516
 1440TIP3   OH225734   4.941   0.770   0.978 -0.1837  0.0820 -0.6315
 1440TIP3    H125735   4.864   0.826   0.972  1.2555  2.1081 -0.8894
 1440TIP3    H225736   4.911   0.691   1.023 -2.2486  1.0908 -0.2096
 1441TIP3   OH225737   1.970   3.244   0.545  0.4161  0.9189 -0.0089
 1441TIP3    H125738   1.916   3.172   0.576  2.2154  0.6980  2.7090
 1441TIP3    H225739   1.948   3.317   0.603  0.9357  1.6596 -0.7269
 1442TIP3   OH225740   5.119   6.275  16.877 -0.3480  0.2712  0.1564
 1442TIP3    H125741   5.044   6.248  16.929 -0.6420 -1.5536 -1.1656
 1442TIP3    H225742   5.089   6.266  16.786  0.6661  1.8915 -0.3651
 1443TIP3   OH225743   0.193   5.866  12.791 -0.0707  0.1436 -0.3399
 1443TIP3    H125744   0.269   5.855  12.849 -0.7874  2.3493  1.0557
 1443TIP3    H225745   0.161   5.954  12.809 -4.6070 -1.6383  1.0251
 1444TIP3   OH225746   2.283   2.572  11.041 -0.0940  0.5314  0.4724
 1444TIP3    H125747   2.324   2.535  10.963  0.8680  0.3030  1.0731
 1444TIP3    H225748   2.356   2.607  11.092 -0.5230 -0.7217  2.0119
 1445TIP3   OH225749   2.436   0.671  16.549  0.5897  0.5011 -1.2647
 1445TIP3    H125750   2.409   0.763  16.546 -0.7390  0.2215  1.0266
 1445TIP3    H225751   2.524   0.673  16.587 -0.4989  0.6957  1.4028
 1446TIP3   OH225752   6.631   2.852   4.138 -0.3643  0.1332  0.4884
 1446TIP3    H125753   6.610   2.942   4.163 -0.2878  0.1561  0.4696
 1446TIP3    H225754   6.723   2.841   4.161 -0.4311 -0.0067  0.6801
 1447TIP3   OH225755   5.271   2.128  13.322  0.5710 -0.2338  0.1134
 1447TIP3    H125756   5.308   2.143  13.235  1.4219 -1.0089  0.3354
 1447TIP3    H225757   5.343   2.144  13.382 -0.4052  1.7196  0.7860
 1448TIP3   OH225758   3.345   1.955   1.861 -0.1534 -0.0539 -0.8475
 1448TIP3    H125759   3.321   1.864   1.843 -0.5987  0.4504 -2.8233
 1448TIP3    H225760   3.409   1.977   1.794  0.5135  0.8771  0.0687
 1449TIP3   OH225761   0.814   0.513  16.514  0.3643 -0.2764 -0.1511
 1449TIP3    H125762   0.874   0.579  16.481  0.2357 -0.3952 -0.6178
 1449TIP3    H225763   0.727   0.552  16.505  0.3949  0.0575  0.8978
 1450TIP3   OH225764   5.207   0.681  16.555  0.2273  0.1859  0.7933
 1450TIP3    H125765   5.208   0.777  16.553 -3.2067  0.2663 -0.6098
 1450TIP3    H225766   5.235   0.659  16.644  1.2009  2.4586  1.0951
 1451TIP3   OH225767   1.029   0.201   2.616 -0.8061  0.1931  0.4234
 1451TIP3    H125768   1.074   0.277   2.654 -2.0138  0.4942  1.3013
 1451TIP3    H225769   0.957   0.184   2.677 -1.3031 -0.8703 -0.4534
 1452TIP3   OH225770   1.501   3.705   5.349 -0.6747 -0.0048  0.3728
 1452TIP3    H125771   1.545   3.629   5.387 -0.8446 -0.2136  0.1499
 1452TIP3    H225772   1.451   3.743   5.422 -1.2415 -0.5815  0.2916
 1453TIP3   OH225773   5.938   5.596   3.386 -0.1253  0.1520 -0.2998
 1453TIP3    H125774   5.902   5.525   3.438  0.5470  0.8376  1.1382
 1453TIP3    H225775   6.012   5.557   3.339  0.8872  0.1425  1.2925
 1454TIP3   OH225776   0.120   3.701   4.393  0.6839  0.1950  0.4410
 1454TIP3    H125777   0.058   3.679   4.462 -1.0209  0.5261 -0.9548
 1454TIP3    H225778   0.202   3.660   4.421  0.7417  2.3759  3.8991
 1455TIP3   OH225779   6.093   6.728  14.297 -0.2398  0.3496 -0.3698
 1455TIP3    H125780   6.068   6.782  14.372  0.7135  0.2072  0.0579
 1455TIP3    H225781   6.159   6.668  14.331  0.2858  0.3567 -1.3539
 1456TIP3   OH225782   0.626   1.260  16.465  0.5235 -0.0590 -0.3135
 1456TIP3    H125783   0.642   1.295  16.552  0.0632 -0.0913 -0.2150
 1456TIP3    H225784   0.684   1.310  16.408  0.3094  0.4529 -0.0872
 1457TIP3   OH225785   4.324   4.092  11.711 -0.4902  0.3571 -0.7430
 1457TIP3    H125786   4.300   4.020  11.769 -0.4712  1.3449  0.5405
 1457TIP3    H225787   4.333   4.053  11.625 -0.4758 -1.1706 -0.0606
 1458TIP3   OH225788   6.106   0.140  17.148  0.4059 -0.4404 -0.4001
 1458TIP3    H125789   6.199   0.159  17.164  1.1493 -3.9881 -0.1675
 1458TIP3    H225790   6.062   0.161  17.230  1.2464 -0.2190 -0.0025
 1459TIP3   OH225791   6.593   2.979  13.555 -0.2011  0.2381 -0.2154
 1459TIP3    H125792   6.518   2.940  13.600  1.0279 -0.4326  1.3093
 1459TIP3    H225793   6.668   2.962  13.613  2.0486 -3.4272 -3.8706
 1460TIP3   OH225794   6.623   2.291   1.024  0.0388  0.0351  0.1050
 1460TIP3    H125795   6.641   2.294   1.118 -0.3950  0.0525  0.1882
 1460TIP3    H225796   6.597   2.201   1.007  1.2602 -0.2738 -0.2166
 1461TIP3   OH225797   4.415   2.165  16.678 -0.1687  0.0331 -0.4752
 1461TIP3    H125798   4.347   2.101  16.701 -0.7257  1.4994  2.2651
 1461TIP3    H225799   4.366   2.245  16.657  0.6765  1.1920  1.8323
 1462TIP3   OH225800   3.028   1.587   1.005  0.2519  0.0825  0.4201
 1462TIP3    H125801   3.059   1.621   0.921 -0.0691  1.2642  0.7594
 1462TIP3    H225802   2.999   1.498   0.986  0.0864  0.3712 -0.7401
 1463TIP3   OH225803   4.444   4.509  13.349  0.6223  0.0429 -0.5625
 1463TIP3    H125804   4.360   4.538  13.312 -0.7658 -1.2177  1.4998
 1463TIP3    H225805   4.468   4.579  13.410 -0.5216 -1.0058  1.1416
 1464TIP3   OH225806   1.850   2.861  14.019 -0.3228  0.6849  0.3158
 1464TIP3    H125807   1.860   2.902  14.105 -0.4693 -0.8623  1.0782
 1464TIP3    H225808   1.763   2.821  14.021  1.2646 -2.8988  0.9942
 1465TIP3   OH225809   3.150   2.552   0.950  0.2152  0.0514  0.5102
 1465TIP3    H125810   3.070   2.603   0.942 -0.0829 -0.3313  1.0164
 1465TIP3    H225811   3.191   2.557   0.863 -0.7666 -0.4386  0.0211
 1466TIP3   OH225812   2.002   2.445  17.050  0.0019 -0.5238 -0.8232
 1466TIP3    H125813   1.960   2.522  17.088 -0.1472 -1.2515  0.5355
 1466TIP3    H225814   2.047   2.478  16.972  1.0711  1.1858  0.4816
 1467TIP3   OH225815   2.162   1.205  13.562 -0.7055 -0.0789  0.2427
 1467TIP3    H125816   2.257   1.221  13.571 -0.8163  1.0636 -0.4463
 1467TIP3    H225817   2.126   1.291  13.540 -1.3102 -1.3895 -4.2402
 1468TIP3   OH225818   1.375   2.252  16.319 -0.1983  0.0467  0.3933
 1468TIP3    H125819   1.306   2.314  16.343  0.0427  0.6114 -0.3701
 1468TIP3    H225820   1.363   2.237  16.225 -0.1250 -0.9046  0.5249
 1469TIP3   OH225821   4.603   5.510   0.840 -0.3104 -0.4556 -0.1044
 1469TIP3    H125822   4.575   5.469   0.922 -0.6462  0.7409  0.3935
 1469TIP3    H225823   4.693   5.481   0.828  0.0014 -0.0419  1.0967
 1470TIP3   OH225824   2.603   3.570   2.226  0.4465 -0.2333 -0.0878
 1470TIP3    H125825   2.683   3.548   2.274  0.4692 -0.5353 -0.2633
 1470TIP3    H225826   2.634   3.616   2.148  0.4042  0.3307  0.2296
 1471TIP3   OH225827   0.569   3.413  17.069 -0.2341  0.6119  0.1759
 1471TIP3    H125828   0.661   3.421  17.045 -0.9078  0.0537 -2.8255
 1471TIP3    H225829   0.557   3.319  17.085  0.3093  1.0289  3.3633
 1472TIP3   OH225830   4.632   4.498  16.149 -0.3652  0.4668 -0.1091
 1472TIP3    H125831   4.685   4.467  16.076 -4.3087  0.3256 -3.1250
 1472TIP3    H225832   4.623   4.592  16.134 -1.9086  0.2959 -0.3631
 1473TIP3   OH225833   2.649   5.492   4.270  0.6709 -0.5050 -0.1663
 1473TIP3    H125834   2.596   5.526   4.342  0.5971  0.1210 -0.5129
 1473TIP3    H225835   2.699   5.420   4.309  1.0998  0.2322  0.6523
 1474TIP3   OH225836   3.734   6.633   3.668 -0.2755 -0.5667  0.1849
 1474TIP3    H125837   3.717   6.724   3.645 -1.6203 -0.5564  1.1822
 1474TIP3    H225838   3.743   6.588   3.584 -0.4105  0.3322 -0.3122
 1475TIP3   OH225839   6.393   3.259  14.918 -0.2229 -0.0941 -0.4477
 1475TIP3    H125840   6.410   3.329  14.856 -0.4208 -0.1615 -0.5793
 1475TIP3    H225841   6.333   3.297  14.982  2.0452  0.8096  1.2232
 1476TIP3   OH225842   0.348   3.344   0.243  0.2750  0.6266  0.3631
 1476TIP3    H125843   0.395   3.411   0.193 -0.2005 -0.7232 -1.9732
 1476TIP3    H225844   0.417   3.292   0.284  0.7973 -0.0095 -1.2737
 1477TIP3   OH225845   0.913   1.700  12.790 -0.2658 -0.7067 -0.0081
 1477TIP3    H125846   0.888   1.699  12.697 -0.5519 -1.4549  0.0732
 1477TIP3    H225847   0.833   1.678  12.837 -0.1058 -0.3840  0.4190
 1478TIP3   OH225848   5.655   1.160  12.384  0.1206 -0.1434  0.2614
 1478TIP3    H125849   5.751   1.168  12.384 -0.0568  2.4197  0.4260
 1478TIP3    H225850   5.625   1.231  12.328 -1.7594 -0.0411  1.3602
 1479TIP3   OH225851   2.939   3.986  16.933  0.5144  0.4812 -0.3865
 1479TIP3    H125852   2.905   3.943  16.854  0.5861  1.5865 -1.0337
 1479TIP3    H225853   2.883   3.954  17.003 -0.6862  0.8317 -1.1608
 1480TIP3   OH225854   2.887   5.558   6.841  0.0471  0.1391 -0.3002
 1480TIP3    H125855   2.977   5.526   6.837  0.1553  0.3452  0.4075
 1480TIP3    H225856   2.889   5.628   6.905 -0.4568  0.7014 -0.8951
 1481TIP3   OH225857   1.393   1.610  16.727 -0.2574 -0.3944 -0.0257
 1481TIP3    H125858   1.359   1.664  16.656  1.0118 -1.5598 -1.5679
 1481TIP3    H225859   1.363   1.521  16.706 -0.9692 -0.5773  1.6184
 1482TIP3   OH225860   4.266   6.336  12.950 -0.1673  0.0161 -0.2495
 1482TIP3    H125861   4.173   6.342  12.927 -0.0565  0.8371 -0.5005
 1482TIP3    H225862   4.266   6.331  13.046 -0.4255  1.1742 -0.1815
 1483TIP3   OH225863   1.513   0.785  15.880 -0.3357  0.0282 -0.3491
 1483TIP3    H125864   1.431   0.757  15.839 -0.5042  0.0085  0.0027
 1483TIP3    H225865   1.562   0.704  15.895 -0.5395 -0.0174  0.0595
 1484TIP3   OH225866   1.379   5.658   6.134 -0.3623  0.0740  0.3211
 1484TIP3    H125867   1.398   5.733   6.191 -0.1085  1.0153 -0.9840
 1484TIP3    H225868   1.295   5.625   6.166  0.1769  0.0533  1.7885
 1485TIP3   OH225869   3.150   6.760  12.995  0.2672  0.5519  0.2526
 1485TIP3    H125870   3.242   6.738  12.980  0.5570  0.4145  2.0642
 1485TIP3    H225871   3.108   6.748  12.910  1.8152  0.0696 -0.4651
 1486TIP3   OH225872   3.870   6.001  16.306  0.4127 -0.2186  0.4442
 1486TIP3    H125873   3.810   5.928  16.292  0.2533 -0.0729  0.3707
 1486TIP3    H225874   3.941   5.986  16.242  0.7105 -0.6643  0.8730
 1487TIP3   OH225875   2.399   0.344  11.718 -0.0210  0.4309  0.0099
 1487TIP3    H125876   2.394   0.251  11.739 -0.5403  0.6659  0.9700
 1487TIP3    H225877   2.388   0.348  11.623  2.3253 -0.6542 -0.3318
 1488TIP3   OH225878   3.138   0.454  16.754 -0.3347 -0.8261  0.2358
 1488TIP3    H125879   3.191   0.417  16.684 -0.0997  0.7429 -0.4341
 1488TIP3    H225880   3.201   0.478  16.823 -0.2927 -0.1496 -0.0309
 1489TIP3   OH225881   0.830   3.285  13.599 -0.4256  0.1161 -0.6031
 1489TIP3    H125882   0.833   3.299  13.504 -0.2158  0.0840 -0.6021
 1489TIP3    H225883   0.832   3.190  13.609  0.3081  0.1355 -0.5428
 1490TIP3   OH225884   1.832   2.318  13.755  0.1231  0.4591 -0.7737
 1490TIP3    H125885   1.840   2.335  13.661  0.9155  0.6622 -0.6670
 1490TIP3    H225886   1.866   2.229  13.767 -3.5755 -1.1153 -1.2508
 1491TIP3   OH225887   1.805   3.720   4.392  0.5399  0.1288  0.1553
 1491TIP3    H125888   1.751   3.679   4.324  0.9970  0.8798 -0.6776
 1491TIP3    H225889   1.821   3.651   4.455  1.7338 -1.1323 -1.4926
 1492TIP3   OH225890   5.753   5.676  16.915 -0.1261 -0.2590 -0.0555
 1492TIP3    H125891   5.774   5.714  17.000  0.6627 -1.7607  0.4270
 1492TIP3    H225892   5.672   5.627  16.929 -1.3594  1.4883 -0.7676
 1493TIP3   OH225893   3.616   0.122  11.851  0.2226 -0.5710  0.2432
 1493TIP3    H125894   3.662   0.072  11.918 -0.3811 -1.0622  0.3011
 1493TIP3    H225895   3.550   0.061  11.818  0.2398 -0.1873 -0.4954
 1494TIP3   OH225896   6.001   3.266   1.482 -0.4134 -0.1030  0.6223
 1494TIP3    H125897   5.985   3.291   1.573 -2.0170 -0.4701  0.4584
 1494TIP3    H225898   5.926   3.302   1.433  1.0716  1.2153 -0.7742
 1495TIP3   OH225899   0.749   0.012   3.074 -0.1785  0.0146  0.3445
 1495TIP3    H125900   0.655   0.010   3.091 -0.2171  1.1412  0.3273
 1495TIP3    H225901   0.788   0.032   3.159  0.0616 -0.6512  0.3925
 1496TIP3   OH225902   6.208   5.367   1.843 -0.5792 -0.5645 -0.4466
 1496TIP3    H125903   6.124   5.344   1.803 -1.9755 -0.7143  2.4343
 1496TIP3    H225904   6.247   5.282   1.867 -0.9812 -0.4094  0.8261
 1497TIP3   OH225905   4.649   3.847   6.235 -0.2084  0.0926  0.2473
 1497TIP3    H125906   4.624   3.939   6.221  1.7558  0.4033 -1.5550
 1497TIP3    H225907   4.611   3.824   6.320  0.7183  3.1348  1.5644
 1498TIP3   OH225908   6.677   1.075  15.450  0.0417 -0.3582  0.3747
 1498TIP3    H125909   6.672   1.170  15.441 -1.3934 -0.3925  0.6946
 1498TIP3    H225910   6.703   1.061  15.542 -0.0560 -0.2819  0.4131
 1499TIP3   OH225911   0.598   4.959   2.597 -0.7988 -0.4441 -0.0956
 1499TIP3    H125912   0.646   4.877   2.597  0.0022  0.0209  1.2955
 1499TIP3    H225913   0.658   5.023   2.634 -2.1860  0.3179  0.8778
 1500TIP3   OH225914   6.760   3.390  15.731  0.6103  0.5723  0.4483
 1500TIP3    H125915   6.777   3.310  15.680 -0.2544  1.0844 -0.6737
 1500TIP3    H225916   6.699   3.362  15.799  0.6850  0.1795  0.3590
 1501TIP3   OH225917   0.805   1.303  13.497 -0.0307 -0.5912  0.0584
 1501TIP3    H125918   0.870   1.351  13.549 -0.3656  1.5479 -1.4225
 1501TIP3    H225919   0.763   1.244  13.559  0.3969  1.0497  1.9608
 1502TIP3   OH225920   4.705   6.519  15.539  0.4803  0.2562 -0.2339
 1502TIP3    H125921   4.753   6.449  15.583 -0.4651 -0.3302 -0.1158
 1502TIP3    H225922   4.708   6.592  15.601 -0.1509 -0.2998  0.4645
 1503TIP3   OH225923   0.275   6.199  11.526 -0.1048 -0.4042 -0.1880
 1503TIP3    H125924   0.261   6.133  11.594  2.4526 -1.2762 -0.4464
 1503TIP3    H225925   0.324   6.153  11.458  0.7337  1.4687 -0.8751
 1504TIP3   OH225926   4.741   3.240  12.146  0.5058 -0.1322 -0.5222
 1504TIP3    H125927   4.670   3.191  12.188  0.8824  0.0298  0.3172
 1504TIP3    H225928   4.818   3.222  12.200  0.5171  1.9191  0.2236
 1505TIP3   OH225929   2.898   5.600   0.314  0.3260  0.0149  0.3143
 1505TIP3    H125930   2.876   5.558   0.231  0.0537 -0.8022  0.7939
 1505TIP3    H225931   2.994   5.601   0.316  0.3908  3.4951 -1.7327
 1506TIP3   OH225932   0.688   2.838   2.390  0.2233  0.2169 -0.2280
 1506TIP3    H125933   0.696   2.743   2.403 -2.2695 -0.0885 -0.7560
 1506TIP3    H225934   0.744   2.857   2.315  0.7721 -0.8320 -0.0934
 1507TIP3   OH225935   6.384   1.575   1.323 -0.4438  0.3373  0.0780
 1507TIP3    H125936   6.433   1.493   1.311 -0.7366  0.3918 -1.7193
 1507TIP3    H225937   6.408   1.605   1.410 -0.9788 -2.1068  1.1066
 1508TIP3   OH225938   1.127   4.751   1.885 -0.2776 -0.0266 -0.3173
 1508TIP3    H125939   1.050   4.793   1.924 -0.4357 -0.0317 -0.6219
 1508TIP3    H225940   1.109   4.751   1.791  0.4439  0.6755 -0.4617
 1509TIP3   OH225941   0.173   1.025  14.560  0.1245  0.4173  0.3766
 1509TIP3    H125942   0.154   0.936  14.530 -0.1622  0.9261 -1.0040
 1509TIP3    H225943   0.128   1.032  14.644 -2.5345  0.2695 -0.9687
 1510TIP3   OH225944   0.400   5.803   4.686 -0.3020  0.5444 -0.1273
 1510TIP3    H125945   0.386   5.723   4.736 -0.7816  0.5119 -0.3076
 1510TIP3    H225946   0.433   5.772   4.601 -0.4749  0.5369 -0.1928
 1511TIP3   OH225947   3.267   4.272   3.102  0.3800 -0.2124 -0.2064
 1511TIP3    H125948   3.361   4.251   3.102  0.7613  1.4299 -0.6793
 1511TIP3    H225949   3.259   4.347   3.042 -1.0459  0.4186  0.7436
 1512TIP3   OH225950   2.351   4.937  11.914  0.0913 -0.0089 -0.4669
 1512TIP3    H125951   2.362   4.926  12.008 -0.8262 -1.6685 -0.5362
 1512TIP3    H225952   2.296   5.015  11.906 -2.2064 -1.4770  0.5071
 1513TIP3   OH225953   3.128   3.468   0.030  0.0624 -0.5218 -0.0672
 1513TIP3    H125954   3.217   3.468   0.064 -0.1488  0.6114  0.5077
 1513TIP3    H225955   3.138   3.479  -0.065  0.4870  1.1644  0.1628
 1514TIP3   OH225956   6.317   3.074  15.733 -0.0063  0.2490  0.3758
 1514TIP3    H125957   6.313   3.154  15.681 -2.2214  1.2052  1.9592
 1514TIP3    H225958   6.293   3.004  15.672 -0.4806  1.0920 -0.4098
 1515TIP3   OH225959   2.129   5.005   4.208 -0.5904 -0.1691 -0.3560
 1515TIP3    H125960   2.094   5.090   4.182  1.5568  0.5566 -1.0005
 1515TIP3    H225961   2.070   4.941   4.168 -2.5725  1.0010  0.6299
 1516TIP3   OH225962   1.150   3.632  16.231  0.7690  0.0959 -0.0432
 1516TIP3    H125963   1.158   3.625  16.136 -1.6460  0.2982 -0.2973
 1516TIP3    H225964   1.136   3.725  16.248 -0.6310 -0.1784  0.3370
 1517TIP3   OH225965   4.989   4.221  16.751 -0.2560 -0.0925 -0.1046
 1517TIP3    H125966   4.955   4.203  16.663 -0.6161 -1.0249  0.2132
 1517TIP3    H225967   5.068   4.167  16.758 -0.2481 -0.0497  0.1486
 1518TIP3   OH225968   2.089   2.429   0.095  0.4435  1.1532 -0.7475
 1518TIP3    H125969   2.035   2.507   0.111 -2.3679 -0.7969 -0.4102
 1518TIP3    H225970   2.055   2.393   0.013  0.5126 -0.6891  0.0091
 1519TIP3   OH225971   4.858   5.010   4.765  0.1542  0.3077  0.1247
 1519TIP3    H125972   4.846   5.069   4.690  0.7625  0.2207 -0.0430
 1519TIP3    H225973   4.790   4.944   4.755  1.2176 -0.5991 -1.2173
 1520TIP3   OH225974   3.806   4.236  14.276  0.2618 -0.2535  0.2636
 1520TIP3    H125975   3.756   4.237  14.194 -0.6388 -1.2101  0.7745
 1520TIP3    H225976   3.740   4.249  14.344  1.0105  0.5928  0.8458
 1521TIP3   OH225977   5.858   4.035  10.934 -0.1938  0.3692  0.7692
 1521TIP3    H125978   5.898   4.043  11.021  0.5515  2.0498  0.2921
 1521TIP3    H225979   5.810   4.117  10.922 -2.2952 -0.8365  0.5575
 1522TIP3   OH225980   6.208   3.219  12.086 -0.1732 -0.3151  0.4639
 1522TIP3    H125981   6.298   3.188  12.091  0.9489  2.7891  0.4799
 1522TIP3    H225982   6.199   3.279  12.161 -1.4562  1.3298 -0.9680
 1523TIP3   OH225983   2.581   3.551  14.880  0.1036 -0.4889 -0.0293
 1523TIP3    H125984   2.490   3.523  14.876 -0.1986  0.0864  2.0166
 1523TIP3    H225985   2.623   3.488  14.939  0.7081  0.0686  0.1399
 1524TIP3   OH225986   1.576   5.221  13.754 -0.2618 -0.4119  0.4256
 1524TIP3    H125987   1.580   5.141  13.701 -0.6596 -1.3912  1.8573
 1524TIP3    H225988   1.503   5.271  13.716 -0.2083 -0.8497 -0.2740
 1525TIP3   OH225989   4.717   6.334  16.153  0.0402 -0.2517 -0.6066
 1525TIP3    H125990   4.690   6.316  16.063 -0.7056 -0.6217 -0.3105
 1525TIP3    H225991   4.703   6.428  16.164 -0.2032 -0.2691 -0.7678
 1526TIP3   OH225992   1.192   4.410  15.813  0.2974 -0.2899 -0.8679
 1526TIP3    H125993   1.116   4.355  15.834  0.1816 -0.2312 -1.1351
 1526TIP3    H225994   1.158   4.499  15.815  0.5515 -0.2046 -0.1457
 1527TIP3   OH225995   0.908   5.315  15.821 -0.4431  0.2580  0.3488
 1527TIP3    H125996   0.856   5.396  15.824  0.0128  0.5543  0.2502
 1527TIP3    H225997   0.842   5.245  15.822 -0.8375  0.6275  0.5029
 1528TIP3   OH225998   4.400   2.534   3.223 -0.9202  0.3132  0.2267
 1528TIP3    H125999   4.489   2.518   3.253 -1.1013  0.1074  0.6636
 1528TIP3    H226000   4.351   2.555   3.303 -1.3214  0.1633  0.0220
 1529TIP3   OH226001   6.177   2.737  15.223 -0.1137 -0.3221 -0.3758
 1529TIP3    H126002   6.175   2.662  15.283 -1.3969 -1.2187 -1.5140
 1529TIP3    H226003   6.089   2.775  15.229  0.2209  0.4999 -0.5703
 1530TIP3   OH226004   5.717   4.800   3.677 -0.2089 -0.4348  0.0908
 1530TIP3    H126005   5.806   4.766   3.669  0.1577  0.7019 -0.8618
 1530TIP3    H226006   5.689   4.815   3.586 -0.5611  1.2191  0.4498
 1531TIP3   OH226007   6.299   5.131   1.041  0.1518 -0.0288  0.2469
 1531TIP3    H126008   6.236   5.154   0.973  2.1074  1.9744 -0.9701
 1531TIP3    H226009   6.334   5.046   1.014  1.0942  0.8597 -1.4555
 1532TIP3   OH226010   1.100   0.676  16.480  0.2743  0.2079 -0.2494
 1532TIP3    H126011   1.154   0.605  16.517  2.3146  2.0556  0.4401
 1532TIP3    H226012   1.133   0.687  16.391  1.1096  1.3725  0.1883
 1533TIP3   OH226013   5.842   1.155   4.668 -0.0680  0.8521 -0.1274
 1533TIP3    H126014   5.788   1.121   4.739  1.6773 -1.8328 -0.0322
 1533TIP3    H226015   5.839   1.088   4.601  0.4283  2.1975 -1.5181
 1534TIP3   OH226016   4.910   2.966  12.758  0.1092 -0.0820 -0.4565
 1534TIP3    H126017   4.977   3.030  12.783  0.5892 -0.4299 -0.8531
 1534TIP3    H226018   4.840   2.978  12.823  1.0061 -0.4324  0.5871
 1535TIP3   OH226019   2.534   5.671   1.906  0.2294  0.1008  0.1738
 1535TIP3    H126020   2.561   5.758   1.935 -2.8807  1.2367 -0.1374
 1535TIP3    H226021   2.488   5.635   1.982  1.0376 -1.0881  0.1128
 1536TIP3   OH226022   4.879   3.587  12.727  0.0204 -0.2634 -0.1862
 1536TIP3    H126023   4.824   3.569  12.651 -0.4062  0.1339  0.0202
 1536TIP3    H226024   4.832   3.547  12.800  0.8778 -1.4182 -0.2629
 1537TIP3   OH226025   0.357   1.519  10.442 -0.0388 -0.2366 -0.5035
 1537TIP3    H126026   0.329   1.610  10.453  1.7771  0.3364 -0.3754
 1537TIP3    H226027   0.363   1.485  10.531 -1.6058 -0.7772 -0.5943
 1538TIP3   OH226028   2.191   0.251   3.453  0.3981 -0.3006 -0.5280
 1538TIP3    H126029   2.284   0.256   3.432  0.1643  1.3803 -1.1795
 1538TIP3    H226030   2.153   0.205   3.378  0.0825  2.7364 -2.3087
 1539TIP3   OH226031   4.854   2.702  13.044 -0.0505 -0.3187  0.5086
 1539TIP3    H126032   4.788   2.660  12.987  0.0535  0.2885 -0.0613
 1539TIP3    H226033   4.864   2.641  13.116 -0.9037 -0.6467  0.3647
 1540TIP3   OH226034   1.192   5.869   4.879 -0.2930 -0.2700 -0.4282
 1540TIP3    H126035   1.132   5.817   4.826  0.4551 -0.8117 -0.7489
 1540TIP3    H226036   1.135   5.925   4.932 -1.0513  1.0147 -2.5381
 1541TIP3   OH226037   0.807   0.148   3.316 -0.3508 -0.2786 -0.7002
 1541TIP3    H126038   0.835   0.132   3.406 -0.0808  0.2552 -0.6855
 1541TIP3    H226039   0.889   0.163   3.268 -0.5645  0.4840 -0.8257
 1542TIP3   OH226040   6.552   1.869  12.107  0.4340 -0.0175  0.0255
 1542TIP3    H126041   6.574   1.890  12.198  0.6629  0.0965 -0.0571
 1542TIP3    H226042   6.507   1.785  12.112 -2.0231  1.2654  0.5566
 1543TIP3   OH226043   3.854   0.242   0.673 -0.0154 -0.1359  0.1796
 1543TIP3    H126044   3.800   0.164   0.663  0.0183 -0.5402  2.8159
 1543TIP3    H226045   3.794   0.311   0.702  0.6047 -0.2147  1.7074
 1544TIP3   OH226046   4.322   5.270  16.756 -0.5668  0.3454  0.5115
 1544TIP3    H126047   4.298   5.291  16.666 -0.2822  0.1242  0.3829
 1544TIP3    H226048   4.394   5.330  16.776 -0.5354  0.2973  0.5436
 1545TIP3   OH226049   5.955   3.752   2.875  0.3384  0.5814  0.1759
 1545TIP3    H126050   5.927   3.843   2.885  3.0317  1.5240 -0.2452
 1545TIP3    H226051   5.956   3.737   2.780 -1.4416 -0.3575  0.2911
 1546TIP3   OH226052   1.707   2.524  15.140 -0.7508  0.0068 -0.2216
 1546TIP3    H126053   1.777   2.572  15.097 -1.6080  0.1018 -1.5344
 1546TIP3    H226054   1.641   2.510  15.072 -2.0639  0.0156  1.0068
 1547TIP3   OH226055   6.663   2.357  12.676 -0.0259  0.3987  0.5067
 1547TIP3    H126056   6.750   2.332  12.706 -0.2346 -1.8415 -0.6318
 1547TIP3    H226057   6.614   2.275  12.675 -0.9989  0.9414 -2.5793
 1548TIP3   OH226058   4.186   2.970  16.624  0.8130  0.0078  0.0661
 1548TIP3    H126059   4.123   2.919  16.675  2.1593 -0.5030  1.2423
 1548TIP3    H226060   4.145   2.980  16.538  0.3401 -2.7042 -0.0469
 1549TIP3   OH226061   1.970   0.335   4.377  0.1468  0.6424  0.0510
 1549TIP3    H126062   1.895   0.351   4.434 -0.8264  3.8449 -1.9389
 1549TIP3    H226063   2.033   0.403   4.401  1.0250  0.0485 -0.5351
 1550TIP3   OH226064   2.001   3.612  16.710 -0.6752 -0.1868 -0.0088
 1550TIP3    H126065   1.977   3.613  16.617 -0.7276  0.0397  0.0084
 1550TIP3    H226066   2.010   3.519  16.732  0.1483 -0.2161 -0.4498
 1551TIP3   OH226067   1.668   6.031   5.115 -0.2311  0.0034  0.0014
 1551TIP3    H126068   1.646   5.956   5.170 -3.6632  0.2187 -0.9234
 1551TIP3    H226069   1.681   5.994   5.027  1.9510  0.0599  0.2736
 1552TIP3   OH226070   4.599   4.191  10.487 -0.3135  0.5301  0.9619
 1552TIP3    H126071   4.676   4.166  10.539  1.6543  0.4949 -1.8150
 1552TIP3    H226072   4.618   4.280  10.459 -0.8972  0.2303 -0.4241
 1553TIP3   OH226073   5.742   1.087  14.257 -0.0214 -0.6957 -0.3561
 1553TIP3    H126074   5.815   1.150  14.264 -0.5036 -0.1958  0.2491
 1553TIP3    H226075   5.780   1.012  14.211  1.1507 -0.8316  0.8020
 1554TIP3   OH226076   2.418   5.727   1.666  0.1504  0.2487 -0.2051
 1554TIP3    H126077   2.352   5.752   1.730 -0.0152 -0.8685  0.0671
 1554TIP3    H226078   2.480   5.673   1.715  0.2021 -0.3411 -0.9153
 1555TIP3   OH226079   6.227   4.320   3.517 -0.5170  0.0977 -0.2167
 1555TIP3    H126080   6.315   4.311   3.481  0.2613  0.7151  1.4786
 1555TIP3    H226081   6.222   4.254   3.586 -1.3431  0.1204 -0.2486
 1556TIP3   OH226082   0.553   0.437   4.945  0.2157  0.0424 -0.0793
 1556TIP3    H126083   0.512   0.506   4.996 -1.0291  0.3339 -1.4425
 1556TIP3    H226084   0.523   0.356   4.985 -0.9538  0.2690 -0.4724
 1557TIP3   OH226085   0.074   5.727   3.787  0.9385  0.4542  0.1142
 1557TIP3    H126086   0.069   5.658   3.853  0.4768 -0.1536 -0.5429
 1557TIP3    H226087   0.051   5.807   3.834 -2.3913 -0.3819  0.0678
 1558TIP3   OH226088   4.342   5.226  13.500  0.3045  0.1849  0.1387
 1558TIP3    H126089   4.411   5.268  13.551 -0.5174  0.9902  0.6138
 1558TIP3    H226090   4.263   5.235  13.555 -0.1852 -0.6657 -0.4162
 1559TIP3   OH226091   2.206   2.981  13.927  0.5204  0.0846 -0.0862
 1559TIP3    H126092   2.288   2.939  13.900 -0.8043 -3.1045  0.6351
 1559TIP3    H226093   2.217   2.998  14.021  0.7088  0.6069 -0.1975
 1560TIP3   OH226094   0.893   6.560  12.715  0.8515  0.4832 -0.0787
 1560TIP3    H126095   0.983   6.541  12.690  0.4887 -0.2575 -0.8292
 1560TIP3    H226096   0.848   6.475  12.713  0.6890  0.4801  2.5918
 1561TIP3   OH226097   5.726   0.699  11.058 -0.2670 -0.5968  0.1273
 1561TIP3    H126098   5.770   0.760  11.118  0.0871  0.1736 -0.9016
 1561TIP3    H226099   5.641   0.739  11.041  0.0406 -0.2751 -0.6995
 1562TIP3   OH226100   0.308   0.376   1.400  0.2333  0.8261 -0.2590
 1562TIP3    H126101   0.347   0.381   1.312  0.1231 -0.7115 -0.4157
 1562TIP3    H226102   0.381   0.392   1.459  0.8416 -0.6542 -0.5860
 1563TIP3   OH226103   0.370   0.268  11.855 -0.1086  0.0775  0.1737
 1563TIP3    H126104   0.395   0.287  11.765 -0.7550  1.2336  0.2358
 1563TIP3    H226105   0.440   0.211  11.887  0.4314  0.1423 -0.8670
 1564TIP3   OH226106   5.822   2.385   1.027  0.0136 -0.1054 -0.3527
 1564TIP3    H126107   5.896   2.393   1.088 -0.6247 -0.8961  0.5362
 1564TIP3    H226108   5.794   2.475   1.012  1.3604  0.2311 -0.9613
 1565TIP3   OH226109   6.387   3.060  14.072  0.6258 -0.1260 -1.0187
 1565TIP3    H126110   6.301   3.036  14.037  0.1836  2.3247 -1.7374
 1565TIP3    H226111   6.375   3.064  14.167 -0.1757  0.5436 -1.1403
 1566TIP3   OH226112   1.098   6.536   5.253  0.2135 -0.4362 -0.6573
 1566TIP3    H126113   1.126   6.444   5.247 -0.9751 -0.8192 -0.4901
 1566TIP3    H226114   1.019   6.540   5.199 -1.6206 -0.2811  1.9533
 1567TIP3   OH226115   1.387   3.699  12.111 -0.1723  0.4621  0.0867
 1567TIP3    H126116   1.300   3.716  12.076  1.1272  0.1381 -3.5053
 1567TIP3    H226117   1.392   3.603  12.118 -0.2851  0.5069  0.7923
 1568TIP3   OH226118   6.729   5.569  11.377 -0.4778  0.5099  0.0052
 1568TIP3    H126119   6.755   5.604  11.292 -0.5176  1.1600  0.2607
 1568TIP3    H226120   6.686   5.486  11.357  1.8243 -0.6133 -0.4412
 1569TIP3   OH226121   6.518   0.225  14.610 -0.4833  0.0923 -0.0807
 1569TIP3    H126122   6.525   0.149  14.668 -0.6284  0.9636  1.1165
 1569TIP3    H226123   6.584   0.211  14.543  1.3850  0.2268  1.6816
 1570TIP3   OH226124   6.596   5.809  15.329  0.0374  0.1748  0.2907
 1570TIP3    H126125   6.610   5.897  15.294  0.4896  0.2952  0.7778
 1570TIP3    H226126   6.595   5.821  15.424 -0.6053 -0.2430  0.3415
 1571TIP3   OH226127   3.562   4.208   3.614 -0.2278  0.6604 -0.0833
 1571TIP3    H126128   3.616   4.142   3.571 -0.6586  0.1353  0.1808
 1571TIP3    H226129   3.593   4.209   3.705  0.3648  1.4364 -0.2895
 1572TIP3   OH226130   6.018   2.759  12.494 -0.2345 -0.3746 -0.0738
 1572TIP3    H126131   5.930   2.796  12.482 -0.4350 -0.5624  0.7175
 1572TIP3    H226132   6.074   2.808  12.435 -0.2145  2.2591  2.0171
 1573TIP3   OH226133   3.717   0.064  13.259 -0.4464  0.2254 -0.3050
 1573TIP3    H126134   3.625   0.074  13.235 -0.5187  0.0706 -0.0969
 1573TIP3    H226135   3.719   0.079  13.354 -0.2024  0.5802 -0.3702
 1574TIP3   OH226136   2.288   4.407  17.206  0.2166 -0.2489 -0.2513
 1574TIP3    H126137   2.195   4.426  17.210  0.3104  0.2606 -0.4371
 1574TIP3    H226138   2.293   4.320  17.167 -0.1063  0.5548 -2.1532
 1575TIP3   OH226139   1.011   5.428  15.289  0.3355 -0.2464 -0.0316
 1575TIP3    H126140   1.095   5.417  15.334  0.1197 -1.1529  0.1667
 1575TIP3    H226141   1.033   5.427  15.196  0.6047  0.0105  0.0308
 1576TIP3   OH226142   3.682   5.563  16.654 -0.4936 -0.3510  0.1290
 1576TIP3    H126143   3.738   5.587  16.580 -0.5318  0.2012  0.2813
 1576TIP3    H226144   3.732   5.496  16.701  0.2712  0.5356  0.5763
 1577TIP3   OH226145   2.164   1.809   1.137  0.2578  0.2616 -0.2504
 1577TIP3    H126146   2.112   1.732   1.159  0.1871  0.4217  0.1376
 1577TIP3    H226147   2.230   1.776   1.075 -0.5070  0.1247 -0.9923
 1578TIP3   OH226148   3.477   4.348  10.629 -0.2112  0.2245  0.6263
 1578TIP3    H126149   3.413   4.405  10.586 -0.3162  0.8055  1.5463
 1578TIP3    H226150   3.561   4.391  10.615  0.1502 -1.0533 -1.4633
 1579TIP3   OH226151   5.990   5.020  13.397 -0.0262  0.1506 -0.6636
 1579TIP3    H126152   5.981   4.981  13.484  1.1448 -0.9136 -1.0089
 1579TIP3    H226153   5.934   4.966  13.341 -0.0732  0.2756 -0.7367
 1580TIP3   OH226154   2.028   4.326   2.477  0.3043  0.0261 -0.0131
 1580TIP3    H126155   2.096   4.357   2.537 -0.4415  0.6842  0.5038
 1580TIP3    H226156   2.013   4.399   2.418 -1.0657  0.4723  0.8605
 1581TIP3   OH226157   3.057   1.716  16.224 -0.1801  0.0882  0.1087
 1581TIP3    H126158   3.104   1.775  16.166  1.0537 -2.2176 -1.3264
 1581TIP3    H226159   3.019   1.650  16.166 -0.0204 -1.5242  1.7884
 1582TIP3   OH226160   4.325   3.210  16.625  0.7095  0.5021  0.1099
 1582TIP3    H126161   4.272   3.133  16.649  0.4371 -0.1665 -2.4449
 1582TIP3    H226162   4.390   3.217  16.695  0.0857 -1.4489  0.9350
 1583TIP3   OH226163   3.698   2.062   1.775 -0.9403 -0.3123 -0.4299
 1583TIP3    H126164   3.652   2.144   1.791  1.0652  0.6543  0.3751
 1583TIP3    H226165   3.732   2.035   1.860  2.2862  0.3718 -1.4546
 1584TIP3   OH226166   5.116   0.832  14.175  0.1963 -0.1186 -0.4299
 1584TIP3    H126167   5.097   0.740  14.154 -0.0691 -0.1836  0.0807
 1584TIP3    H226168   5.202   0.829  14.216  0.3166 -0.1055 -0.6848
 1585TIP3   OH226169   0.117   1.802  13.356  0.2024  0.0650 -0.3376
 1585TIP3    H126170   0.060   1.736  13.396 -0.0670  0.5821  0.1407
 1585TIP3    H226171   0.152   1.759  13.278 -2.3923  0.3708 -1.7507
 1586TIP3   OH226172   6.615   0.096  12.055  0.3487 -0.1714 -0.0647
 1586TIP3    H126173   6.532   0.066  12.093  0.7703 -1.1143  0.1369
 1586TIP3    H226174   6.649   0.159  12.119  0.6753 -1.1638  0.7651
 1587TIP3   OH226175   5.383   5.565  15.955  0.3708  0.8149  0.0862
 1587TIP3    H126176   5.382   5.470  15.943  0.7633  0.7308  0.7406
 1587TIP3    H226177   5.344   5.599  15.874  1.2051  0.1519 -0.6126
 1588TIP3   OH226178   3.866   3.649  14.110 -0.0275 -0.3630  0.6725
 1588TIP3    H126179   3.848   3.691  14.026 -0.3864  0.0256  0.9434
 1588TIP3    H226180   3.952   3.683  14.136  1.3429 -2.5296 -0.8202
 1589TIP3   OH226181   1.957   0.642  15.571 -0.4735  0.2104  0.6596
 1589TIP3    H126182   2.001   0.638  15.486 -0.0410 -1.2952  0.9293
 1589TIP3    H226183   1.866   0.661  15.550 -0.3430  0.0054 -0.1327
 1590TIP3   OH226184   3.882   6.410   2.214  0.1099 -1.2945 -0.2890
 1590TIP3    H126185   3.953   6.374   2.162  1.6481  1.1977 -0.0256
 1590TIP3    H226186   3.853   6.487   2.165 -0.5190 -0.7105  0.9755
 1591TIP3   OH226187   4.844   2.487  15.751 -0.1546  0.4815 -0.1296
 1591TIP3    H126188   4.760   2.508  15.711 -0.1119 -1.2416 -1.1897
 1591TIP3    H226189   4.909   2.529  15.694 -0.2631  1.2690  0.3236
 1592TIP3   OH226190   6.011   1.175  13.962 -0.1182 -0.0329  0.1741
 1592TIP3    H126191   6.008   1.082  13.980 -0.6864 -0.2395 -0.8989
 1592TIP3    H226192   5.997   1.217  14.047  0.2559 -0.9176  0.6768
 1593TIP3   OH226193   6.048   2.164   4.335  0.0610 -0.1646 -0.2656
 1593TIP3    H126194   5.993   2.218   4.278  1.0324  0.3197 -0.7655
 1593TIP3    H226195   5.997   2.085   4.350 -0.0108 -0.5184 -2.2270
 1594TIP3   OH226196   1.732   1.337  15.681 -0.1393  0.6028  0.0314
 1594TIP3    H126197   1.788   1.387  15.741 -1.8355 -0.8620  2.9628
 1594TIP3    H226198   1.687   1.404  15.629  1.7376  1.9002  0.0153
 1595TIP3   OH226199   4.702   6.376  16.751 -0.4341  0.6279  0.1549
 1595TIP3    H126200   4.756   6.453  16.738 -3.2987  2.5264 -1.0623
 1595TIP3    H226201   4.635   6.382  16.682 -2.8223 -1.0307  2.2301
 1596TIP3   OH226202   4.101   3.716  14.977  0.4764  0.1421  0.0805
 1596TIP3    H126203   4.158   3.663  14.921  0.5846 -1.2321  1.4553
 1596TIP3    H226204   4.077   3.658  15.049 -1.9723  0.9688 -0.0058
 1597TIP3   OH226205   2.839   5.791  11.881  0.5092 -0.1782 -0.1070
 1597TIP3    H126206   2.792   5.721  11.928  0.8388  0.6360  1.4937
 1597TIP3    H226207   2.770   5.850  11.850  0.3969  0.7102  1.7402
 1598TIP3   OH226208   1.800   4.316  14.440 -0.4003  0.6350 -0.1239
 1598TIP3    H126209   1.837   4.398  14.472  0.6172 -0.8034  2.6448
 1598TIP3    H226210   1.730   4.296  14.503  0.0892 -1.1314 -0.1217
 1599TIP3   OH226211   0.142   3.614   0.931  0.1904  0.1981  0.2685
 1599TIP3    H126212   0.222   3.649   0.892  1.1402  0.2270  2.2002
 1599TIP3    H226213   0.128   3.531   0.887  0.2740  1.0295 -1.3583
 1600TIP3   OH226214   4.486   0.530  14.691  0.8458  0.0136 -0.0475
 1600TIP3    H126215   4.449   0.618  14.683 -2.1227 -1.1650  0.0309
 1600TIP3    H226216   4.555   0.527  14.624 -1.0746  1.3977 -2.1877
 1601TIP3   OH226217   5.273   1.213   1.065 -0.4546 -0.3022  0.3819
 1601TIP3    H126218   5.210   1.141   1.057 -0.7838 -0.0403  0.5796
 1601TIP3    H226219   5.276   1.232   1.159 -0.8195  0.3332  0.2704
 1602TIP3   OH226220   6.747   4.540  15.523  0.0888 -0.2328 -0.3917
 1602TIP3    H126221   6.720   4.472  15.461  1.9227  0.2588 -1.7585
 1602TIP3    H226222   6.683   4.610  15.511 -0.6775 -0.8983 -0.3353
 1603TIP3   OH226223   3.642   5.553  16.042  0.3687 -0.5922 -0.2882
 1603TIP3    H126224   3.585   5.601  15.981  0.4338 -0.8330 -0.5430
 1603TIP3    H226225   3.586   5.484  16.077  0.2010 -0.1799  0.2729
 1604TIP3   OH226226   0.007   4.643   4.405 -0.5150  0.3694 -0.0675
 1604TIP3    H126227   0.015   4.645   4.309  0.4574  0.5511  0.0088
 1604TIP3    H226228  -0.081   4.676   4.422 -0.4293  1.0604 -0.8762
 1605TIP3   OH226229   0.605   3.478   5.277  0.0169  0.6481 -0.1933
 1605TIP3    H126230   0.697   3.459   5.297 -0.4837 -1.4331  0.2553
 1605TIP3    H226231   0.608   3.557   5.225  2.0446  0.8838  0.2355
 1606TIP3   OH226232   1.568   3.990  13.640  0.1856  0.4751  0.5199
 1606TIP3    H126233   1.623   3.998  13.563 -0.9379 -3.3200 -0.7893
 1606TIP3    H226234   1.487   4.037  13.618 -0.2587 -0.8758 -0.7747
 1607TIP3   OH226235   1.418   3.797  16.382 -0.5101 -0.3083 -0.7557
 1607TIP3    H126236   1.332   3.837  16.365  1.0631  2.4683 -2.4028
 1607TIP3    H226237   1.454   3.848  16.455 -0.6340 -2.1111  0.5967
 1608TIP3   OH226238   1.912   6.479  15.083 -0.0039 -0.6701  0.0996
 1608TIP3    H126239   1.863   6.407  15.123 -0.7326 -0.0786  0.2614
 1608TIP3    H226240   1.962   6.517  15.156 -0.8101 -0.0258  0.3167
 1609TIP3   OH226241   5.051   1.387   1.507 -0.4554 -1.0694  0.1422
 1609TIP3    H126242   5.083   1.448   1.440  1.7134 -0.3172  1.7870
 1609TIP3    H226243   4.960   1.412   1.521  0.0160  0.9354 -0.1833
 1610TIP3   OH226244   0.525   0.449  13.315  0.1521 -0.1205  1.0496
 1610TIP3    H126245   0.473   0.420  13.390 -1.1050  0.6128  0.4549
 1610TIP3    H226246   0.566   0.531  13.344  2.2211 -1.4564  2.0575
 1611TIP3   OH226247   5.238   1.101   2.113  0.1269  0.4844  0.3123
 1611TIP3    H126248   5.250   1.083   2.206 -1.2148 -3.6701 -0.2483
 1611TIP3    H226249   5.153   1.144   2.108  0.6635  1.6615  1.0862
 1612TIP3   OH226250   0.177   5.435   5.808  0.2107  0.2365 -0.2144
 1612TIP3    H126251   0.203   5.503   5.870 -1.7203 -0.0547  0.9455
 1612TIP3    H226252   0.115   5.380   5.856 -1.2543 -0.0535 -2.3457
 1613TIP3   OH226253   5.890   4.078  13.302  0.2968 -0.4752 -0.9497
 1613TIP3    H126254   5.814   4.027  13.275 -0.5030 -0.3197  0.9679
 1613TIP3    H226255   5.916   4.125  13.222 -1.8582 -0.2185 -1.5368
 1614TIP3   OH226256   2.924   0.365  14.726  0.2763  0.2732 -0.3914
 1614TIP3    H126257   2.842   0.393  14.686 -0.1232 -0.1709  0.1175
 1614TIP3    H226258   2.964   0.306  14.661  0.1989  0.4984 -0.6417
 1615TIP3   OH226259   3.326   5.948  14.357  0.3449 -0.3277 -0.7453
 1615TIP3    H126260   3.344   6.021  14.298 -1.2401  0.2689 -0.5140
 1615TIP3    H226261   3.295   5.878  14.299  0.6927 -0.4066 -0.8356
 1616TIP3   OH226262   4.249   0.050   6.056 -0.0933  0.5216 -0.5015
 1616TIP3    H126263   4.225   0.092   6.139 -0.8648 -0.8218 -0.0162
 1616TIP3    H226264   4.224   0.113   5.989 -0.0629  1.3542  0.2631
 1617TIP3   OH226265   4.688   3.708  11.087 -0.1163 -0.0888 -0.0662
 1617TIP3    H126266   4.639   3.776  11.041  1.3074  1.9531  1.3634
 1617TIP3    H226267   4.655   3.626  11.051 -2.1521  1.3415 -1.5427
 1618TIP3   OH226268   6.417   6.270   5.058  0.0662  0.0825 -0.9096
 1618TIP3    H126269   6.332   6.286   5.100 -0.0830  0.2100 -1.2506
 1618TIP3    H226270   6.463   6.354   5.066  1.0749 -0.6628  1.3144
 1619TIP3   OH226271   1.066   6.570  15.741 -0.2167 -0.4033 -1.0655
 1619TIP3    H126272   1.152   6.549  15.705  0.6129 -0.0102  0.6197
 1619TIP3    H226273   1.068   6.535  15.830 -1.5552  0.2061 -0.7804
 1620TIP3   OH226274   2.203   4.020   5.655  0.0148 -0.5030 -0.1433
 1620TIP3    H126275   2.142   4.046   5.725  0.7136 -0.6768  0.5441
 1620TIP3    H226276   2.242   3.938   5.687  1.1027 -0.0430 -0.2717
 1621TIP3   OH226277   4.302   0.330  16.990 -0.0747 -0.0297 -0.7289
 1621TIP3    H126278   4.209   0.350  17.000  0.2459  1.7622 -1.1856
 1621TIP3    H226279   4.322   0.270  17.062 -1.5053 -0.1554 -0.4290
 1622TIP3   OH226280   4.800   5.556   0.526 -0.1161  0.3178  0.2355
 1622TIP3    H126281   4.839   5.601   0.602 -0.5091  0.3007  0.4505
 1622TIP3    H226282   4.786   5.467   0.556 -2.4934  0.8914  0.9573
 1623TIP3   OH226283   1.261   5.029   0.428  0.1947 -0.2553  0.2173
 1623TIP3    H126284   1.234   5.011   0.338 -0.4802  0.9680  0.1567
 1623TIP3    H226285   1.319   4.957   0.451 -1.5255 -1.8571 -0.3633
 1624TIP3   OH226286   1.582   5.534  13.755 -0.0164 -0.2232 -0.0429
 1624TIP3    H126287   1.526   5.605  13.784  2.0051  1.3790  0.0352
 1624TIP3    H226288   1.601   5.484  13.835  0.2292  0.3585  0.2644
 1625TIP3   OH226289   3.996   5.744  15.658  0.3332  0.0194  0.3868
 1625TIP3    H126290   3.999   5.743  15.754  1.3395 -2.1517  0.3604
 1625TIP3    H226291   4.086   5.728  15.631  0.1612  1.1844 -0.9506
 1626TIP3   OH226292   6.002   2.026  14.338 -0.6985  0.3768 -0.6792
 1626TIP3    H126293   6.023   1.957  14.400 -0.3644  1.6606  0.6504
 1626TIP3    H226294   5.906   2.033  14.341 -0.6048  1.1741  0.4951
 1627TIP3   OH226295   2.577   6.416  15.380 -0.1730 -0.0831  0.4641
 1627TIP3    H126296   2.636   6.357  15.427 -1.4210 -1.6110  0.1730
 1627TIP3    H226297   2.491   6.401  15.420 -0.3443  2.2339  0.9962
 1628TIP3   OH226298   0.551   5.536  16.805 -0.2556  0.2428 -0.0077
 1628TIP3    H126299   0.489   5.571  16.870  0.0178 -0.3159  0.5629
 1628TIP3    H226300   0.506   5.460  16.768 -0.9728  1.3681 -1.4671
 1629TIP3   OH226301   5.628   2.398  13.372 -0.2607  0.2644 -0.6207
 1629TIP3    H126302   5.705   2.444  13.403 -0.0890  0.2450 -1.0249
 1629TIP3    H226303   5.592   2.453  13.304 -1.5838  1.1209  0.7329
 1630TIP3   OH226304   0.492   1.307  14.421  0.2875 -0.6422  0.1317
 1630TIP3    H126305   0.538   1.226  14.442  0.0150 -1.3637 -1.9348
 1630TIP3    H226306   0.558   1.362  14.379  0.0071 -0.5663 -0.2211
 1631TIP3   OH226307   1.230   3.624   2.256  0.5161 -0.0652  0.1470
 1631TIP3    H126308   1.256   3.681   2.329 -0.8971  1.8608 -0.8061
 1631TIP3    H226309   1.291   3.648   2.185 -2.3828  2.9968 -1.4380
 1632TIP3   OH226310   2.418   1.104  17.117 -0.3123  0.0228  0.1206
 1632TIP3    H126311   2.455   1.022  17.149 -0.7250  0.6748  2.3550
 1632TIP3    H226312   2.492   1.153  17.083  0.4010 -0.0528  1.5250
 1633TIP3   OH226313   4.667   3.944   3.306 -0.5117 -0.2378  0.2782
 1633TIP3    H126314   4.701   4.033   3.308 -2.0694  0.3937 -0.8064
 1633TIP3    H226315   4.718   3.898   3.373  0.9461  1.2141  0.2080
 1634TIP3   OH226316   3.051   2.648  17.042  1.2299  0.0707  0.5872
 1634TIP3    H126317   3.143   2.629  17.063  1.4745  0.9377  0.3211
 1634TIP3    H226318   3.040   2.616  16.953  0.8711 -1.3415  1.1225
 1635TIP3   OH226319   4.517   3.960   2.766 -0.4151 -0.7640  0.5381
 1635TIP3    H126320   4.542   3.946   2.857  1.1840 -2.2536 -0.0877
 1635TIP3    H226321   4.489   3.873   2.736  1.3355 -0.8360 -1.0137
 1636TIP3   OH226322   0.275   0.063   4.321  0.8746 -0.1040  0.1812
 1636TIP3    H126323   0.318   0.087   4.403  0.8698 -0.4172  0.2762
 1636TIP3    H226324   0.183   0.081   4.336  1.3707  4.0779 -1.2706
 1637TIP3   OH226325   0.729   5.034  13.832 -0.1340  0.1197  0.0094
 1637TIP3    H126326   0.636   5.036  13.812 -0.3022  1.6787  0.8136
 1637TIP3    H226327   0.767   5.104  13.778  0.5142 -0.2777 -0.0624
 1638TIP3   OH226328   5.383   5.309  14.679  0.2487  0.0099 -0.1935
 1638TIP3    H126329   5.379   5.351  14.593 -0.4853  0.2430 -0.0532
 1638TIP3    H226330   5.379   5.382  14.741 -0.0863 -0.2090  0.0441
 1639TIP3   OH226331   0.684   1.294   4.270 -0.6745 -0.0167 -0.4616
 1639TIP3    H126332   0.628   1.217   4.265 -0.7260  0.0312 -0.6165
 1639TIP3    H226333   0.678   1.322   4.362  2.4787 -2.5249  0.6135
 1640TIP3   OH226334   0.905   1.480   4.159 -0.0204 -0.3589  0.1975
 1640TIP3    H126335   0.883   1.573   4.158  0.0796 -0.3281  0.8562
 1640TIP3    H226336   0.825   1.437   4.188 -1.2525 -0.8148 -3.5335
 1641TIP3   OH226337   1.652   1.084  14.768 -0.2613  0.0847 -0.4205
 1641TIP3    H126338   1.662   1.130  14.685  3.3801  1.0407  0.4528
 1641TIP3    H226339   1.710   1.008  14.760  0.9832  0.7845  1.6315
 1642TIP3   OH226340   0.584   3.412   2.771  0.2109 -0.0476  0.6095
 1642TIP3    H126341   0.543   3.438   2.854  0.3820  3.3991 -0.3209
 1642TIP3    H226342   0.587   3.492   2.719  1.5855 -1.7957 -2.1423
 1643TIP3   OH226343   4.432   5.906  13.815 -0.1657  0.0690  0.1736
 1643TIP3    H126344   4.395   5.915  13.728  0.5791 -0.7972 -0.2435
 1643TIP3    H226345   4.357   5.897  13.873 -0.6320 -0.3965 -0.5056
 1644TIP3   OH226346   3.967   4.019  11.291 -0.1425 -0.4717 -0.1341
 1644TIP3    H126347   3.914   4.066  11.226 -0.7135  0.6760  1.1213
 1644TIP3    H226348   4.016   4.088  11.335  0.7920 -1.3218  0.1662
 1645TIP3   OH226349   5.590   6.523   4.568 -0.6976 -0.2984  0.0221
 1645TIP3    H126350   5.539   6.591   4.524  0.3722  1.0012  0.7854
 1645TIP3    H226351   5.663   6.506   4.509 -0.1324  0.3063  0.5442
 1646TIP3   OH226352   6.193   3.875   3.783 -0.3993 -0.0150  0.1094
 1646TIP3    H126353   6.182   3.833   3.868  2.5191  1.3569  1.2436
 1646TIP3    H226354   6.234   3.809   3.727 -0.7047 -0.3607  0.3003
 1647TIP3   OH226355   2.934   4.586   3.688  1.0630 -0.5764  0.2433
 1647TIP3    H126356   2.906   4.614   3.775  2.0362 -2.0417  1.0605
 1647TIP3    H226357   2.960   4.666   3.644 -1.9130  0.5143  0.3572
 1648TIP3   OH226358   3.533   6.094   4.388  0.2535 -0.0318 -0.4123
 1648TIP3    H126359   3.583   6.160   4.340 -0.1097  1.3949  1.1309
 1648TIP3    H226360   3.564   6.101   4.479 -0.3861 -1.4175 -0.0740
 1649TIP3   OH226361   6.044   3.872   4.099 -0.1841 -0.5838 -0.3534
 1649TIP3    H126362   5.979   3.942   4.088  0.8685  0.2148 -1.6896
 1649TIP3    H226363   5.996   3.801   4.142 -1.8767  0.0791 -1.0892
 1650TIP3   OH226364   2.781   0.486   0.285 -0.2801  0.0360  0.5091
 1650TIP3    H126365   2.858   0.530   0.249  1.1382 -0.6358  2.6182
 1650TIP3    H226366   2.749   0.545   0.353 -2.3608  0.8513 -1.1260
 1651TIP3   OH226367   6.646   4.511   4.654 -0.1975  0.2820  0.2926
 1651TIP3    H126368   6.622   4.599   4.624 -0.4832 -0.7567 -2.6822
 1651TIP3    H226369   6.717   4.526   4.717 -1.2584  2.7154  0.9972
 1652TIP3   OH226370   6.093   5.131   0.850  0.2643 -0.7236 -0.4574
 1652TIP3    H126371   6.107   5.222   0.825  2.5222 -1.3972 -1.8824
 1652TIP3    H226372   6.013   5.132   0.902 -0.2518  1.9263 -1.2178
 1653TIP3   OH226373   4.990   3.506   5.630  0.4038 -0.0413  0.5385
 1653TIP3    H126374   4.940   3.535   5.554 -0.6980  0.4863  1.4403
 1653TIP3    H226375   4.939   3.536   5.705  2.2404  0.7646  1.5007
 1654TIP3   OH226376   6.403   4.121  12.655 -0.7969 -0.2454  0.0378
 1654TIP3    H126377   6.332   4.160  12.605  0.0998  0.2785 -0.8490
 1654TIP3    H226378   6.475   4.111  12.592  0.1586 -0.1009  1.0710
 1655TIP3   OH226379   6.300   3.761  13.153 -0.8583 -0.2762  0.4391
 1655TIP3    H126380   6.229   3.707  13.116  0.9808 -5.3036  3.7449
 1655TIP3    H226381   6.377   3.738  13.101  0.1600 -1.7818  2.5332
 1656TIP3   OH226382   2.257   1.077   1.332 -0.1753 -0.6495 -0.2645
 1656TIP3    H126383   2.344   1.103   1.301 -0.4424  0.8778  0.2314
 1656TIP3    H226384   2.204   1.156   1.323 -0.7470 -0.7256  2.2545
 1657TIP3   OH226385   4.203   4.775   0.691  0.7346  0.3508  0.3181
 1657TIP3    H126386   4.149   4.794   0.767 -0.6327  0.1125 -0.5634
 1657TIP3    H226387   4.145   4.725   0.633  1.1477  2.1452 -1.6916
 1658TIP3   OH226388   6.002   1.454  14.637  0.5548  0.0195  0.2757
 1658TIP3    H126389   6.057   1.481  14.563  0.3988  0.4994  0.3371
 1658TIP3    H226390   5.986   1.360  14.621  0.1849  0.2104 -0.5132
 1659TIP3   OH226391   6.077   3.693  15.357  0.2065  0.5546 -0.2400
 1659TIP3    H126392   6.010   3.724  15.295 -1.3239 -0.8566  0.6571
 1659TIP3    H226393   6.057   3.739  15.438  0.9425  0.8643 -0.2363
 1660TIP3   OH226394   1.012   1.287  15.922 -0.2241  0.6684 -0.0272
 1660TIP3    H126395   1.106   1.267  15.919 -0.7059 -1.6539 -1.2722
 1660TIP3    H226396   0.992   1.321  15.836 -0.3175  2.2782  0.6195
 1661TIP3   OH226397   1.512   2.792   2.222  0.4973  0.3184 -0.0043
 1661TIP3    H126398   1.587   2.732   2.227 -1.3118 -1.9627  0.4187
 1661TIP3    H226399   1.497   2.819   2.313 -0.4795 -0.8566  0.1863
 1662TIP3   OH226400   2.058   1.716  12.968 -0.0604  0.4526 -1.0343
 1662TIP3    H126401   2.039   1.744  12.879 -2.2882  1.2318 -0.3369
 1662TIP3    H226402   1.978   1.673  12.998  1.5485 -2.2133 -0.2993
 1663TIP3   OH226403   5.925   5.480   4.736 -0.2165 -0.7812 -0.0801
 1663TIP3    H126404   5.923   5.507   4.644 -1.5783  1.8696  0.6449
 1663TIP3    H226405   5.857   5.534   4.778 -0.9408 -3.3034  2.1266
 1664TIP3   OH226406   0.308   6.437  14.902  0.0007 -0.6874  0.1720
 1664TIP3    H126407   0.249   6.407  14.971  0.5838 -0.6211  0.7147
 1664TIP3    H226408   0.348   6.517  14.939 -0.2731 -0.2064 -0.5639
 1665TIP3   OH226409   1.633   6.086  13.055 -0.8085  0.3681  0.0139
 1665TIP3    H126410   1.689   6.099  13.132  1.6565  0.5503 -1.7681
 1665TIP3    H226411   1.664   6.004  13.017 -2.1422  0.1897 -0.7240
 1666TIP3   OH226412   1.219   5.203   5.880  0.2640  0.3597  0.2710
 1666TIP3    H126413   1.283   5.259   5.837  0.8446  1.2679  2.2730
 1666TIP3    H226414   1.138   5.253   5.878  1.3768  2.5662  4.4506
 1667TIP3   OH226415   3.977   2.168  12.111  0.0209  0.7974  0.4114
 1667TIP3    H126416   3.896   2.192  12.065  0.1185  0.6662  0.1709
 1667TIP3    H226417   3.947   2.129  12.193 -0.2211 -0.9964 -0.5060
 1668TIP3   OH226418   3.134   3.959   2.788 -0.4849  0.0175 -0.2903
 1668TIP3    H126419   3.103   4.028   2.729 -1.2965  0.9937  1.2362
 1668TIP3    H226420   3.222   3.986   2.811 -0.5012  0.1151 -0.3396
 1669TIP3   OH226421   3.872   0.154   5.300 -0.3280 -0.2680 -0.2008
 1669TIP3    H126422   3.783   0.147   5.334 -0.1352  0.9611  0.6068
 1669TIP3    H226423   3.877   0.243   5.264  0.4708 -0.4243 -0.4898
 1670TIP3   OH226424   5.501   5.207   0.318  0.4017  0.4957  0.0854
 1670TIP3    H126425   5.576   5.230   0.373 -0.3737  0.2761  1.2502
 1670TIP3    H226426   5.448   5.149   0.373  0.9532 -1.9064 -1.8344
 1671TIP3   OH226427   4.975   4.035  12.483  0.0282 -0.1115  0.1379
 1671TIP3    H126428   4.892   4.000  12.515 -0.8624  1.4787 -0.3511
 1671TIP3    H226429   4.951   4.082  12.403  1.4007  0.3963  0.0180
 1672TIP3   OH226430   1.484   5.422  11.706 -0.2688 -0.1788  0.0528
 1672TIP3    H126431   1.448   5.348  11.656  0.8202 -0.8887  0.2873
 1672TIP3    H226432   1.554   5.383  11.759  0.6324  1.0944 -0.1678
 1673TIP3   OH226433   2.253   2.558   2.306 -0.0440  0.3172  0.6121
 1673TIP3    H126434   2.310   2.634   2.296 -1.5804  1.2403 -1.3731
 1673TIP3    H226435   2.276   2.501   2.232 -1.4234  0.5396  0.0002
 1674TIP3   OH226436   6.450   1.341  16.876 -0.4084  0.2380 -0.1350
 1674TIP3    H126437   6.479   1.258  16.916  0.7551  1.2659  1.2253
 1674TIP3    H226438   6.360   1.325  16.850 -0.3191 -1.3441  0.4563
 1675TIP3   OH226439   0.893   5.035   5.827  0.4317  0.1092  0.4054
 1675TIP3    H126440   0.963   5.060   5.767  0.4098 -0.2361  0.2361
 1675TIP3    H226441   0.886   4.940   5.818 -0.7007  0.2519 -0.2920
 1676TIP3   OH226442   4.921   1.832   1.443 -0.2766 -0.0291  0.0851
 1676TIP3    H126443   4.835   1.839   1.402 -1.1972 -0.6946  1.8494
 1676TIP3    H226444   4.920   1.747   1.487  1.3547 -0.1181 -0.0334
 1677TIP3   OH226445   0.639   1.426  12.427 -0.2681 -0.7861 -0.0579
 1677TIP3    H126446   0.547   1.436  12.452 -0.2344  1.0137 -0.6153
 1677TIP3    H226447   0.682   1.395  12.507 -1.6057 -3.2324 -0.2286
 1678TIP3   OH226448   6.188   1.846  15.357 -0.2541  0.0915 -0.0116
 1678TIP3    H126449   6.132   1.769  15.363  0.6242 -0.5339  0.3576
 1678TIP3    H226450   6.172   1.893  15.439 -0.6650  0.2183 -0.1634
 1679TIP3   OH226451   6.272   4.223   0.506 -0.1304 -0.0443  0.4207
 1679TIP3    H126452   6.241   4.170   0.579 -0.3923 -0.8835 -0.2900
 1679TIP3    H226453   6.346   4.174   0.470  0.3712  0.6562  0.4913
 1680TIP3   OH226454   0.738   5.647   2.920 -0.5430  0.4098 -0.2773
 1680TIP3    H126455   0.710   5.616   3.006  0.4441  0.8963  0.2291
 1680TIP3    H226456   0.821   5.692   2.936  0.4699 -0.8502 -1.7147
 1681TIP3   OH226457   0.862   3.067   1.049  0.0130 -0.0374 -0.0913
 1681TIP3    H126458   0.770   3.080   1.026  0.4032 -0.8324 -2.2305
 1681TIP3    H226459   0.880   2.976   1.026  1.1632 -0.0932  0.9728
 1682TIP3   OH226460   0.617   5.256  14.342  0.6261  0.1447 -0.2162
 1682TIP3    H126461   0.524   5.279  14.336  0.8189  1.7736  2.6116
 1682TIP3    H226462   0.647   5.255  14.251 -2.3555 -1.3598 -1.2575
 1683TIP3   OH226463   2.614   0.556  11.760  0.3017  0.4423  0.5871
 1683TIP3    H126464   2.532   0.511  11.779  0.3225  0.5139  0.8588
 1683TIP3    H226465   2.610   0.636  11.812 -0.5653  1.6705 -1.3242
 1684TIP3   OH226466   5.985   3.541   1.625 -0.0924 -0.2547 -0.2258
 1684TIP3    H126467   6.081   3.537   1.622  0.0354  2.4249 -1.1369
 1684TIP3    H226468   5.961   3.591   1.547 -2.1591  0.3133  0.7509
 1685TIP3   OH226469   6.575   0.510  13.959  0.8623  0.4286  0.4193
 1685TIP3    H126470   6.639   0.570  13.995 -0.6372  2.0992  0.3820
 1685TIP3    H226471   6.607   0.490  13.871  0.5976  2.4418 -0.1699
 1686TIP3   OH226472   4.424   1.209   4.320  0.8669  0.1818  0.2392
 1686TIP3    H126473   4.515   1.198   4.349  0.7078  0.8146  1.0005
 1686TIP3    H226474   4.391   1.120   4.308  1.5689 -0.0538  0.0218
 1687TIP3   OH226475   3.176   6.405   6.655 -0.4538 -0.2311  0.1393
 1687TIP3    H126476   3.269   6.426   6.649 -0.5743  0.0034 -1.0628
 1687TIP3    H226477   3.148   6.395   6.564 -1.5164 -0.6785  0.5105
 1688TIP3   OH226478   2.435   0.673  16.226  0.1833  0.0601  0.1720
 1688TIP3    H126479   2.493   0.601  16.201 -0.4469  0.3103 -2.0919
 1688TIP3    H226480   2.482   0.717  16.297  2.7770  0.2367 -1.5801
 1689TIP3   OH226481   2.774   0.997  17.065 -0.4672  0.0794  0.1770
 1689TIP3    H126482   2.844   0.980  17.002 -0.9396 -2.0261  0.1918
 1689TIP3    H226483   2.726   1.071  17.028  0.4167  0.0959 -0.9585
 1690TIP3   OH226484   2.900   6.502  12.468 -0.2604  0.0991  0.0016
 1690TIP3    H126485   2.980   6.553  12.453 -1.3350  1.9585  0.4535
 1690TIP3    H226486   2.867   6.532  12.552 -2.9862  1.4757 -1.4774
 1691TIP3   OH226487   0.443   2.806   3.260  0.3439 -0.3324 -0.0319
 1691TIP3    H126488   0.356   2.819   3.297 -0.0534 -1.7273 -0.4403
 1691TIP3    H226489   0.496   2.773   3.334 -0.0534 -1.6181 -0.3040
 1692TIP3   OH226490   3.710   5.941   5.218  0.3177 -0.2603 -0.1424
 1692TIP3    H126491   3.656   6.001   5.268  0.5974  0.2850 -0.4919
 1692TIP3    H226492   3.647   5.885   5.172  0.0607 -0.3099  0.2637
 1693TIP3   OH226493   1.979   3.491   1.721 -0.2348 -0.2896 -0.1879
 1693TIP3    H126494   2.047   3.556   1.701 -0.1834  0.1173  1.2309
 1693TIP3    H226495   1.919   3.496   1.647 -0.4418  1.6664  0.0839
 1694TIP3   OH226496   1.394   1.315  14.083 -0.3757 -0.8195 -0.2656
 1694TIP3    H126497   1.456   1.330  14.155  1.2234 -1.1956 -1.5310
 1694TIP3    H226498   1.311   1.350  14.115  0.6377  0.2949  1.2149
 1695TIP3   OH226499   4.455   2.752  13.119 -0.1640 -0.1229  0.3150
 1695TIP3    H126500   4.466   2.836  13.164 -1.1544 -0.2246  0.7521
 1695TIP3    H226501   4.364   2.728  13.135  0.2079 -1.4551  0.4876
 1696TIP3   OH226502   6.517   2.721   2.597  0.7490 -0.6371  0.0259
 1696TIP3    H126503   6.482   2.809   2.585  1.8150  0.0345  1.7322
 1696TIP3    H226504   6.439   2.665   2.599  0.1471  0.0632 -2.5145
 1697TIP3   OH226505   1.943   5.863  13.806  0.3124 -0.5883  0.2027
 1697TIP3    H126506   1.949   5.776  13.845  0.8702 -0.6577 -0.0232
 1697TIP3    H226507   1.959   5.923  13.879 -0.3626 -0.6625  0.4145
 1698TIP3   OH226508   2.167   0.242   4.178  0.4427 -0.1261 -0.0060
 1698TIP3    H126509   2.199   0.264   4.091 -0.9586 -1.1379 -0.7927
 1698TIP3    H226510   2.213   0.303   4.237 -0.2849  2.0894 -1.6772
 1699TIP3   OH226511   5.757   6.312   6.034 -0.1397  0.9049  0.7415
 1699TIP3    H126512   5.840   6.357   6.046 -0.8660  2.0696  1.5286
 1699TIP3    H226513   5.768   6.262   5.953  1.8827 -0.2563  1.6973
 1700TIP3   OH226514   0.844   3.209  13.094  0.1778 -0.2337 -0.1525
 1700TIP3    H126515   0.831   3.293  13.050  1.5309  1.1003  1.9196
 1700TIP3    H226516   0.888   3.154  13.029  0.3074  1.0426 -1.1537
 1701TIP3   OH226517   3.936   4.835   2.656  0.5489  0.6892  0.4110
 1701TIP3    H126518   3.860   4.779   2.675  2.0947 -2.0018 -0.9862
 1701TIP3    H226519   3.990   4.828   2.734  0.6381  0.4113  0.3245
 1702TIP3   OH226520   2.428   6.768  16.620  0.5326 -0.1760  0.0172
 1702TIP3    H126521   2.501   6.802  16.568  1.1620 -0.9866  0.3568
 1702TIP3    H226522   2.426   6.824  16.698  0.1655  0.4679 -0.4577
 1703TIP3   OH226523   3.029   2.382   0.439  0.1857  0.8630 -0.3134
 1703TIP3    H126524   3.026   2.476   0.460 -1.0997  0.6604  0.4177
 1703TIP3    H226525   3.056   2.380   0.347  0.3238  1.9485 -0.3140
 1704TIP3   OH226526   0.139   2.885  11.192 -0.1989  0.0047 -0.0046
 1704TIP3    H126527   0.158   2.840  11.109 -1.9643 -0.7574 -0.0228
 1704TIP3    H226528   0.049   2.916  11.183 -0.1121  0.6822  1.2958
 1705TIP3   OH226529   5.006   4.845  14.661 -0.1110  0.2602  0.2422
 1705TIP3    H126530   4.929   4.788  14.661 -0.1113  0.2585  0.0894
 1705TIP3    H226531   4.970   4.933  14.645 -0.2209  0.4699  1.6378
 1706TIP3   OH226532   0.301   2.010   5.309 -0.1197  0.2266 -0.3488
 1706TIP3    H126533   0.337   1.961   5.234  2.4430  1.8150 -0.2132
 1706TIP3    H226534   0.275   2.094   5.272 -0.0723  0.5242  0.2906
 1707TIP3   OH226535   0.146   1.930  10.833 -0.4407 -0.1151  0.2235
 1707TIP3    H126536   0.098   1.848  10.821 -0.1452 -0.4513  1.2629
 1707TIP3    H226537   0.237   1.903  10.840 -0.3770  0.2736  0.8981
 1708TIP3   OH226538   5.857   3.088   4.149 -0.1945  0.0161  0.3998
 1708TIP3    H126539   5.884   3.085   4.057  0.7151  0.4493  0.6553
 1708TIP3    H226540   5.827   3.178   4.162 -1.3071 -0.3239  0.2538
 1709TIP3   OH226541   4.295   5.838  14.482  0.5401 -0.6104 -0.1517
 1709TIP3    H126542   4.244   5.787  14.546  0.8221 -1.8487 -0.8959
 1709TIP3    H226543   4.315   5.919  14.527 -0.2458 -1.0020  0.9350
 1710TIP3   OH226544   3.167   0.812   5.239 -0.1556  0.4781  0.1633
 1710TIP3    H126545   3.160   0.770   5.325 -0.9264  1.1263  0.4156
 1710TIP3    H226546   3.261   0.810   5.219  0.0793  0.7311  1.2187
 1711TIP3   OH226547   5.796   2.255   4.166 -0.2376  0.3209  0.0984
 1711TIP3    H126548   5.730   2.196   4.203  0.7796 -0.2826  0.9753
 1711TIP3    H226549   5.803   2.228   4.074 -1.3268  0.5015 -0.0420
 1712TIP3   OH226550   4.037   6.598  12.357 -0.1818  0.0134  0.1142
 1712TIP3    H126551   4.106   6.617  12.294  1.5110 -0.1162  1.8696
 1712TIP3    H226552   4.033   6.676  12.412  2.4959 -2.0783  3.4980
 1713TIP3   OH226553   1.396   5.396  16.060  0.0335  0.2190  0.3854
 1713TIP3    H126554   1.427   5.388  15.970 -0.0934  0.8613  0.2832
 1713TIP3    H226555   1.425   5.483  16.087  2.3880 -0.9871  1.8574
 1714TIP3   OH226556   3.444   5.841   3.522 -0.0926  0.2858  0.0459
 1714TIP3    H126557   3.499   5.919   3.527  1.5903 -0.9526  1.2336
 1714TIP3    H226558   3.462   5.793   3.603 -1.3158 -1.1904 -0.5338
 1715TIP3   OH226559   2.807   1.149   3.015 -0.0604  0.0624  0.9776
 1715TIP3    H126560   2.840   1.119   3.100  0.2270 -0.5377  0.6609
 1715TIP3    H226561   2.749   1.079   2.986  0.2665  0.0208  0.4303
 1716TIP3   OH226562   0.764   4.003   6.651 -0.1641  0.3425 -0.3385
 1716TIP3    H126563   0.759   4.074   6.716  0.0943  1.0228 -1.0510
 1716TIP3    H226564   0.693   3.944   6.675  0.3149  0.2708  0.9434
 1717TIP3   OH226565   4.916   5.939   3.111 -0.2266  0.6693 -0.5464
 1717TIP3    H126566   4.878   5.941   3.198  1.9960 -0.1058  0.4816
 1717TIP3    H226567   4.983   5.871   3.115  1.5642  2.2578 -2.1193
 1718TIP3   OH226568   0.927   3.684   3.316  0.1803  0.5061  0.4677
 1718TIP3    H126569   0.861   3.670   3.249  0.1035 -1.1199  0.8624
 1718TIP3    H226570   0.981   3.605   3.314  0.2302  0.4760  2.2464
 1719TIP3   OH226571   0.801   6.218   5.934  0.4072  0.9031 -0.1775
 1719TIP3    H126572   0.891   6.250   5.930  0.4516  0.9184  0.8091
 1719TIP3    H226573   0.796   6.170   6.017 -0.4076  0.6548 -0.3680
 1720TIP3   OH226574   4.972   0.172  13.155  0.4222 -0.1079 -0.2539
 1720TIP3    H126575   5.044   0.210  13.105  1.2019 -0.8383  0.3000
 1720TIP3    H226576   4.935   0.246  13.203  2.0029 -0.0493  0.9172
 1721TIP3   OH226577   1.896   6.386  12.812 -0.0056  0.2481 -0.0691
 1721TIP3    H126578   1.803   6.362  12.813 -0.3490  1.3467 -2.1712
 1721TIP3    H226579   1.919   6.399  12.904 -1.5376 -1.4827  0.5958
 1722TIP3   OH226580   4.945   0.021   2.544  0.0521 -0.1493  0.1740
 1722TIP3    H126581   4.879  -0.045   2.524  0.3485 -0.6806  0.9609
 1722TIP3    H226582   4.897   0.104   2.539 -0.7522 -0.5525  1.0435
 1723TIP3   OH226583   0.563   4.800  14.093 -0.4146 -0.6253 -0.1490
 1723TIP3    H126584   0.649   4.757  14.098 -1.0308 -1.7568  1.4706
 1723TIP3    H226585   0.513   4.760  14.165 -1.4589  1.8626  0.5458
 1724TIP3   OH226586   5.061   5.452  13.364  0.7365 -0.2672 -0.0012
 1724TIP3    H126587   5.072   5.357  13.361  2.3272 -0.0638 -1.3570
 1724TIP3    H226588   5.113   5.479  13.440  2.4644 -0.2345 -1.1632
 1725TIP3   OH226589   0.878   0.062   0.490  0.1445 -0.3817 -0.0508
 1725TIP3    H126590   0.957   0.114   0.501 -1.8258  2.4458  1.3657
 1725TIP3    H226591   0.859   0.028   0.578 -1.9351  1.6050  0.3039
 1726TIP3   OH226592   0.807   5.238   1.583  0.0321  0.7911  0.8641
 1726TIP3    H126593   0.739   5.306   1.586  1.3343  2.0617  1.9576
 1726TIP3    H226594   0.889   5.285   1.588  1.0303 -0.7325 -0.7233
 1727TIP3   OH226595   6.247   6.503  13.277  0.6109 -0.3421  0.1808
 1727TIP3    H126596   6.249   6.509  13.373 -1.5111  1.7509  0.1438
 1727TIP3    H226597   6.252   6.409  13.259 -0.1997 -0.8482  2.4191
 1728TIP3   OH226598   1.276   3.337   6.033 -0.3415  0.0156  0.1354
 1728TIP3    H126599   1.296   3.353   5.941  1.3140 -1.6037  0.1918
 1728TIP3    H226600   1.203   3.397   6.053 -2.9699 -1.9388 -3.0991
 1729TIP3   OH226601   1.729   4.733   5.210  0.1762 -0.8614  0.0002
 1729TIP3    H126602   1.768   4.741   5.123 -0.2777  1.7084 -0.0086
 1729TIP3    H226603   1.800   4.754   5.270 -0.4447  1.2124  0.0705
 1730TIP3   OH226604   3.991   2.247   2.654 -0.2019 -0.2547 -0.2305
 1730TIP3    H126605   4.005   2.166   2.603  2.0661  0.6899 -1.1818
 1730TIP3    H226606   3.968   2.216   2.741 -1.0887 -1.9359 -1.0386
 1731TIP3   OH226607   2.799   2.751  15.259  0.2185 -0.1962 -0.5476
 1731TIP3    H126608   2.798   2.817  15.328 -1.5724 -1.1207  0.3429
 1731TIP3    H226609   2.751   2.791  15.187 -0.4059 -0.3261 -0.2050
 1732TIP3   OH226610   5.855   6.196  15.204  0.5676  0.4374  0.1686
 1732TIP3    H126611   5.877   6.112  15.163 -0.3346  0.2522  0.0432
 1732TIP3    H226612   5.855   6.258  15.131 -0.4452  0.2202 -0.0265
 1733TIP3   OH226613   6.060   0.113  14.510 -0.0215  0.4315 -0.1544
 1733TIP3    H126614   6.123   0.074  14.571  0.4258  1.9531  0.3761
 1733TIP3    H226615   6.074   0.207  14.517 -1.0958  0.7063 -1.4101
 1734TIP3   OH226616   3.829   6.561  13.300 -0.4336  0.5200 -0.2098
 1734TIP3    H126617   3.775   6.640  13.300  0.2598  0.9902  0.7680
 1734TIP3    H226618   3.811   6.518  13.383 -0.2847 -0.0012 -0.4389
 1735TIP3   OH226619   6.277   5.470   4.250  0.2745  0.4800  0.2091
 1735TIP3    H126620   6.360   5.425   4.268 -0.1680 -0.5244 -0.2272
 1735TIP3    H226621   6.210   5.410   4.282 -0.2471  1.9826  2.0250
 1736TIP3   OH226622   3.809   4.491   1.952  0.4175 -0.4010 -0.1492
 1736TIP3    H126623   3.810   4.428   1.880  0.0980  0.7214 -1.1650
 1736TIP3    H226624   3.774   4.443   2.026  1.5435 -1.8179 -0.5114
 1737TIP3   OH226625   6.481   4.895   2.600  0.4964 -0.3946  0.0839
 1737TIP3    H126626   6.422   4.824   2.573 -0.3961  0.9825 -1.7164
 1737TIP3    H226627   6.558   4.885   2.544  0.0242  0.5308 -0.7407
 1738TIP3   OH226628   0.956   6.145  14.804  0.4478  0.1622  0.2885
 1738TIP3    H126629   0.862   6.160  14.804  0.0935 -2.0071  1.5253
 1738TIP3    H226630   0.987   6.182  14.887  0.3344 -1.1765  0.9381
 1739TIP3   OH226631   4.634   0.468   2.497 -0.3269 -0.0774 -0.2868
 1739TIP3    H126632   4.583   0.442   2.574  0.1081 -1.0623 -0.3273
 1739TIP3    H226633   4.594   0.549   2.468  0.3926  1.0625  1.8269
 1740TIP3   OH226634   4.708   5.164  13.996  0.1319  0.0754 -0.1001
 1740TIP3    H126635   4.655   5.168  14.075  0.4338 -0.2402  0.1129
 1740TIP3    H226636   4.646   5.136  13.927 -0.2840  1.0138 -0.1159
 1741TIP3   OH226637   6.334   6.386  16.823  0.0452  0.1528  0.5207
 1741TIP3    H126638   6.266   6.322  16.803 -0.0980  0.1821  0.9010
 1741TIP3    H226639   6.415   6.336  16.824 -0.0081  0.0628  0.3659
 1742TIP3   OH226640   4.574   1.896  12.860 -0.1984 -0.4234 -0.6103
 1742TIP3    H126641   4.520   1.873  12.783 -0.8704 -0.0876 -0.2430
 1742TIP3    H226642   4.656   1.927  12.823 -0.0941 -1.3453 -1.1739
 1743TIP3   OH226643   3.411   2.632   3.505 -0.4754 -0.0968 -0.2425
 1743TIP3    H126644   3.427   2.674   3.421 -1.1543  1.0718  0.2028
 1743TIP3    H226645   3.323   2.595   3.498 -0.2592 -0.6123 -0.2875
 1744TIP3   OH226646   5.599   5.927  12.347 -0.1536 -0.0863  0.1557
 1744TIP3    H126647   5.517   5.972  12.330  0.3137  0.4110 -0.7781
 1744TIP3    H226648   5.633   5.968  12.426  0.0600  0.9056 -0.4532
 1745TIP3   OH226649   5.305   4.256  12.482 -0.2097  0.2213  0.0445
 1745TIP3    H126650   5.340   4.333  12.437  0.4736 -0.9461 -1.5010
 1745TIP3    H226651   5.383   4.210  12.514 -0.4461 -0.9519 -0.9884
 1746TIP3   OH226652   2.044   0.919   6.973 -0.1488 -0.1070 -0.4278
 1746TIP3    H126653   2.101   0.880   7.039  0.0686 -0.6974 -0.9622
 1746TIP3    H226654   2.092   0.996   6.942 -0.7222  0.7785  0.8575
 1747TIP3   OH226655   4.254   1.321   4.504 -0.1746 -0.6612  0.1703
 1747TIP3    H126656   4.294   1.301   4.419  0.7044  1.4501  0.0718
 1747TIP3    H226657   4.316   1.286   4.568  1.7184  2.2267  0.0103
 1748TIP3   OH226658   2.841   4.961  15.374  0.2239  0.0632  0.1880
 1748TIP3    H126659   2.909   4.893  15.374 -0.6244 -0.8092 -1.1834
 1748TIP3    H226660   2.861   5.015  15.297  0.1385  0.5935  0.5393
 1749TIP3   OH226661   6.027   0.678   6.298 -0.3487 -0.2392 -0.5454
 1749TIP3    H126662   5.940   0.646   6.322  0.3694  0.7922  3.8737
 1749TIP3    H226663   6.083   0.649   6.369  1.6782  4.6249 -0.0054
 1750TIP3   OH226664   3.762   5.638   0.979 -1.0150  0.0230 -0.1714
 1750TIP3    H126665   3.845   5.685   0.980 -0.4654 -0.9098  2.8760
 1750TIP3    H226666   3.775   5.567   0.916  0.7976 -0.5557  0.8142
 1751TIP3   OH226667   3.161   4.497  12.030  0.5047  0.4967  0.1572
 1751TIP3    H126668   3.076   4.540  12.044  0.2499 -0.9200  3.4135
 1751TIP3    H226669   3.195   4.484  12.118  2.5695 -2.0414 -0.9747
 1752TIP3   OH226670   4.878   3.788  11.268 -0.0317 -0.4014 -0.2951
 1752TIP3    H126671   4.842   3.876  11.282 -2.0342 -1.2651  0.1637
 1752TIP3    H226672   4.806   3.739  11.228  1.1838 -1.7353 -0.8723
 1753TIP3   OH226673   4.597   5.078   2.399 -0.3685  0.3623  0.7362
 1753TIP3    H126674   4.588   5.097   2.306  2.5842 -2.0852 -0.1088
 1753TIP3    H226675   4.525   5.018   2.418  0.2254 -0.7460 -0.4632
 1754TIP3   OH226676   4.298   1.717  16.764  0.6323 -0.3660  0.0410
 1754TIP3    H126677   4.207   1.688  16.754  0.2068  0.5388  1.1287
 1754TIP3    H226678   4.336   1.707  16.677 -1.3189  1.9359 -1.1602
 1755TIP3   OH226679   4.418   4.309  13.105 -0.1689 -0.1054 -0.3809
 1755TIP3    H126680   4.485   4.377  13.113 -1.0266  0.8764 -1.3315
 1755TIP3    H226681   4.375   4.307  13.190 -1.4220  1.9341 -0.9309
 1756TIP3   OH226682   2.558   1.563  12.873 -0.3949 -0.7219 -0.5856
 1756TIP3    H126683   2.486   1.503  12.893 -1.0028 -0.2011 -1.1688
 1756TIP3    H226684   2.622   1.548  12.942 -1.5582 -0.4042  0.5769
 1757TIP3   OH226685   4.715   1.535  14.677 -0.4471  0.0237 -0.3271
 1757TIP3    H126686   4.720   1.455  14.624 -1.6552 -0.7366  0.6724
 1757TIP3    H226687   4.630   1.529  14.720 -0.0681  1.3238  0.6083
 1758TIP3   OH226688   6.024   0.975  15.167 -0.2660  0.3183  0.0867
 1758TIP3    H126689   6.056   1.028  15.240 -0.1478 -2.3250  1.9956
 1758TIP3    H226690   5.969   0.908  15.207  0.2893 -1.5611 -2.1651
 1759TIP3   OH226691   2.929   5.923  15.014 -0.0687  0.2733 -0.8350
 1759TIP3    H126692   2.930   5.996  15.076 -1.8405  0.7666 -1.3474
 1759TIP3    H226693   2.991   5.860  15.050 -1.4006  0.3461  1.7062
 1760TIP3   OH226694   2.883   5.796   5.153 -0.9918  0.0092  0.8658
 1760TIP3    H126695   2.879   5.883   5.192 -1.1280  0.1764  0.4874
 1760TIP3    H226696   2.829   5.802   5.074  1.2361  0.3846 -0.6925
 1761TIP3   OH226697   6.608   3.576   4.036  0.5410  0.7452 -0.8841
 1761TIP3    H126698   6.677   3.525   4.077 -0.5502  0.0468  0.1154
 1761TIP3    H226699   6.604   3.543   3.946  1.6393  0.9474 -1.0156
 1762TIP3   OH226700   5.352   0.946  15.097 -0.2768  0.2525 -0.2094
 1762TIP3    H126701   5.366   0.855  15.124 -0.2004  0.4377  0.3855
 1762TIP3    H226702   5.382   0.997  15.172 -2.0927  0.7252  0.1940
 1763TIP3   OH226703   6.755   6.664   4.066  0.0795 -0.0296 -0.0566
 1763TIP3    H126704   6.668   6.632   4.044 -1.2042  2.8080  0.7237
 1763TIP3    H226705   6.772   6.629   4.154 -0.4779 -0.1529 -0.0000
 1764TIP3   OH226706   4.299   6.324  14.700 -0.0397 -0.5183  0.1845
 1764TIP3    H126707   4.311   6.406  14.651  1.7435  0.1445  1.7029
 1764TIP3    H226708   4.363   6.328  14.771 -2.1064 -1.7916  2.1897
 1765TIP3   OH226709   1.993   4.128   2.840  0.4324 -0.7149 -0.0654
 1765TIP3    H126710   2.058   4.119   2.909  1.0979 -0.7210 -0.6889
 1765TIP3    H226711   1.926   4.063   2.861  0.9284 -1.1241  0.2420
 1766TIP3   OH226712   3.631   3.569   3.227  0.1098  0.2101  0.3236
 1766TIP3    H126713   3.692   3.635   3.261  0.6089  0.1542 -0.4401
 1766TIP3    H226714   3.589   3.612   3.153 -0.8637  0.2824  0.9149
 1767TIP3   OH226715   3.411   5.569  11.197 -0.9423 -0.6353 -0.4884
 1767TIP3    H126716   3.450   5.651  11.227 -1.8486 -0.5075  0.3903
 1767TIP3    H226717   3.483   5.506  11.196 -0.6168 -0.2928  0.7013
 1768TIP3   OH226718   3.555   4.229   3.899  0.1608  0.1695  0.3832
 1768TIP3    H126719   3.522   4.221   3.988  1.3241 -1.4766  0.6736
 1768TIP3    H226720   3.649   4.245   3.909  0.2151  0.4761 -0.5332
 1769TIP3   OH226721   5.321   3.957   4.190 -0.1371  0.1584 -0.6517
 1769TIP3    H126722   5.306   3.975   4.098 -1.9238  0.8784 -0.2464
 1769TIP3    H226723   5.285   3.870   4.204  0.3703 -0.0579 -0.6923
 1770TIP3   OH226724   4.460   4.758   3.834  0.5219 -0.0509 -0.1353
 1770TIP3    H126725   4.432   4.846   3.861  0.2547 -0.3563  0.5881
 1770TIP3    H226726   4.378   4.710   3.823  0.7378 -1.3514  3.3172
 1771TIP3   OH226727   5.085   1.498   4.721  0.4772  0.3810 -0.0731
 1771TIP3    H126728   5.008   1.454   4.756 -1.2678  3.1583 -0.3149
 1771TIP3    H226729   5.083   1.478   4.627  1.4000 -1.4533  0.2609
 1772TIP3   OH226730   1.018   1.831  12.355 -0.1328 -0.4551 -0.3992
 1772TIP3    H126731   0.972   1.801  12.276 -0.3406 -1.6163  0.1549
 1772TIP3    H226732   1.108   1.845  12.326  0.5600 -4.0011 -0.1515
 1773TIP3   OH226733   3.099   2.643  13.835 -0.3439  0.4605 -1.5079
 1773TIP3    H126734   3.040   2.569  13.850  0.2048  0.3909  0.3352
 1773TIP3    H226735   3.052   2.719  13.869 -1.7416  1.3435 -5.1280
 1774TIP3   OH226736   0.519   0.847   0.062 -0.1615 -0.3831  0.7013
 1774TIP3    H126737   0.515   0.751   0.058  0.2002 -0.4938  2.4016
 1774TIP3    H226738   0.610   0.868   0.043  0.0089 -0.4629  1.3971
 1775TIP3   OH226739   4.323   5.785  16.860 -0.4871  0.4368  0.0606
 1775TIP3    H126740   4.338   5.698  16.822 -3.0278 -0.0201  0.0354
 1775TIP3    H226741   4.241   5.776  16.909 -0.7067  2.7897  0.1629
 1776TIP3   OH226742   2.205   2.497  12.191 -0.0614  0.2769  0.7009
 1776TIP3    H126743   2.295   2.490  12.222  0.3085  2.1620  0.1570
 1776TIP3    H226744   2.206   2.575  12.134 -1.5724 -0.8418 -0.8955
 1777TIP3   OH226745   6.239   6.569   3.257 -0.0542  0.1770 -0.2043
 1777TIP3    H126746   6.235   6.650   3.308 -0.6935  0.8817 -1.3316
 1777TIP3    H226747   6.308   6.518   3.298  0.0307  1.0922  0.8234
 1778TIP3   OH226748   3.395   1.896  12.582  0.0892  0.1146  0.6104
 1778TIP3    H126749   3.434   1.907  12.669 -0.5795  1.2384  0.7796
 1778TIP3    H226750   3.348   1.978  12.566  1.7601  0.7065 -1.5956
 1779TIP3   OH226751   4.134   3.434  16.327 -0.1826 -0.4948  0.3104
 1779TIP3    H126752   4.118   3.508  16.385  0.6228 -0.0402 -0.0515
 1779TIP3    H226753   4.151   3.472  16.242  0.6074 -1.0756  0.2039
 1780TIP3   OH226754   1.985   6.741  15.989  0.0201 -0.0746  0.3112
 1780TIP3    H126755   1.952   6.798  15.919  1.8343  1.7099  0.8636
 1780TIP3    H226756   2.057   6.693  15.948  1.1790  1.0765  0.9491
 1781TIP3   OH226757   6.629   4.390   1.673 -0.1427 -0.1379  0.5536
 1781TIP3    H126758   6.709   4.370   1.722  0.5534 -0.2798 -0.6130
 1781TIP3    H226759   6.649   4.363   1.583 -0.8635  1.4893 -0.1150
 1782TIP3   OH226760   5.591   1.213   3.658  0.2449 -0.1670 -0.1098
 1782TIP3    H126761   5.600   1.271   3.734 -0.8547 -0.3726  0.1905
 1782TIP3    H226762   5.574   1.127   3.696 -0.4278 -0.2483 -0.5752
 1783TIP3   OH226763   4.258   1.078  16.479  0.7261  0.1114  0.0031
 1783TIP3    H126764   4.305   0.997  16.500  0.1988 -0.3868 -0.6829
 1783TIP3    H226765   4.167   1.059  16.501  0.4067  0.0931 -1.2542
 1784TIP3   OH226766   3.630   1.224   1.367  0.2449 -0.1819  0.1496
 1784TIP3    H126767   3.664   1.135   1.371  0.9886  0.1132  0.7936
 1784TIP3    H226768   3.565   1.223   1.297  1.8435 -0.6901 -1.3574
 1785TIP3   OH226769   6.481   2.156  16.896 -0.4544 -0.2614  0.0191
 1785TIP3    H126770   6.437   2.072  16.903 -0.0876 -0.4073  0.5931
 1785TIP3    H226771   6.444   2.208  16.968 -0.9074  0.1756 -0.5266
 1786TIP3   OH226772   2.796   4.597  16.631 -0.2239  0.1068  0.0723
 1786TIP3    H126773   2.755   4.605  16.545 -0.1711 -0.8086 -0.0437
 1786TIP3    H226774   2.890   4.604  16.612 -0.1642 -1.0342 -0.0627
 1787TIP3   OH226775   0.529   4.578   1.059  0.8917 -0.0171 -0.8114
 1787TIP3    H126776   0.513   4.620   1.144  1.1772  0.7997 -1.1640
 1787TIP3    H226777   0.498   4.488   1.071 -0.2049  0.4325 -0.2111
 1788TIP3   OH226778   3.178   0.190   6.471  0.4827  0.6000  0.0964
 1788TIP3    H126779   3.201   0.270   6.518  0.2335  2.3576 -2.6499
 1788TIP3    H226780   3.088   0.172   6.499  0.8466  0.7375  1.4164
 1789TIP3   OH226781   3.451   4.415   0.757 -0.7637 -0.0377 -0.2265
 1789TIP3    H126782   3.532   4.420   0.706  0.0266 -0.8483  0.9308
 1789TIP3    H226783   3.418   4.505   0.760  2.1876  1.0295  2.6708
 1790TIP3   OH226784   6.181   3.154   0.358  0.1648 -0.3433  1.0145
 1790TIP3    H126785   6.251   3.107   0.313  0.5398 -0.0798  1.3179
 1790TIP3    H226786   6.155   3.095   0.430  0.8126  0.0230  1.5512
 1791TIP3   OH226787   3.127   2.828  15.677 -0.0912 -0.1002  0.0308
 1791TIP3    H126788   3.122   2.901  15.615 -0.9641  0.2622  0.5200
 1791TIP3    H226789   3.037   2.799  15.689  0.3708 -2.1321 -1.1548
 1792TIP3   OH226790   3.620   2.578  15.586  0.7367 -0.5367  0.1661
 1792TIP3    H126791   3.715   2.578  15.601  0.8653 -1.9477 -0.5686
 1792TIP3    H226792   3.611   2.594  15.492  0.2494 -0.5699  0.2081
 1793TIP3   OH226793   6.253   2.717  14.941  0.4763 -0.1063 -0.7031
 1793TIP3    H126794   6.293   2.804  14.949 -0.3994  0.2190  0.2235
 1793TIP3    H226795   6.236   2.691  15.031  0.1853 -0.9900 -1.0152
 1794TIP3   OH226796   6.433   1.954   4.938 -0.0342  0.0910  0.2875
 1794TIP3    H126797   6.422   2.011   4.862 -0.1175  0.2742  0.4385
 1794TIP3    H226798   6.388   1.873   4.913 -1.1108  0.5846  0.6221
 1795TIP3   OH226799   6.735   2.495   3.881 -0.1947  0.8640 -0.3114
 1795TIP3    H126800   6.702   2.584   3.891  0.5783  1.0695  0.4910
 1795TIP3    H226801   6.803   2.487   3.948 -1.3702 -0.8539  0.7425
 1796TIP3   OH226802   0.338   0.828  10.526  0.2633 -0.4645  0.5439
 1796TIP3    H126803   0.334   0.924  10.527 -1.3573 -0.3707 -3.7519
 1796TIP3    H226804   0.253   0.801  10.491 -0.0310 -3.6214  3.4287
 1797TIP3   OH226805   2.675   4.041  15.109  0.6309  0.3174 -0.5746
 1797TIP3    H126806   2.613   4.113  15.102  0.5217  0.2746 -0.0273
 1797TIP3    H226807   2.625   3.964  15.080  0.6998  0.4339 -1.0023
 1798TIP3   OH226808   0.926   3.074   2.383  0.0656  0.1328  0.3545
 1798TIP3    H126809   0.901   3.005   2.322 -0.1764  0.0771  0.5142
 1798TIP3    H226810   1.019   3.060   2.399 -0.3885 -1.2655  1.7988
 1799TIP3   OH226811   4.670   6.440  12.739  0.3262 -0.5825  0.2675
 1799TIP3    H126812   4.628   6.507  12.794  0.6528  0.2675 -0.5128
 1799TIP3    H226813   4.609   6.367  12.741 -0.5929  0.1652  0.1902
 1800TIP3   OH226814   0.648   0.799   0.352 -0.0191 -0.0952 -0.0719
 1800TIP3    H126815   0.564   0.803   0.398 -0.0960 -0.9946 -0.1198
 1800TIP3    H226816   0.683   0.888   0.359 -0.1732 -0.1390  1.4426
 1801TIP3   OH226817   3.120   2.835   2.513  0.4027 -0.3131  0.7125
 1801TIP3    H126818   3.035   2.879   2.502  1.5725  1.9127  0.1564
 1801TIP3    H226819   3.152   2.823   2.424  1.7792  1.1817  0.9794
 1802TIP3   OH226820   2.115   4.714  13.864 -0.5492  0.0811 -0.2965
 1802TIP3    H126821   2.116   4.705  13.769 -2.5411  0.0780 -0.3476
 1802TIP3    H226822   2.053   4.784  13.881 -1.9365 -1.4250  1.0822
 1803TIP3   OH226823   1.546   1.827  11.130 -0.2852 -0.1574  0.5240
 1803TIP3    H126824   1.579   1.837  11.041 -1.6119  3.2115  0.3469
 1803TIP3    H226825   1.625   1.815  11.183  0.6777 -0.0417 -0.8469
 1804TIP3   OH226826   3.040   2.657   0.416  0.4864 -0.8018 -0.0671
 1804TIP3    H126827   3.063   2.730   0.474  0.0081 -0.2877 -0.5147
 1804TIP3    H226828   3.087   2.675   0.334 -1.7128  0.4387 -1.1111
 1805TIP3   OH226829   2.410   6.549   0.137 -0.8620 -0.1225 -0.3264
 1805TIP3    H126830   2.405   6.531   0.230 -1.4235 -2.3369 -0.7512
 1805TIP3    H226831   2.341   6.613   0.121 -0.7272  0.3000  0.7956
 1806TIP3   OH226832   0.020   0.254  11.205  0.2758  0.3355 -0.4427
 1806TIP3    H126833  -0.020   0.231  11.121 -0.6414 -0.1374  0.1159
 1806TIP3    H226834  -0.031   0.328  11.236 -0.2222 -0.3120  0.3046
 1807TIP3   OH226835   6.247   3.159  11.794 -0.5595  0.0102  0.1835
 1807TIP3    H126836   6.188   3.216  11.743 -0.7829 -1.3622 -1.1462
 1807TIP3    H226837   6.211   3.160  11.882 -1.0011  1.3237  0.0046
 1808TIP3   OH226838   6.618   1.579  11.455  0.3522 -0.3585 -0.4225
 1808TIP3    H126839   6.607   1.525  11.377  1.0432 -3.6607  1.6746
 1808TIP3    H226840   6.712   1.573  11.476  0.2409  0.7678  0.4781
 1809TIP3   OH226841   4.598   0.929  15.071 -0.3092  0.4292 -0.2092
 1809TIP3    H126842   4.545   0.850  15.086  1.8764 -0.8515  1.1564
 1809TIP3    H226843   4.631   0.918  14.982  0.3150 -0.4128  0.1196
 1810TIP3   OH226844   4.650   4.712  15.398 -0.5862  0.0915  0.0426
 1810TIP3    H126845   4.714   4.666  15.344 -0.3081 -1.5792  1.7586
 1810TIP3    H226846   4.574   4.653  15.400 -2.0863  1.8928 -1.6909
 1811TIP3   OH226847   4.102   0.136   5.816 -0.1279  0.5268 -0.2230
 1811TIP3    H126848   4.138   0.047   5.819 -0.2235  0.5276  1.1767
 1811TIP3    H226849   4.050   0.138   5.735  0.5747 -0.4137 -0.7097
 1812TIP3   OH226850   1.453   5.032   0.713 -0.5095  0.2866  0.5272
 1812TIP3    H126851   1.362   5.035   0.684 -0.5788 -0.0001  0.7114
 1812TIP3    H226852   1.504   5.021   0.632 -0.8537 -2.9614  0.6595
 1813TIP3   OH226853   5.184   1.557  14.838  0.1220 -0.0572 -0.6423
 1813TIP3    H126854   5.128   1.630  14.863  0.9345 -0.2363  1.9125
 1813TIP3    H226855   5.129   1.479  14.849  0.9836 -0.2900  2.5021
 1814TIP3   OH226856   6.670   4.247   1.279  0.5281  0.2978  0.2391
 1814TIP3    H126857   6.735   4.178   1.294  0.0375  0.0491  1.2652
 1814TIP3    H226858   6.660   4.250   1.184 -0.0657 -1.6393  0.2158
 1815TIP3   OH226859   5.982   1.629   6.442  0.1630 -0.5713 -0.1234
 1815TIP3    H126860   5.932   1.650   6.363  1.2821  0.7416 -0.5067
 1815TIP3    H226861   5.919   1.586   6.500 -0.9369 -0.5846 -1.3050
 1816TIP3   OH226862   5.650   2.816   3.772  0.3466 -0.6196 -0.8119
 1816TIP3    H126863   5.565   2.797   3.812  0.9763  0.0946  0.9329
 1816TIP3    H226864   5.661   2.911   3.784  1.9917 -0.9265  0.2138
 1817TIP3   OH226865   6.231   5.942   5.472  0.4903 -0.8464 -0.3520
 1817TIP3    H126866   6.277   6.025   5.465 -2.1204  0.6331 -0.3799
 1817TIP3    H226867   6.217   5.930   5.566  0.2068 -0.8943 -0.4010
 1818TIP3   OH226868   1.441   4.847  14.059  0.1685 -0.1055 -0.3331
 1818TIP3    H126869   1.405   4.839  13.971  2.0183 -1.7920 -0.9766
 1818TIP3    H226870   1.506   4.917  14.053 -1.5772  1.6267  0.3727
 1819TIP3   OH226871   2.294   5.506   4.539  0.2816  0.4120 -0.2276
 1819TIP3    H126872   2.258   5.585   4.579 -0.3101  0.7973 -1.5146
 1819TIP3    H226873   2.361   5.477   4.600  0.8185  2.1577  0.0277
 1820TIP3   OH226874   1.476   1.240   2.492  1.0078  0.2776  0.1120
 1820TIP3    H126875   1.503   1.149   2.500  1.3136  0.1059 -2.4497
 1820TIP3    H226876   1.381   1.239   2.504  0.9941 -0.4073 -0.0496
 1821TIP3   OH226877   0.115   5.639   2.902 -0.3718  0.0508 -0.5405
 1821TIP3    H126878   0.096   5.612   2.812 -0.1536 -1.1632 -0.2222
 1821TIP3    H226879   0.037   5.613   2.952 -0.2028  0.0914 -0.2521
 1822TIP3   OH226880   2.572   4.197   4.203  0.0789  0.4470  0.2875
 1822TIP3    H126881   2.588   4.167   4.293 -1.2117  0.5471  0.5514
 1822TIP3    H226882   2.484   4.167   4.183  1.9918 -3.6724 -2.6303
 1823TIP3   OH226883   2.768   6.510  14.132  0.3294 -0.4227  0.7194
 1823TIP3    H126884   2.771   6.601  14.102 -0.1721 -0.6612 -0.0742
 1823TIP3    H226885   2.842   6.468  14.087  0.8622 -0.2992  1.4688
 1824TIP3   OH226886   0.354   0.454   2.642 -0.1970 -0.1926 -0.3102
 1824TIP3    H126887   0.351   0.406   2.559 -1.0183 -1.4198  0.4181
 1824TIP3    H226888   0.275   0.507   2.642 -0.3135 -0.3649 -0.2155
 1825TIP3   OH226889   5.534   0.908  11.912  0.4865  0.3670 -0.0773
 1825TIP3    H126890   5.575   0.880  11.830  1.9295  0.3400  0.6331
 1825TIP3    H226891   5.539   1.003  11.910  2.2140  0.3177  0.7958
 1826TIP3   OH226892   4.846   1.482  16.422 -0.1191 -0.0308  0.5663
 1826TIP3    H126893   4.785   1.410  16.438 -0.5284  0.0064 -0.8021
 1826TIP3    H226894   4.807   1.557  16.468 -0.4759 -0.2998  0.7044
 1827TIP3   OH226895   2.216   0.521   2.112  0.1304 -0.6122 -0.4042
 1827TIP3    H126896   2.243   0.611   2.096 -0.1838 -0.6140 -0.9586
 1827TIP3    H226897   2.297   0.475   2.134  0.6318 -0.6853 -2.3432
 1828TIP3   OH226898   5.192   4.656   4.413 -0.1068 -0.2876 -0.2610
 1828TIP3    H126899   5.206   4.638   4.506 -0.0044  1.6605  0.1148
 1828TIP3    H226900   5.102   4.629   4.397 -0.3857  0.1140  0.5935
 1829TIP3   OH226901   0.775   4.450  14.473 -0.8006  0.9627  0.5051
 1829TIP3    H126902   0.840   4.413  14.413 -0.0933  1.3547  1.0285
 1829TIP3    H226903   0.691   4.426  14.435 -0.3783 -2.0848  1.3270
 1830TIP3   OH226904   3.358   0.602   5.104  0.6677 -0.5718 -0.3754
 1830TIP3    H126905   3.364   0.697   5.094  0.5691 -0.4651  0.5636
 1830TIP3    H226906   3.413   0.567   5.034 -0.3193  0.1472 -1.5317
 1831TIP3   OH226907   2.236   0.869  16.271  0.1825  0.2654  0.1496
 1831TIP3    H126908   2.278   0.929  16.209  0.6894 -0.1828  0.0508
 1831TIP3    H226909   2.283   0.787  16.259  0.0172  0.0681  0.8516
 1832TIP3   OH226910   0.295   5.568   3.245  0.0905  0.4731 -0.0525
 1832TIP3    H126911   0.266   5.494   3.299  0.0552 -1.3176 -2.3987
 1832TIP3    H226912   0.214   5.608   3.214  0.0241 -1.9203 -3.1811
 1833TIP3   OH226913   2.759   5.287   1.303  0.2168  0.0188  0.5230
 1833TIP3    H126914   2.664   5.288   1.315  0.3373  0.5210  1.4894
 1833TIP3    H226915   2.781   5.195   1.291 -0.4691 -0.0362 -0.3278
 1834TIP3   OH226916   3.770   4.094   4.467 -0.0980 -0.1268 -0.3636
 1834TIP3    H126917   3.714   4.171   4.458 -0.0009  0.1890  1.6862
 1834TIP3    H226918   3.849   4.126   4.509  0.8938 -0.9336 -1.5673
 1835TIP3   OH226919   6.703   0.117  16.358  0.1699 -0.3710  0.0741
 1835TIP3    H126920   6.635   0.179  16.384  1.2750  1.3452 -1.0474
 1835TIP3    H226921   6.718   0.135  16.265 -0.1729 -2.9807 -0.5448
 1836TIP3   OH226922   2.191   4.623   2.515 -0.6316  0.2111  0.8631
 1836TIP3    H126923   2.156   4.584   2.434 -0.2157  1.7879 -0.0913
 1836TIP3    H226924   2.113   4.645   2.566 -1.0293  2.1921 -0.5392
 1837TIP3   OH226925   6.766   5.704   2.114 -0.0806 -0.9209 -0.1620
 1837TIP3    H126926   6.681   5.743   2.094  1.0427  1.5126 -0.3459
 1837TIP3    H226927   6.771   5.705   2.209  0.5525  0.8159 -0.1903
 1838TIP3   OH226928   3.862   5.670  12.136  0.1965 -0.2763 -0.3748
 1838TIP3    H126929   3.822   5.684  12.222  0.6293  2.9824 -0.6221
 1838TIP3    H226930   3.956   5.667  12.153  0.3697  1.7569 -0.8460
 1839TIP3   OH226931   1.999   2.561   6.298  0.0433 -0.1661 -0.5042
 1839TIP3    H126932   1.944   2.488   6.326 -0.3361  0.5898  0.7860
 1839TIP3    H226933   2.021   2.541   6.207  0.7508 -2.3605  0.1222
 1840TIP3   OH226934   5.842   5.554   0.321  0.1590  0.6362  0.1722
 1840TIP3    H126935   5.916   5.553   0.382  0.3470 -2.1296 -0.0501
 1840TIP3    H226936   5.879   5.584   0.238  0.9645 -0.4194  0.1484
 1841TIP3   OH226937   3.773   4.878  12.487  0.1148 -0.2392  0.1315
 1841TIP3    H126938   3.779   4.970  12.515  0.5189  0.0434 -0.8856
 1841TIP3    H226939   3.863   4.846  12.493  0.1456 -0.2720 -0.5371
 1842TIP3   OH226940   4.251   0.998   3.214 -0.1954  0.2006 -0.3536
 1842TIP3    H126941   4.196   1.037   3.282  0.9228 -0.4987  0.9738
 1842TIP3    H226942   4.189   0.967   3.148 -1.2536  1.5373 -0.0243
 1843TIP3   OH226943   1.646   1.607  15.828 -0.2131  0.3816  0.1125
 1843TIP3    H126944   1.653   1.588  15.734 -3.5198  2.2181 -0.5908
 1843TIP3    H226945   1.651   1.703  15.833  1.4269  0.2316  2.0214
 1844TIP3   OH226946   2.653   2.071   3.049 -0.3359  0.5648  1.3122
 1844TIP3    H126947   2.647   2.154   3.001  0.4277  0.4215  0.9669
 1844TIP3    H226948   2.719   2.087   3.115  1.1624 -0.3479  0.0608
 1845TIP3   OH226949   5.885   4.517   5.214 -0.3551 -0.3123  0.3019
 1845TIP3    H126950   5.917   4.514   5.123 -0.5109 -0.2371  0.2443
 1845TIP3    H226951   5.965   4.513   5.267 -0.1871  0.9383  0.1505
 1846TIP3   OH226952   0.935   4.955  17.090 -0.6645  0.4464  0.4129
 1846TIP3    H126953   0.881   4.887  17.050 -0.0340 -0.4469  1.0760
 1846TIP3    H226954   1.025   4.926  17.078 -0.4044  0.9956  0.9879
 1847TIP3   OH226955   2.711   6.051  12.056 -0.2222 -0.2650 -0.0971
 1847TIP3    H126956   2.692   5.989  12.127  2.4262 -0.5818  0.3907
 1847TIP3    H226957   2.691   6.002  11.976 -0.2695 -0.9820  0.3423
 1848TIP3   OH226958   3.437   6.183  11.923 -0.0546  0.6975 -0.0097
 1848TIP3    H126959   3.399   6.173  11.835  0.8759 -0.7576 -0.2712
 1848TIP3    H226960   3.365   6.161  11.982  0.1115 -1.2455 -0.4853
 1849TIP3   OH226961   4.660   0.974  10.938 -0.1661 -0.0035  0.3292
 1849TIP3    H126962   4.730   1.033  10.966  0.9365 -0.5303 -1.2728
 1849TIP3    H226963   4.695   0.887  10.952 -0.7178 -0.2700  0.0580
 1850TIP3   OH226964   6.078   6.528   1.240 -0.0254 -0.0810 -0.0623
 1850TIP3    H126965   6.163   6.570   1.250  0.3480 -0.9913  0.6760
 1850TIP3    H226966   6.096   6.453   1.183 -0.6915  0.7662 -1.4084
 1851TIP3   OH226967   3.875   5.227   0.897 -0.5043 -0.1505 -0.2230
 1851TIP3    H126968   3.808   5.295   0.893  0.8403  1.1720 -0.8150
 1851TIP3    H226969   3.954   5.273   0.926 -0.2313 -1.9982  2.0642
 1852TIP3   OH226970   3.483   5.185   2.616  0.0278  0.2624 -0.0464
 1852TIP3    H126971   3.392   5.204   2.595  0.2995  0.3881 -1.1501
 1852TIP3    H226972   3.534   5.246   2.562  0.7854 -0.2734  0.0460
 1853TIP3   OH226973   2.231   2.773  13.349 -0.3642  0.1092  0.2116
 1853TIP3    H126974   2.322   2.746  13.360 -0.8112 -1.3571  0.3967
 1853TIP3    H226975   2.228   2.863  13.383  1.5285  1.0772 -2.0491
 1854TIP3   OH226976   5.117   2.814  13.045 -0.0490 -0.4433 -0.2521
 1854TIP3    H126977   5.030   2.775  13.043 -0.3164  0.1044  0.6328
 1854TIP3    H226978   5.173   2.746  13.083 -0.2878 -0.3970  0.1773
 1855TIP3   OH226979   0.556   0.032  12.558  0.3323  0.2106 -0.6147
 1855TIP3    H126980   0.523   0.121  12.565 -0.9329 -0.3085  0.1384
 1855TIP3    H226981   0.627   0.038  12.493 -1.7423  1.2009 -2.8811
 1856TIP3   OH226982   5.226   1.839   2.624  0.2113  0.1449 -0.2638
 1856TIP3    H126983   5.230   1.914   2.683 -0.6875  1.0335 -1.3303
 1856TIP3    H226984   5.247   1.764   2.680  0.3799  1.0896  0.9627
 1857TIP3   OH226985   6.063   5.341  10.942 -0.0657 -0.4396 -0.4010
 1857TIP3    H126986   6.056   5.342  11.037 -0.0776 -0.6513 -0.3992
 1857TIP3    H226987   6.157   5.351  10.925 -0.1595  0.5318 -0.3839
 1858TIP3   OH226988   4.047   5.119  12.308 -0.5935  0.4722 -0.6760
 1858TIP3    H126989   4.022   5.176  12.236  0.1866  1.2051 -0.3809
 1858TIP3    H226990   4.039   5.174  12.386 -0.8678 -0.1425 -0.2664
 1859TIP3   OH226991   0.360   4.461  15.037 -0.1845  0.6267  0.1329
 1859TIP3    H126992   0.345   4.511  14.957  1.6527  0.0340 -0.6095
 1859TIP3    H226993   0.455   4.456  15.045 -0.3171 -2.0278  0.6110
 1860TIP3   OH226994   4.475   3.893  12.029 -0.3705 -0.7186  0.1226
 1860TIP3    H126995   4.503   3.903  12.120 -2.2638  2.7074  0.4535
 1860TIP3    H226996   4.548   3.926  11.977 -1.0863  1.8477  0.6738
 1861TIP3   OH226997   3.881   6.593   5.088 -0.3837  0.5934 -0.2339
 1861TIP3    H126998   3.867   6.591   5.183  2.4341 -0.1512  0.2247
 1861TIP3    H226999   3.872   6.502   5.060 -2.3985  0.9721 -0.9170
 1862TIP3   OH227000   3.203   1.545  11.714 -0.7635  0.1951  0.5090
 1862TIP3    H127001   3.169   1.488  11.645  0.1342 -0.1956  0.3813
 1862TIP3    H227002   3.148   1.526  11.790  0.6070 -2.1413  0.9764
 1863TIP3   OH227003   1.731   5.146  15.506  0.4585  0.3967 -0.1421
 1863TIP3    H127004   1.716   5.235  15.473  0.1884  0.1607 -0.6627
 1863TIP3    H227005   1.739   5.157  15.601  0.0972  0.9363 -0.1696
 1864TIP3   OH227006   4.298   4.420   5.565  0.2818  0.3100  0.2811
 1864TIP3    H127007   4.300   4.387   5.475  2.9487 -1.0610  0.7796
 1864TIP3    H227008   4.218   4.382   5.602  1.0529 -2.1953 -0.4604
 1865TIP3   OH227009   3.554   1.183   3.199 -0.1951  0.0403  0.3509
 1865TIP3    H127010   3.537   1.270   3.235 -0.1729  0.7181 -1.2573
 1865TIP3    H227011   3.515   1.123   3.263  0.4462  1.1907  1.8424
 1866TIP3   OH227012   4.402   4.416  16.318  0.1166  0.3326  0.6333
 1866TIP3    H127013   4.474   4.427  16.256 -0.6516  1.0728 -0.1464
 1866TIP3    H227014   4.424   4.474  16.391 -0.1606  1.2726 -0.0312
 1867TIP3   OH227015   0.328   1.157  13.147 -0.1324  0.1386 -0.6705
 1867TIP3    H127016   0.403   1.108  13.115  0.0055  0.3394 -0.6552
 1867TIP3    H227017   0.361   1.246  13.161 -0.1832  0.0551  0.0394
 1868TIP3   OH227018   5.976   0.465  10.520  0.1445 -0.1804 -0.1780
 1868TIP3    H127019   5.930   0.501  10.444 -0.9440  0.4700  0.7622
 1868TIP3    H227020   6.050   0.525  10.534  0.1325 -0.0909 -0.5043
 1869TIP3   OH227021   2.099   2.092   3.118  0.2530 -0.4350 -0.0304
 1869TIP3    H127022   2.165   2.082   3.187  0.1079 -4.6043 -0.3449
 1869TIP3    H227023   2.019   2.059   3.157 -1.0844  2.0789 -0.5503
 1870TIP3   OH227024   1.325   5.346  13.670  0.1527  0.1518  0.3781
 1870TIP3    H127025   1.291   5.265  13.708  2.0635 -0.7582  0.1983
 1870TIP3    H227026   1.290   5.415  13.726 -0.8041 -0.8425  1.0343
 1871TIP3   OH227027   5.770   2.647  11.296 -0.0227  0.4783 -0.0500
 1871TIP3    H127028   5.816   2.596  11.364  0.6317  0.6036 -0.3976
 1871TIP3    H227029   5.691   2.678  11.340  1.1090  1.7880  1.1116
 1872TIP3   OH227030   0.396   6.328   4.792  0.1858  0.1740  0.4202
 1872TIP3    H127031   0.333   6.350   4.723  1.3497  0.7543 -0.4693
 1872TIP3    H227032   0.421   6.238   4.773  0.5618  0.3577  0.0282
 1873TIP3   OH227033   3.657   4.364  12.351 -0.2588 -0.3142 -0.0930
 1873TIP3    H127034   3.752   4.356  12.346 -0.0564 -0.3033  3.1274
 1873TIP3    H227035   3.633   4.410  12.270  2.3467 -1.0343 -1.3451
 1874TIP3   OH227036   1.791   0.899  16.049 -0.7372 -1.2864  0.0997
 1874TIP3    H127037   1.769   0.850  15.970 -0.5418 -0.5364 -0.4230
 1874TIP3    H227038   1.850   0.842  16.097  0.6776 -0.9527 -1.2213
 1875TIP3   OH227039   5.183   3.886   3.021  0.5471 -0.8484  0.1895
 1875TIP3    H127040   5.185   3.906   2.928 -1.3540 -0.9622  0.1115
 1875TIP3    H227041   5.135   3.803   3.027  0.3040 -0.6432  1.2916
 1876TIP3   OH227042   6.520   6.158  13.801  0.3787 -0.1278 -0.1323
 1876TIP3    H127043   6.607   6.180  13.833 -0.0106  1.5776 -0.2167
 1876TIP3    H227044   6.476   6.117  13.876  1.0072 -0.3476  0.1151
 1877TIP3   OH227045   5.335   3.203   4.264 -0.1299  0.1038 -0.0158
 1877TIP3    H127046   5.264   3.233   4.320 -1.4841  0.4073 -1.8302
 1877TIP3    H227047   5.299   3.127   4.217  1.2105 -0.6008  0.0659
 1878TIP3   OH227048   1.238   5.665   2.129 -0.1131 -0.2662 -0.4848
 1878TIP3    H127049   1.148   5.675   2.160  0.9853  0.4101  2.6744
 1878TIP3    H227050   1.270   5.755   2.120  0.7081 -0.5267 -0.1793
 1879TIP3   OH227051   5.804   5.109  12.278  0.0095 -0.0123  0.6991
 1879TIP3    H127052   5.794   5.163  12.356  0.6996  1.8761 -0.4623
 1879TIP3    H227053   5.869   5.044  12.301 -3.0351 -2.3588  3.1442
 1880TIP3   OH227054   4.333   5.937   2.765  0.2338  0.5787 -0.2449
 1880TIP3    H127055   4.243   5.967   2.775  0.2305  0.1223  1.2395
 1880TIP3    H227056   4.330   5.844   2.788  1.3283  0.8798  1.1462
 1881TIP3   OH227057   4.951   1.410  11.593  0.0186  0.3288  0.2924
 1881TIP3    H127058   4.934   1.490  11.543  0.3479  0.4824  0.4276
 1881TIP3    H227059   5.046   1.400  11.590 -0.1558 -1.1327 -1.4184
 1882TIP3   OH227060   3.807   1.230  11.766  0.8765  0.3699  0.1533
 1882TIP3    H127061   3.858   1.161  11.807  1.1474  1.7738  2.2294
 1882TIP3    H227062   3.733   1.185  11.726  1.5261 -1.2127  0.7004
 1883TIP3   OH227063   3.497   4.688   0.371  0.5314  0.4314 -0.0230
 1883TIP3    H127064   3.415   4.737   0.359  0.1214 -0.2289  0.0581
 1883TIP3    H227065   3.533   4.679   0.283 -0.5989 -1.1954 -0.3308
 1884TIP3   OH227066   1.732   4.435   3.445 -0.5321  0.4383 -0.2097
 1884TIP3    H127067   1.703   4.521   3.477 -1.2146  0.0984  0.1058
 1884TIP3    H227068   1.651   4.390   3.421 -0.1519  0.0036 -0.6856
 1885TIP3   OH227069   6.041   4.432   2.613  0.7989  0.4278  0.0308
 1885TIP3    H127070   5.981   4.505   2.625 -0.2914 -0.2133 -1.3666
 1885TIP3    H227071   6.126   4.473   2.600  0.3045  1.4372 -0.0967
 1886TIP3   OH227072   3.209   4.535  12.856  0.1911 -0.0215  0.3126
 1886TIP3    H127073   3.278   4.583  12.903  1.6195 -0.9983 -0.7481
 1886TIP3    H227074   3.241   4.445  12.853  0.0193 -0.0250 -2.2935
 1887TIP3   OH227075   2.590   5.610  15.485  0.5761  0.3065  0.3932
 1887TIP3    H127076   2.656   5.638  15.548  1.4222  2.2900 -1.3056
 1887TIP3    H227077   2.626   5.531  15.446  0.1828 -0.7579  2.1642
 1888TIP3   OH227078   6.099   1.293   4.617  0.0497  0.2554  0.3613
 1888TIP3    H127079   6.005   1.275   4.619 -0.0871  0.8491 -0.5220
 1888TIP3    H227080   6.139   1.213   4.585 -0.0321 -0.4449  1.9536
 1889TIP3   OH227081   6.576   0.870  15.742  0.4109  0.8768 -0.3062
 1889TIP3    H127082   6.548   0.846  15.831 -0.3574 -0.9409 -1.0281
 1889TIP3    H227083   6.671   0.877  15.749  0.6013 -1.7684  0.0957
 1890TIP3   OH227084   0.805   4.880   1.934 -0.1608  0.1283  0.2687
 1890TIP3    H127085   0.784   4.888   2.026 -2.7601 -0.1163 -0.2656
 1890TIP3    H227086   0.786   4.788   1.913 -0.5399  0.4188 -0.7188
 1891TIP3   OH227087   3.394   1.364   0.305  0.6639  0.1002 -0.2511
 1891TIP3    H127088   3.370   1.444   0.258  0.0731 -0.0858 -0.2640
 1891TIP3    H227089   3.359   1.293   0.251 -0.1593 -0.1107  0.5609
 1892TIP3   OH227090   5.518   6.458  11.114  0.3997  0.8351 -0.4806
 1892TIP3    H127091   5.434   6.454  11.067  0.6596  2.2140 -1.0721
 1892TIP3    H227092   5.498   6.506  11.194  0.3146 -0.1054  0.0699
 1893TIP3   OH227093   5.596   4.448   4.029 -0.0814  0.6925 -0.5577
 1893TIP3    H127094   5.577   4.485   3.942  1.4203 -0.7028 -1.4974
 1893TIP3    H227095   5.511   4.416   4.059 -0.7155  1.6447 -1.2807
 1894TIP3   OH227096   1.054   0.145   1.357  0.7331 -0.1010 -0.3375
 1894TIP3    H127097   0.983   0.090   1.324 -0.5068  1.1267  0.2425
 1894TIP3    H227098   1.123   0.083   1.381 -1.0768 -1.5218  1.3511
 1895TIP3   OH227099   3.874   4.962  14.239 -0.4165 -0.1658  0.2325
 1895TIP3    H127100   3.823   4.888  14.206  0.3847 -1.2528  1.3727
 1895TIP3    H227101   3.965   4.931  14.238  0.3162  1.8648 -2.1052
 1896TIP3   OH227102   4.502   3.929   3.065 -0.2388  0.0270 -0.0503
 1896TIP3    H127103   4.466   4.006   3.021 -1.7552  0.4221  1.8233
 1896TIP3    H227104   4.544   3.963   3.144  1.7722 -0.7562 -0.7410
 1897TIP3   OH227105   4.976   3.250   4.692  0.4444 -0.5942  0.0864
 1897TIP3    H127106   4.904   3.278   4.749 -1.3939 -1.4698 -1.7075
 1897TIP3    H227107   5.001   3.164   4.725  0.8613 -0.1716  0.8834
 1898TIP3   OH227108   1.131   5.473   5.050  0.2723  0.0185 -0.0684
 1898TIP3    H127109   1.129   5.411   5.122 -1.5326  0.1562  0.0173
 1898TIP3    H227110   1.224   5.487   5.033  0.7111 -0.5885  1.7291
 1899TIP3   OH227111   4.117   6.519   0.076 -0.1347 -0.0006 -0.2589
 1899TIP3    H127112   4.120   6.558   0.163  3.0107 -3.0320  1.1324
 1899TIP3    H227113   4.049   6.452   0.082  0.2553 -0.3824 -0.0049
 1900TIP3   OH227114   1.064   4.401   2.767  0.5212  0.0662  0.1912
 1900TIP3    H127115   1.069   4.424   2.859  1.8983  2.3276 -0.3955
 1900TIP3    H227116   1.155   4.384   2.742  0.2243  0.0322 -0.8938
 1901TIP3   OH227117   3.206   2.146   3.960 -0.3328  0.0098 -0.4750
 1901TIP3    H127118   3.162   2.215   4.009 -2.4273 -0.6457 -1.4011
 1901TIP3    H227119   3.245   2.191   3.885 -0.1070  0.4717 -0.0823
 1902TIP3   OH227120   5.698   4.105  13.599 -0.3041 -0.2199  0.3850
 1902TIP3    H127121   5.792   4.088  13.610  0.3076  0.7884 -2.6379
 1902TIP3    H227122   5.671   4.045  13.530 -2.0810 -0.9970  1.7250
 1903TIP3   OH227123   5.824   0.098  14.381  0.0649 -0.2666  0.3581
 1903TIP3    H127124   5.810   0.078  14.473  0.3649 -2.3769 -0.0303
 1903TIP3    H227125   5.916   0.079  14.366  0.0585  0.2279 -0.3547
 1904TIP3   OH227126   5.722   5.796  13.968 -0.2572 -0.0572 -0.4575
 1904TIP3    H127127   5.701   5.773  14.058 -0.1382 -0.8969 -0.6303
 1904TIP3    H227128   5.649   5.760  13.917 -1.2087  1.9608 -0.5384
 1905TIP3   OH227129   1.851   5.283  16.005  0.0343 -0.1862 -0.5352
 1905TIP3    H127130   1.878   5.375  16.011  0.4723 -0.4479  2.1390
 1905TIP3    H227131   1.764   5.281  16.045  0.4540 -1.0994  0.3443
 1906TIP3   OH227132   6.116   5.676  17.055 -0.8827 -0.4007  0.4947
 1906TIP3    H127133   6.198   5.708  17.018 -0.3019  0.4039  2.3854
 1906TIP3    H227134   6.068   5.640  16.981 -1.3447  4.3725 -1.7046
 1907TIP3   OH227135   3.377   5.562  13.729 -0.0475  0.0239 -0.2783
 1907TIP3    H127136   3.348   5.494  13.790  1.7442 -1.1570 -0.6992
 1907TIP3    H227137   3.470   5.543  13.714 -0.2095  0.8659 -2.6183
 1908TIP3   OH227138   4.096   3.622  12.522 -0.3284 -0.4168 -0.1785
 1908TIP3    H127139   4.126   3.669  12.599  0.6804 -0.1632 -0.7162
 1908TIP3    H227140   4.037   3.555  12.556 -1.9536  1.3355  0.5959
 1909TIP3   OH227141   4.713   3.499   5.832 -0.0868 -0.2210 -0.0294
 1909TIP3    H127142   4.798   3.456   5.844  1.9852  3.4095 -1.0265
 1909TIP3    H227143   4.691   3.530   5.920  1.8013  2.5511 -0.4501
 1910TIP3   OH227144   2.861   2.602   5.408 -0.3069  0.9784 -0.4428
 1910TIP3    H127145   2.853   2.508   5.392  0.0764  0.8101  0.3380
 1910TIP3    H227146   2.923   2.609   5.481 -1.0436  1.7865  0.1203
 1911TIP3   OH227147   4.037   4.589  15.054 -0.5646  0.3063 -0.1977
 1911TIP3    H127148   4.058   4.673  15.094 -1.2915 -0.8765  2.8447
 1911TIP3    H227149   4.106   4.530  15.084 -0.3725 -0.3362 -1.8362
 1912TIP3   OH227150   2.438   3.288   3.696  0.0823 -0.8229 -0.1493
 1912TIP3    H127151   2.484   3.368   3.668  0.5965 -1.0035  0.1617
 1912TIP3    H227152   2.448   3.288   3.791  0.6329 -1.5932 -0.2063
 1913TIP3   OH227153   6.106   0.933   0.302 -0.1525 -0.8070  0.7080
 1913TIP3    H127154   6.170   0.964   0.237 -0.3434  0.1324  0.9645
 1913TIP3    H227155   6.021   0.944   0.259 -0.3313  0.5219  1.4033
 1914TIP3   OH227156   4.299   3.840  11.799  0.5459 -0.1811  0.2707
 1914TIP3    H127157   4.343   3.764  11.759 -0.5133 -1.0650  0.7421
 1914TIP3    H227158   4.279   3.811  11.888  0.8593  0.9559  0.7166
 1915TIP3   OH227159   5.078   4.121   1.831  0.5405  0.5579 -0.1232
 1915TIP3    H127160   5.059   4.212   1.852 -1.2786  0.2731 -0.4623
 1915TIP3    H227161   4.992   4.081   1.818  1.0756 -2.1169  3.7371
 1916TIP3   OH227162   5.016   3.108   5.126 -0.2050 -0.0840  0.3225
 1916TIP3    H127163   4.921   3.116   5.116 -0.4879 -0.7096  2.2638
 1916TIP3    H227164   5.033   3.015   5.111  0.1501  0.1077 -0.4418
 1917TIP3   OH227165   0.932   0.448  11.705  0.2545 -0.3699  0.0608
 1917TIP3    H127166   0.909   0.356  11.716 -1.3834 -0.2527 -2.1417
 1917TIP3    H227167   0.899   0.491  11.784  1.5157 -1.7167  1.3640
 1918TIP3   OH227168   6.542   1.340   2.291  0.2469  0.0745  0.7408
 1918TIP3    H127169   6.618   1.295   2.329 -0.8198 -0.6873  2.0299
 1918TIP3    H227170   6.526   1.413   2.350  1.6607  1.9146 -1.0777
 1919TIP3   OH227171   2.327   4.688   0.036 -0.0986  0.1093 -0.5544
 1919TIP3    H127172   2.313   4.743  -0.042 -1.4044  0.8328  0.1792
 1919TIP3    H227173   2.317   4.598   0.003  0.6811  0.3393 -1.4774
 1920TIP3   OH227174   5.059   5.231   0.155 -0.9573 -0.2118 -0.1084
 1920TIP3    H127175   5.016   5.230   0.069  1.9721  1.1308 -1.6776
 1920TIP3    H227176   5.115   5.153   0.155 -1.4737 -0.5836  0.8573
 1921TIP3   OH227177   3.611   6.532  16.505 -0.1327 -0.6288 -0.0733
 1921TIP3    H127178   3.665   6.508  16.580  1.2569 -1.6830 -1.3834
 1921TIP3    H227179   3.538   6.581  16.543  1.6585  0.7026  1.7277
 1922TIP3   OH227180   0.837   5.658  15.278  0.2516  0.1618 -0.6519
 1922TIP3    H127181   0.748   5.651  15.244  0.0450  0.9073 -0.2767
 1922TIP3    H227182   0.870   5.569  15.277 -0.8829 -0.2805  0.2075
 1923TIP3   OH227183   2.427   1.658   5.301 -0.0586  0.2345 -0.1516
 1923TIP3    H127184   2.464   1.646   5.214 -2.2655 -1.1295 -0.9364
 1923TIP3    H227185   2.502   1.648   5.360  1.0611 -1.1662 -1.7553
 1924TIP3   OH227186   2.016   4.682  15.415  1.1149  0.3745  0.2635
 1924TIP3    H127187   2.081   4.751  15.425  1.2634  0.6337 -2.1211
 1924TIP3    H227188   1.943   4.709  15.470  0.9038  2.8056 -1.1200
 1925TIP3   OH227189   2.209   4.870  15.401  0.0590 -0.4694  0.0705
 1925TIP3    H127190   2.162   4.950  15.421  1.8372  0.5463  0.2434
 1925TIP3    H227191   2.254   4.888  15.318  0.1523 -1.4365 -0.1045
 1926TIP3   OH227192   5.348   4.100  13.684  0.2977 -0.1210 -0.2818
 1926TIP3    H127193   5.342   4.196  13.679  0.8055 -0.0768 -0.0188
 1926TIP3    H227194   5.429   4.083  13.733  0.0212 -0.6799 -0.0140
 1927TIP3   OH227195   3.388   3.870   1.726  0.2283  0.0822 -0.0950
 1927TIP3    H127196   3.375   3.890   1.633  0.7551 -0.5590 -0.3106
 1927TIP3    H227197   3.314   3.814   1.750 -0.5775  1.2454  0.1944
 1928TIP3   OH227198   6.020   5.651   4.479 -0.8425  0.8935  0.6754
 1928TIP3    H127199   5.943   5.709   4.484 -0.7951  1.0140  0.0499
 1928TIP3    H227200   6.001   5.593   4.406 -0.8347  0.1905  1.2317
 1929TIP3   OH227201   3.482   0.701  15.258 -0.0163  0.3619  0.6254
 1929TIP3    H127202   3.532   0.632  15.213  0.6682  0.0821  1.8019
 1929TIP3    H227203   3.547   0.768  15.277 -0.4863  0.8865  0.3804
 1930TIP3   OH227204   0.605   4.966   6.032 -0.0716 -0.6205  0.1579
 1930TIP3    H127205   0.610   5.012   6.116  0.5584  1.1472 -0.8344
 1930TIP3    H227206   0.632   4.877   6.052  2.9880  0.5032  1.2912
 1931TIP3   OH227207   2.074   0.940  16.764  0.3402 -0.6322  0.2695
 1931TIP3    H127208   2.074   1.035  16.757  0.8103 -0.6294  0.2497
 1931TIP3    H227209   2.163   0.918  16.793  0.2873 -1.0730  0.1109
 1932TIP3   OH227210   3.279   1.485   6.362 -0.4339 -0.2108 -0.9462
 1932TIP3    H127211   3.227   1.565   6.362  0.5381  0.4323 -0.1237
 1932TIP3    H227212   3.346   1.500   6.295  0.0416 -0.1296 -0.4574
 1933TIP3   OH227213   2.530   5.211  15.766  0.2162  0.0487 -0.7157
 1933TIP3    H127214   2.542   5.166  15.850  0.8439  1.7444  0.1287
 1933TIP3    H227215   2.530   5.140  15.701  1.2285 -1.1680  0.5638
 1934TIP3   OH227216   4.651   2.016  15.046 -0.6327 -0.0484 -0.0011
 1934TIP3    H127217   4.570   1.970  15.071 -0.5394 -0.6292 -0.7624
 1934TIP3    H227218   4.688   2.045  15.130  0.5621 -3.4579  0.7333
 1935TIP3   OH227219   5.198   3.319  11.628 -0.2558 -0.5396 -0.2082
 1935TIP3    H127220   5.265   3.296  11.563 -0.2318 -1.1225  0.0160
 1935TIP3    H227221   5.239   3.387  11.681  0.0751 -0.7244 -0.2227
 1936TIP3   OH227222   4.045   4.204   3.809  0.5988  0.6261  0.1760
 1936TIP3    H127223   4.004   4.289   3.825 -0.2447 -0.0135  1.5212
 1936TIP3    H227224   3.998   4.144   3.866  1.7645 -0.5915 -0.1186
 1937TIP3   OH227225   2.017   5.100   4.818 -0.0265 -0.1033 -0.0165
 1937TIP3    H127226   2.105   5.110   4.854  0.2522  0.8202 -0.9311
 1937TIP3    H227227   2.010   5.008   4.795  0.5224 -0.2798  0.5240
 1938TIP3   OH227228   2.784   4.641   2.892  0.3869  0.0795 -0.1989
 1938TIP3    H127229   2.756   4.552   2.913  0.7428  0.3556  1.5321
 1938TIP3    H227230   2.800   4.682   2.977  1.0016  1.5500 -0.9999
 1939TIP3   OH227231   1.684   0.042  15.050 -0.2231 -0.3078  0.2455
 1939TIP3    H127232   1.724   0.107  14.993  1.3425 -0.5990  1.0016
 1939TIP3    H227233   1.747   0.028  15.121 -1.8616 -0.4005  1.7411
 1940TIP3   OH227234   0.118   5.619   1.003 -0.0267  0.4195 -0.1086
 1940TIP3    H127235   0.041   5.664   0.971  0.6547  1.6280 -0.0814
 1940TIP3    H227236   0.190   5.655   0.951  0.4996 -0.7812 -0.2227
 1941TIP3   OH227237   6.391   4.013  12.337 -0.1507  0.3271  0.3772
 1941TIP3    H127238   6.384   4.108  12.337  1.5947  0.4793  0.2251
 1941TIP3    H227239   6.469   3.995  12.389 -0.3646 -1.0144  0.2538
 1942TIP3   OH227240   2.452   1.356  11.228  0.1610  0.9142 -0.4298
 1942TIP3    H127241   2.461   1.298  11.153  1.6672  0.4554  0.0797
 1942TIP3    H227242   2.388   1.422  11.201 -0.3356 -0.0396 -1.6016
 1943TIP3   OH227243   0.352   4.873   3.494 -0.3409 -0.0008 -0.1271
 1943TIP3    H127244   0.444   4.865   3.469  0.2324  0.3028  1.8457
 1943TIP3    H227245   0.323   4.955   3.451  0.5545  0.3898  0.0119
 1944TIP3   OH227246   4.731   3.416   3.120 -0.1057  0.1563 -0.6230
 1944TIP3    H127247   4.696   3.503   3.100 -1.2071  0.2079  1.3779
 1944TIP3    H227248   4.653   3.361   3.126  0.5773 -0.9349 -1.6105
 1945TIP3   OH227249   6.231   3.846  16.974  0.1948 -0.2815  0.4754
 1945TIP3    H127250   6.258   3.755  16.982  0.0750 -0.3738 -0.1031
 1945TIP3    H227251   6.313   3.895  16.966  0.2736 -0.2944  1.1710
 1946TIP3   OH227252   0.118   5.986  11.961 -0.2771 -0.2358  0.4766
 1946TIP3    H127253   0.101   6.000  11.868  0.1859 -2.9105 -0.0377
 1946TIP3    H227254   0.136   6.074  11.995  0.4812  0.6716 -2.1412
 1947TIP3   OH227255   6.389   1.453   0.633  0.1395 -0.6307  0.5958
 1947TIP3    H127256   6.355   1.390   0.695  0.9568  0.2859  2.0183
 1947TIP3    H227257   6.458   1.406   0.587 -0.1369 -1.1720  0.7299
 1948TIP3   OH227258   5.269   3.992  15.144 -0.4823 -0.0554  0.3128
 1948TIP3    H127259   5.267   3.929  15.216  0.2415  0.3918  0.7295
 1948TIP3    H227260   5.276   4.077  15.186 -1.5241  0.3255 -0.2458
 1949TIP3   OH227261   1.433   4.956   3.045 -0.0500  0.3533  0.1791
 1949TIP3    H127262   1.464   4.950   3.135  0.0916  0.5953  0.1460
 1949TIP3    H227263   1.510   4.937   2.991  0.1369  1.3676  0.0896
 1950TIP3   OH227264   0.050   5.179   2.110  0.2361 -0.0344 -0.4671
 1950TIP3    H127265   0.085   5.094   2.136  0.7206  0.5880  0.9615
 1950TIP3    H227266   0.096   5.201   2.029  0.6389 -0.7948 -0.4438
 1951TIP3   OH227267   0.924   4.912   2.495  0.5821 -0.5624 -0.6050
 1951TIP3    H127268   0.958   4.843   2.551  3.1570  1.2622  0.1993
 1951TIP3    H227269   0.924   4.874   2.407  1.8719 -1.6231 -0.1516
 1952TIP3   OH227270   5.936   3.707   2.248  0.5844  0.1107 -0.4905
 1952TIP3    H127271   5.934   3.754   2.331 -1.1400  0.3603 -0.6564
 1952TIP3    H227272   5.912   3.617   2.271  1.3755 -0.1084 -0.5302
 1953TIP3   OH227273   3.742   0.742   0.235  0.1463 -0.2389  0.2505
 1953TIP3    H127274   3.827   0.699   0.248 -0.4526 -1.3614  0.5258
 1953TIP3    H227275   3.757   0.804   0.164  1.3421 -0.0117  0.6751
 1954TIP3   OH227276   5.994   4.990   3.357 -0.2850 -0.2224  0.2378
 1954TIP3    H127277   6.012   4.906   3.400  1.4178 -0.1024 -0.1991
 1954TIP3    H227278   6.057   5.051   3.396  1.2562 -0.1012 -2.3459
 1955TIP3   OH227279   6.045   3.390  16.182  0.0787 -0.9499 -0.6177
 1955TIP3    H127280   6.037   3.477  16.142  2.3709 -0.4860 -0.1447
 1955TIP3    H227281   5.967   3.382  16.236  0.1105  1.0623 -0.2223
 1956TIP3   OH227282   3.827   4.752   1.352 -0.1900  0.1310  0.4486
 1956TIP3    H127283   3.871   4.676   1.391  0.8146  0.4621 -0.0250
 1956TIP3    H227284   3.805   4.724   1.263 -2.7711 -0.7369  1.3228
 1957TIP3   OH227285   0.714   6.522   5.914 -0.8565  0.7910 -0.4564
 1957TIP3    H127286   0.661   6.576   5.973 -1.2303  0.1053 -0.1670
 1957TIP3    H227287   0.714   6.435   5.954  3.5000  1.5828  1.5462
 1958TIP3   OH227288   4.653   5.618   1.109 -0.1216  0.7925  0.1603
 1958TIP3    H127289   4.712   5.552   1.073 -0.6319  0.6165 -0.3828
 1958TIP3    H227290   4.597   5.642   1.035  1.1511  3.0899 -0.1031
 1959TIP3   OH227291   3.457   5.522   0.999 -0.5306  0.2247 -0.0114
 1959TIP3    H127292   3.454   5.531   1.095 -0.4547 -0.6595  0.0758
 1959TIP3    H227293   3.366   5.509   0.973 -0.4538 -0.3741  0.0225
 1960TIP3   OH227294   5.261   3.205   0.278 -0.0545 -0.2706  0.4834
 1960TIP3    H127295   5.344   3.159   0.291 -1.2819 -2.4297  0.9287
 1960TIP3    H227296   5.206   3.142   0.230 -1.3539  1.2079  0.0135
 1961TIP3   OH227297   0.586   4.866  14.696  0.1515 -0.2093 -0.0077
 1961TIP3    H127298   0.570   4.905  14.610 -0.9764 -0.3666  0.1224
 1961TIP3    H227299   0.655   4.920  14.734 -0.3043  0.7058 -0.4566
 1962TIP3   OH227300   5.912   2.770   0.818  0.3175 -0.0298  0.6321
 1962TIP3    H127301   5.971   2.782   0.892  1.0169  2.0717 -0.2459
 1962TIP3    H227302   5.875   2.856   0.802 -0.7038 -0.7089 -0.7577
 1963TIP3   OH227303   5.200   5.630  13.186  0.5600  0.1541 -0.4335
 1963TIP3    H127304   5.230   5.565  13.123 -0.0034 -0.8059  0.2672
 1963TIP3    H227305   5.144   5.581  13.246 -2.0406  1.8036 -1.4402
 1964TIP3   OH227306   2.468   1.481  11.623  0.1209  0.2352 -0.2923
 1964TIP3    H127307   2.387   1.511  11.665 -1.5950 -0.5221 -2.9545
 1964TIP3    H227308   2.469   1.525  11.539  1.7238 -0.9247 -0.9010
 1965TIP3   OH227309   6.748   4.928   2.493  0.7130 -0.2424 -0.3730
 1965TIP3    H127310   6.834   4.969   2.486  0.8997 -0.5574  0.0713
 1965TIP3    H227311   6.748   4.860   2.426  0.8056 -0.2359 -0.3796
 1966TIP3   OH227312   5.470   0.759  11.124 -0.0878 -0.2756  0.8425
 1966TIP3    H127313   5.453   0.731  11.214  0.4063 -3.1330  0.1278
 1966TIP3    H227314   5.431   0.689  11.070  1.4898  0.2876 -1.0793
 1967TIP3   OH227315   3.347   6.578   4.648 -0.2056 -0.5230  0.1710
 1967TIP3    H127316   3.390   6.494   4.632  0.3676 -0.0864 -0.5821
 1967TIP3    H227317   3.359   6.628   4.567 -1.9640 -0.3252  0.0088
 1968TIP3   OH227318   3.350   4.367  13.495 -0.1331 -0.1861  0.0659
 1968TIP3    H127319   3.347   4.280  13.456 -0.7198 -0.6778  1.1747
 1968TIP3    H227320   3.372   4.352  13.587 -1.8895  0.6910  0.6606
 1969TIP3   OH227321   3.517   5.411   5.899  0.3139  0.2161 -0.6718
 1969TIP3    H127322   3.528   5.330   5.848  0.1532 -0.7358  0.7796
 1969TIP3    H227323   3.422   5.421   5.907  0.3531 -0.0647  0.1192
 1970TIP3   OH227324   0.859   1.464   5.283 -0.4736  0.1819 -0.0058
 1970TIP3    H127325   0.857   1.371   5.260 -0.7867 -0.1261  1.2233
 1970TIP3    H227326   0.783   1.477   5.339  0.8102  0.6761  1.6689
 1971TIP3   OH227327   2.293   2.958   3.746  0.2979 -0.1837 -0.2659
 1971TIP3    H127328   2.362   2.971   3.811  0.0759 -1.7567  0.3095
 1971TIP3    H227329   2.215   2.997   3.785 -0.0093 -1.7984  0.7630
 1972TIP3   OH227330   5.851   1.130  11.681  0.5020  0.0944 -0.1783
 1972TIP3    H127331   5.931   1.125  11.733  1.4704  0.7418 -1.5732
 1972TIP3    H227332   5.822   1.221  11.691 -0.3846 -0.2786  0.7717
 1973TIP3   OH227333   1.142   3.416  15.975  0.0713 -0.5176 -0.3421
 1973TIP3    H127334   1.207   3.478  15.941  1.5579 -1.3979  0.8175
 1973TIP3    H227335   1.150   3.339  15.917  0.3804 -0.7967  0.0689
 1974TIP3   OH227336   5.787   1.880  13.684  0.3360  0.0594 -0.2989
 1974TIP3    H127337   5.751   1.803  13.726  1.2037 -0.1316  0.1017
 1974TIP3    H227338   5.781   1.949  13.751  0.7244  0.0243 -0.2279
 1975TIP3   OH227339   3.325   1.978  14.177 -0.4433 -0.2469 -0.8417
 1975TIP3    H127340   3.284   2.062  14.197 -0.5909 -0.9530  2.0610
 1975TIP3    H227341   3.395   2.000  14.115 -0.2218  2.1029  0.1602
 1976TIP3   OH227342   0.122   0.975   0.559  0.1959 -0.0832  0.1332
 1976TIP3    H127343   0.176   0.901   0.530  2.8299  1.2703  1.3911
 1976TIP3    H227344   0.137   0.980   0.653 -0.8841  1.3460  0.2414
 1977TIP3   OH227345   3.156   6.018  16.142 -0.0149 -0.0637 -0.5052
 1977TIP3    H127346   3.112   6.098  16.172 -1.1694 -0.8915  0.0262
 1977TIP3    H227347   3.201   5.985  16.219  0.1099 -0.1671 -0.6244
 1978TIP3   OH227348   2.762   3.935  13.040 -0.1578  0.4109  0.0360
 1978TIP3    H127349   2.763   3.841  13.023  0.1213 -0.0164  2.2564
 1978TIP3    H227350   2.840   3.969  12.997  0.3248 -0.5586  0.1459
 1979TIP3   OH227351   3.156   2.214   5.983 -0.3622 -0.1976 -0.1310
 1979TIP3    H127352   3.193   2.285   6.034 -0.0561 -0.8814  0.6107
 1979TIP3    H227353   3.229   2.153   5.970 -0.4338 -0.0350 -1.3815
 1980TIP3   OH227354   2.911   5.389   2.120  0.2981  0.1785 -0.0264
 1980TIP3    H127355   2.818   5.381   2.103  0.6889 -1.9771 -1.2641
 1980TIP3    H227356   2.929   5.328   2.191  1.2843 -1.7812 -1.8882
 1981TIP3   OH227357   5.752   4.850  12.909  0.3543  0.5206  0.4703
 1981TIP3    H127358   5.685   4.887  12.967 -0.6310  0.6855 -0.7532
 1981TIP3    H227359   5.716   4.861  12.821  1.8376  0.2713 -0.1740
 1982TIP3   OH227360   5.140   4.719  11.122 -0.4542 -0.0521 -0.2714
 1982TIP3    H127361   5.097   4.636  11.103 -0.8719  0.4143 -1.4462
 1982TIP3    H227362   5.229   4.709  11.089 -0.5272 -0.0058 -0.4812
 1983TIP3   OH227363   6.724   1.336   4.792 -0.3026  0.7504 -0.6701
 1983TIP3    H127364   6.803   1.389   4.802  0.3679 -0.2872 -0.3830
 1983TIP3    H227365   6.716   1.291   4.876 -1.4406  1.1660 -0.5472
 1984TIP3   OH227366   1.678   3.274   0.251  0.3868 -0.1279 -0.4082
 1984TIP3    H127367   1.598   3.276   0.198 -0.6907 -1.5823  1.1074
 1984TIP3    H227368   1.690   3.364   0.280  0.5442  0.5401 -2.4203
 1985TIP3   OH227369   6.253   5.914  11.380 -0.1570  0.2273  0.1159
 1985TIP3    H127370   6.215   5.886  11.463 -0.2707 -0.8111 -0.2789
 1985TIP3    H227371   6.344   5.882  11.384  0.0044  0.6776  0.0801
 1986TIP3   OH227372   5.891   0.098   3.755  0.1824 -0.8368 -0.3724
 1986TIP3    H127373   5.911   0.187   3.726  1.1797 -1.0217 -0.2346
 1986TIP3    H227374   5.799   0.102   3.781  0.5197  0.4170  0.6734
 1987TIP3   OH227375   3.484   3.438  15.126  0.3439  0.3974 -0.4797
 1987TIP3    H127376   3.464   3.470  15.213  2.0033 -1.5642  0.6536
 1987TIP3    H227377   3.571   3.470  15.107  0.2182  0.3388 -1.1767
 1988TIP3   OH227378   1.955   5.293   5.819 -0.1751  0.3188  0.1291
 1988TIP3    H127379   1.996   5.310   5.904  2.8398 -0.5391 -1.1164
 1988TIP3    H227380   1.863   5.316   5.833  0.3265  0.5901  3.5027
 1989TIP3   OH227381   1.923   1.109  12.580 -0.0600  0.1431 -0.7501
 1989TIP3    H127382   1.993   1.164  12.615 -0.7113  1.1687 -1.0149
 1989TIP3    H227383   1.950   1.091  12.490 -0.8554  1.8431 -1.3609
 1990TIP3   OH227384   2.086   6.114   4.250 -0.4567  1.0258  0.6396
 1990TIP3    H127385   2.069   6.057   4.325 -1.7071  1.8478  0.9946
 1990TIP3    H227386   2.079   6.203   4.286 -0.1423  1.4138 -0.2612
 1991TIP3   OH227387   1.357   2.594   5.893 -0.0829 -0.0323 -0.0538
 1991TIP3    H127388   1.419   2.553   5.954 -0.4029 -0.2051  0.1617
 1991TIP3    H227389   1.343   2.682   5.928 -0.9880 -0.4513  0.6627
 1992TIP3   OH227390   3.293   1.807   1.341  0.2479 -0.4802  0.0899
 1992TIP3    H127391   3.363   1.839   1.283  0.0367  0.0184  0.1094
 1992TIP3    H227392   3.305   1.855   1.422  0.0237 -0.5654  0.1741
 1993TIP3   OH227393   4.597   4.667   0.398  0.4232  0.3680 -0.3120
 1993TIP3    H127394   4.680   4.694   0.358  0.1277  0.9298 -0.5611
 1993TIP3    H227395   4.618   4.653   0.490  0.7738  0.6230 -0.3505
 1994TIP3   OH227396   6.653   2.205   5.936 -0.7971 -0.5635  0.7509
 1994TIP3    H127397   6.596   2.153   5.993 -0.7558 -1.7494 -0.2579
 1994TIP3    H227398   6.741   2.193   5.972 -0.8259 -0.9773  0.6888
 1995TIP3   OH227399   5.868   1.483  13.919 -0.2804 -0.1606  0.2373
 1995TIP3    H127400   5.802   1.419  13.948 -2.1120  1.2356 -0.7263
 1995TIP3    H227401   5.881   1.463  13.826 -0.1915  0.2882  0.1546
 1996TIP3   OH227402   0.766   0.342  10.652 -0.6515  0.9181  0.0525
 1996TIP3    H127403   0.812   0.312  10.573 -0.0261  0.0167  0.7531
 1996TIP3    H227404   0.698   0.401  10.619 -2.0320 -1.3906 -1.3825
 1997TIP3   OH227405   2.524   3.573  15.721  0.4275 -0.5221 -0.0987
 1997TIP3    H127406   2.450   3.598  15.776 -0.5168  0.4337 -1.7854
 1997TIP3    H227407   2.486   3.558  15.635  2.0412 -1.1026 -0.7290
 1998TIP3   OH227408   1.542   1.395  12.720 -0.1203 -1.1169  0.9459
 1998TIP3    H127409   1.617   1.410  12.662 -0.5247 -0.0302  0.6837
 1998TIP3    H227410   1.535   1.476  12.771 -0.4089 -1.6675  1.7882
 1999TIP3   OH227411   4.537   6.220  17.225  0.4265  0.4392  0.2009
 1999TIP3    H127412   4.573   6.262  17.148  0.7177  2.8496  1.5910
 1999TIP3    H227413   4.444   6.210  17.206  0.5534  0.7374 -0.5820
 2000TIP3   OH227414   0.554   3.071  16.046 -0.3975  0.7801 -0.1082
 2000TIP3    H127415   0.562   3.117  16.130  0.6952 -0.0656  0.2561
 2000TIP3    H227416   0.643   3.066  16.013 -0.7029  0.2278 -0.8526
 2001TIP3   OH227417   5.544   4.588  11.280 -0.1709 -0.1553  0.3340
 2001TIP3    H127418   5.618   4.548  11.233  0.0529 -0.7445  1.1725
 2001TIP3    H227419   5.472   4.586  11.217  0.2800 -0.3951 -0.1834
 2002TIP3   OH227420   2.512   3.393  13.035  0.3850  0.4986 -0.7181
 2002TIP3    H127421   2.606   3.408  13.033  0.8479 -2.1428 -0.6838
 2002TIP3    H227422   2.495   3.338  12.959 -0.4897 -2.1586  1.2906
 2003TIP3   OH227423   0.598   2.442  12.236 -0.1795 -0.1700 -0.1095
 2003TIP3    H127424   0.669   2.399  12.189 -0.0521 -0.3893  0.2895
 2003TIP3    H227425   0.521   2.431  12.179 -0.2780 -1.4222  0.2680
 2004TIP3   OH227426   1.442   4.611   0.121 -0.6829  0.0932 -0.0937
 2004TIP3    H127427   1.520   4.664   0.105 -0.2419 -1.0282 -1.6820
 2004TIP3    H227428   1.443   4.596   0.216 -0.3883  2.2448  0.2718
 2005TIP3   OH227429   2.625   4.572  10.425 -0.6438 -0.6059 -0.2274
 2005TIP3    H127430   2.577   4.563  10.507  1.0179 -1.2982  0.7068
 2005TIP3    H227431   2.657   4.483  10.407 -0.3348 -0.3014 -1.2058
 2006TIP3   OH227432   2.505   2.358   4.372 -0.2207 -0.1708 -0.5841
 2006TIP3    H127433   2.419   2.340   4.334  0.0031 -2.4164 -0.0944
 2006TIP3    H227434   2.485   2.395   4.458 -0.6881 -1.2416 -0.2292
 2007TIP3   OH227435   1.086   5.682  15.136  0.5116  0.0787  0.2075
 2007TIP3    H127436   1.033   5.673  15.215  0.1790 -0.3701 -0.0626
 2007TIP3    H227437   1.074   5.599  15.090  0.3346  0.5183 -0.5444
 2008TIP3   OH227438   2.158   5.286  14.033 -0.3821  0.7129  0.6409
 2008TIP3    H127439   2.207   5.219  14.081  0.4198 -1.0220 -2.4774
 2008TIP3    H227440   2.124   5.344  14.101  2.3366 -0.5218  3.1568
 2009TIP3   OH227441   4.809   2.429  13.505  0.8638  0.5337  0.4441
 2009TIP3    H127442   4.745   2.366  13.472  1.0615 -0.7588  2.4369
 2009TIP3    H227443   4.764   2.513  13.503  0.6977  0.4198 -2.5442
 2010TIP3   OH227444   2.201   1.118   5.662  0.3582 -0.5232 -0.2905
 2010TIP3    H127445   2.231   1.208   5.657  2.0862 -1.0835 -0.3345
 2010TIP3    H227446   2.274   1.070   5.702 -0.6198 -1.8592 -0.0498
 2011TIP3   OH227447   3.172   4.164   0.223 -0.1702  0.6374 -0.0619
 2011TIP3    H127448   3.189   4.183   0.315 -1.9837  3.3919 -0.2467
 2011TIP3    H227449   3.255   4.184   0.179  1.3331 -2.6187  1.1639
 2012TIP3   OH227450   1.949   4.086   2.410 -0.4745 -0.0778  0.4151
 2012TIP3    H127451   1.983   4.159   2.462  0.4165  0.2643 -0.6384
 2012TIP3    H227452   2.027   4.044   2.375 -1.0210 -1.1350  0.4711
 2013TIP3   OH227453   2.575   3.775   2.482 -0.0946  0.1915 -0.4066
 2013TIP3    H127454   2.619   3.793   2.565  0.1041  1.4736 -0.7869
 2013TIP3    H227455   2.579   3.680   2.473 -1.1639 -0.0885  1.6446
 2014TIP3   OH227456   6.514   5.967   2.561  0.0985  0.6130 -0.3050
 2014TIP3    H127457   6.419   5.954   2.566  0.2232  0.1843  1.1286
 2014TIP3    H227458   6.526   6.034   2.494 -1.2711  1.3302  0.1639
 2015TIP3   OH227459   2.526   3.795  15.402  0.0934 -0.1568 -0.1018
 2015TIP3    H127460   2.477   3.714  15.390 -0.1166 -0.4112  2.3884
 2015TIP3    H227461   2.488   3.855  15.338 -1.8889 -1.0514  0.1924
 2016TIP3   OH227462   4.460   6.116   1.684 -0.0763 -0.5976  0.3617
 2016TIP3    H127463   4.401   6.042   1.697 -0.2922 -0.2630  1.3014
 2016TIP3    H227464   4.514   6.090   1.609 -2.1795 -0.4164 -1.2734
 2017TIP3   OH227465   0.103   6.275  10.220 -0.1798 -0.0719 -0.2095
 2017TIP3    H127466   0.134   6.361  10.249 -1.5342  0.4611 -0.2919
 2017TIP3    H227467   0.176   6.239  10.168  0.4496  0.9617 -0.0499
 2018TIP3   OH227468   5.072   5.260  13.665 -0.7120 -0.7208 -0.0241
 2018TIP3    H127469   5.083   5.332  13.728 -1.3133 -0.2417 -0.4686
 2018TIP3    H227470   5.160   5.241  13.634 -0.5848 -0.0118 -0.0898
 2019TIP3   OH227471   6.288   5.504  13.568 -0.3687  0.3482 -0.1765
 2019TIP3    H127472   6.376   5.526  13.534 -0.8096  1.5016 -0.6036
 2019TIP3    H227473   6.303   5.483  13.660  0.3725  0.4177 -0.2725
 2020TIP3   OH227474   1.434   0.205  16.341  0.0643 -0.3518  0.1591
 2020TIP3    H127475   1.405   0.118  16.368  1.4892 -0.8089  0.2769
 2020TIP3    H227476   1.504   0.227  16.402  0.4629  0.4078 -0.5521
 2021TIP3   OH227477   1.243   6.476   4.033  0.2125  0.1032  0.2946
 2021TIP3    H127478   1.301   6.495   4.107  0.9302 -1.2199  0.0780
 2021TIP3    H227479   1.299   6.484   3.956  0.3233 -1.9259  0.1307
 2022TIP3   OH227480   6.693   1.812  14.822 -0.0866 -0.2009  0.2479
 2022TIP3    H127481   6.775   1.834  14.778 -0.0461 -3.2581 -1.3398
 2022TIP3    H227482   6.719   1.791  14.912  0.5249  1.0907  0.3836
 2023TIP3   OH227483   6.199   1.025  14.297 -0.0501  0.4771 -0.0409
 2023TIP3    H127484   6.216   0.933  14.313 -0.1204  0.2641 -1.1905
 2023TIP3    H227485   6.106   1.036  14.319 -0.2261  0.1183 -0.5961
 2024TIP3   OH227486   6.616   4.415   6.009  0.6731 -0.3671 -0.7143
 2024TIP3    H127487   6.566   4.361   5.947  0.6747  0.4780 -1.4524
 2024TIP3    H227488   6.686   4.356   6.040  0.9714 -0.6560 -1.8861
 2025TIP3   OH227489   5.356   1.520  13.608  0.3744 -0.3152 -0.1197
 2025TIP3    H127490   5.305   1.480  13.538  1.7670 -0.2883 -1.1643
 2025TIP3    H227491   5.299   1.589  13.643  0.0536  0.3598 -1.9061
 2026TIP3   OH227492   5.285   0.154  12.614  0.3505  0.0373 -0.5209
 2026TIP3    H127493   5.293   0.171  12.520 -2.5052  1.8048 -0.5243
 2026TIP3    H227494   5.257   0.062  12.619 -2.8921  0.8755 -1.6703
 2027TIP3   OH227495   6.386   0.628   4.416 -0.2832 -0.0784  0.2871
 2027TIP3    H127496   6.469   0.581   4.418 -1.4409 -2.1910 -0.2304
 2027TIP3    H227497   6.411   0.720   4.421  1.9930 -0.7440  2.1732
 2028TIP3   OH227498   2.560   5.118   0.881  0.1934 -0.5963  0.5055
 2028TIP3    H127499   2.643   5.076   0.855 -0.0769 -0.9491  0.2065
 2028TIP3    H227500   2.559   5.200   0.832  0.7620 -0.2007  1.1486
 2029TIP3   OH227501   1.049   5.659   5.964 -0.0019  0.2800 -0.0231
 2029TIP3    H127502   0.987   5.723   5.929 -0.5700  0.2686  0.9568
 2029TIP3    H227503   1.058   5.682   6.056  1.3934  0.2277 -0.1314
 2030TIP3   OH227504   2.161   3.927   2.263  1.0059 -0.2382 -0.2187
 2030TIP3    H127505   2.083   3.871   2.261  1.0624 -0.2799 -1.3440
 2030TIP3    H227506   2.217   3.893   2.194  1.0503  1.1833 -0.9139
 2031TIP3   OH227507   2.882   2.890  13.519  0.3501 -0.1322 -0.4665
 2031TIP3    H127508   2.948   2.958  13.504  0.0652  0.0176 -1.0725
 2031TIP3    H227509   2.813   2.934  13.568  1.2500 -0.6031  1.2864
 2032TIP3   OH227510   4.547   1.040   0.001 -0.4904 -0.0372 -0.7749
 2032TIP3    H127511   4.562   1.131   0.025  2.3376 -0.8434  0.7422
 2032TIP3    H227512   4.479   1.010   0.062 -1.4037  1.0108 -1.2630
 2033TIP3   OH227513   6.446   0.104  13.284  0.3469 -0.4990 -0.0331
 2033TIP3    H127514   6.364   0.119  13.331  1.2801 -1.2064  1.8876
 2033TIP3    H227515   6.427   0.032  13.224 -0.5605 -0.3832  0.1166
 2034TIP3   OH227516   0.115   5.003  16.763 -0.0034  0.1702  0.1207
 2034TIP3    H127517   0.147   5.026  16.676  0.2570  1.2632  0.4958
 2034TIP3    H227518   0.120   5.085  16.813 -2.8770  0.2622  0.3450
 2035TIP3   OH227519   5.041   1.026  14.000 -0.1103  0.3279 -0.2501
 2035TIP3    H127520   5.064   0.970  14.074  0.7390  1.0807  0.0677
 2035TIP3    H227521   4.946   1.034  14.004 -0.1194 -0.0871  0.4373
 2036TIP3   OH227522   5.606   5.373   0.659  0.2758  0.2686 -0.4195
 2036TIP3    H127523   5.547   5.310   0.701  0.8403 -0.2595 -0.3950
 2036TIP3    H227524   5.552   5.449   0.640  0.1001  0.6970  1.6742
 2037TIP3   OH227525   5.994   5.374   3.556  0.3567  0.3279  1.0086
 2037TIP3    H127526   6.071   5.370   3.499  1.4985  0.9211  2.4793
 2037TIP3    H227527   6.007   5.303   3.619  1.0524  2.0982  2.8991
 2038TIP3   OH227528   4.419   3.995  14.024 -0.3938  0.4897 -0.0484
 2038TIP3    H127529   4.468   3.930  14.074 -0.9781  0.2409  0.2094
 2038TIP3    H227530   4.477   4.071  14.020  0.1827  0.0434 -0.1232
 2039TIP3   OH227531   1.949   3.267   1.165  0.1222 -0.5529 -0.0145
 2039TIP3    H127532   1.937   3.276   1.259 -0.2291  1.4143 -0.2172
 2039TIP3    H227533   2.013   3.197   1.155 -0.0608 -0.9718  1.6757
 2040TIP3   OH227534   3.669   3.665   0.638 -0.0718  0.4546  0.0809
 2040TIP3    H127535   3.697   3.621   0.718  1.1458  0.4928 -0.3152
 2040TIP3    H227536   3.635   3.750   0.667 -3.1714 -0.9747  0.9462
 2041TIP3   OH227537   4.512   4.395   0.563  0.0234 -0.1483 -0.2124
 2041TIP3    H127538   4.574   4.326   0.540 -0.6977 -0.7699 -0.3224
 2041TIP3    H227539   4.549   4.475   0.525  0.1754 -0.7164 -1.2861
 2042TIP3   OH227540   5.653   0.819  12.493 -0.1574  0.2705  0.2152
 2042TIP3    H127541   5.672   0.844  12.583 -1.0894  0.7472  0.2865
 2042TIP3    H227542   5.564   0.783  12.496 -0.0696 -0.0132 -0.4580
 2043TIP3   OH227543   3.014   5.280   4.893  0.1465  0.1831 -0.1021
 2043TIP3    H127544   2.955   5.277   4.969  1.1176  0.4014  0.6740
 2043TIP3    H227545   2.957   5.302   4.819 -0.9668 -0.9214  0.4087
 2044TIP3   OH227546   5.186   1.273  12.844  0.2534 -0.1002  0.0971
 2044TIP3    H127547   5.161   1.195  12.795 -1.0180 -0.2166  0.9002
 2044TIP3    H227548   5.229   1.239  12.923 -0.5303 -0.0044  0.5698
 2045TIP3   OH227549   1.362   0.040  13.431  0.1772 -0.3228  0.4456
 2045TIP3    H127550   1.317   0.113  13.473  1.1139  1.9086 -2.2655
 2045TIP3    H227551   1.299   0.005  13.368  0.3356 -0.7756  0.5352
 2046TIP3   OH227552   5.334   5.964  15.551  0.3298 -0.1413 -0.2573
 2046TIP3    H127553   5.365   5.937  15.638 -0.5157  0.7108  0.3136
 2046TIP3    H227554   5.392   5.918  15.490  0.2943 -1.5492  0.7324
 2047TIP3   OH227555   2.374   4.920  12.811 -0.3667  0.8474  0.0634
 2047TIP3    H127556   2.316   4.974  12.864  0.1905 -0.0040  1.5653
 2047TIP3    H227557   2.462   4.954  12.830 -0.1646  0.5381 -0.3147
 2048TIP3   OH227558   6.557   2.029  11.444 -0.1876 -0.1421 -0.1112
 2048TIP3    H127559   6.605   2.103  11.482 -1.9699  0.5360  0.8904
 2048TIP3    H227560   6.625   1.966  11.420  1.1814  0.5855  1.7072
 2049TIP3   OH227561   3.713   1.804  15.820 -0.2286 -0.3184 -0.5902
 2049TIP3    H127562   3.638   1.745  15.818 -1.3531  1.1097 -1.4038
 2049TIP3    H227563   3.675   1.892  15.824  1.4052  0.3960 -0.2287
 2050TIP3   OH227564   4.266   0.790   6.339  0.1314  0.3316 -1.0318
 2050TIP3    H127565   4.308   0.776   6.254 -0.8866 -0.3303 -1.4271
 2050TIP3    H227566   4.195   0.852   6.320 -1.4772 -1.4943 -1.0799
 2051TIP3   OH227567   0.613   1.306  10.443 -0.5499  0.8814  0.0374
 2051TIP3    H127568   0.526   1.329  10.412 -0.6480  1.1753  0.5268
 2051TIP3    H227569   0.664   1.292  10.364 -1.1161  0.4226 -0.2458
 2052TIP3   OH227570   2.971   2.405  12.528 -0.0624 -0.6793 -0.2778
 2052TIP3    H127571   2.974   2.496  12.499 -0.5196 -0.7585 -0.5773
 2052TIP3    H227572   2.881   2.391  12.557 -0.6460 -1.7000 -2.4632
 2053TIP3   OH227573   1.028   3.480  15.727  0.0877 -0.1298  0.2477
 2053TIP3    H127574   1.089   3.535  15.776  1.3807 -2.4635  1.3255
 2053TIP3    H227575   0.947   3.531  15.726  1.0622  1.5318  1.7332
 2054TIP3   OH227576   3.190   0.606   1.658 -0.0564  0.1322  0.3938
 2054TIP3    H127577   3.218   0.636   1.744 -0.1975  0.3255  0.3762
 2054TIP3    H227578   3.256   0.639   1.598 -1.2866  2.2431  0.1250
 2055TIP3   OH227579   4.041   5.539   5.879 -0.0488 -0.0136  0.2387
 2055TIP3    H127580   4.072   5.557   5.968 -0.5454  0.5179  0.3076
 2055TIP3    H227581   3.990   5.458   5.887  1.1092 -0.7751  0.1644
 2056TIP3   OH227582   1.405   1.626   5.613  0.4218  0.1861  0.2508
 2056TIP3    H127583   1.426   1.697   5.674 -0.4277  0.4059  0.2972
 2056TIP3    H227584   1.353   1.667   5.544  1.0250 -0.1459 -0.4083
 2057TIP3   OH227585   0.515   4.340  14.415  0.2457 -0.8982  0.0807
 2057TIP3    H127586   0.474   4.272  14.361 -2.1922 -0.7098  1.6085
 2057TIP3    H227587   0.451   4.411  14.416  1.2843  0.0346  1.2784
 2058TIP3   OH227588   5.969   2.757   0.231  0.1812 -0.5869 -0.1475
 2058TIP3    H127589   6.061   2.774   0.255  0.1714 -0.4761 -0.1878
 2058TIP3    H227590   5.920   2.822   0.282  0.1529 -0.4079 -0.4064
 2059TIP3   OH227591   2.243   4.949  14.450  0.3179  0.2194  0.2976
 2059TIP3    H127592   2.325   4.939  14.401 -0.4483  0.7838 -1.1413
 2059TIP3    H227593   2.213   5.037  14.427 -0.6053  0.0774  0.9461
 2060TIP3   OH227594   4.453   6.426   5.556  0.7629 -0.1882  0.0194
 2060TIP3    H127595   4.426   6.506   5.601 -5.0626  0.1767 -3.5261
 2060TIP3    H227596   4.499   6.457   5.478 -2.5724 -0.0569 -1.9995
 2061TIP3   OH227597   1.833   5.789   3.649 -0.4867  0.0848 -0.0817
 2061TIP3    H127598   1.855   5.833   3.566 -0.0878 -1.9852 -1.0903
 2061TIP3    H227599   1.878   5.842   3.716  1.4169  0.2346 -1.4316
 2062TIP3   OH227600   1.804   1.626   4.655 -0.4782  0.2583  0.3733
 2062TIP3    H127601   1.851   1.641   4.737 -1.4899  1.6665  0.7138
 2062TIP3    H227602   1.742   1.556   4.676 -0.8735  0.7573  0.8613
 2063TIP3   OH227603   1.376   0.273   4.058  0.1610 -0.1405 -0.5218
 2063TIP3    H127604   1.392   0.344   3.995  0.5252 -0.7052 -1.0693
 2063TIP3    H227605   1.338   0.203   4.005 -2.0878  0.3638  0.3524
 2064TIP3   OH227606   3.365   0.628  12.297  0.1857 -0.2643 -0.3505
 2064TIP3    H127607   3.285   0.644  12.348 -0.5524  1.2674 -1.9583
 2064TIP3    H227608   3.361   0.534  12.277 -0.0518 -0.6692  1.4684
 2065TIP3   OH227609   2.965   1.629  16.638 -0.1672 -0.4953 -0.3869
 2065TIP3    H127610   2.903   1.693  16.602 -1.4109 -1.6353 -0.3075
 2065TIP3    H227611   3.050   1.656  16.603 -0.7708  0.8001 -0.8946
 2066TIP3   OH227612   0.446   5.825  12.164 -0.9081 -0.0652  0.4123
 2066TIP3    H127613   0.422   5.738  12.133 -2.1251 -0.0899  1.3890
 2066TIP3    H227614   0.400   5.885  12.104 -0.5058 -0.0920  0.0739
 2067TIP3   OH227615   0.229   4.386   1.417 -0.2634 -0.4492 -0.0042
 2067TIP3    H127616   0.175   4.415   1.344  0.0451 -1.8703 -0.8224
 2067TIP3    H227617   0.198   4.297   1.436  1.9321 -1.4022 -0.6815
 2068TIP3   OH227618   2.260   1.398   1.034  0.7196 -0.1079  0.2773
 2068TIP3    H127619   2.305   1.329   0.985 -0.7866  0.7110 -2.3249
 2068TIP3    H227620   2.209   1.351   1.100 -0.3808 -1.5534 -1.5386
 2069TIP3   OH227621   3.335   3.331   1.493 -0.0817 -0.1395  0.3303
 2069TIP3    H127622   3.390   3.274   1.547  0.6847 -0.1964 -0.4884
 2069TIP3    H227623   3.371   3.321   1.404 -1.9004 -0.7629 -0.3509
 2070TIP3   OH227624   0.087   0.719   2.219 -0.1002 -0.5385 -0.1248
 2070TIP3    H127625   0.154   0.676   2.272  0.3330  0.7004  0.3427
 2070TIP3    H227626   0.004   0.678   2.246  0.3757 -1.5597 -0.1886
 2071TIP3   OH227627   3.415   5.408   4.036  0.5664  0.0099 -0.3368
 2071TIP3    H127628   3.347   5.346   4.064 -1.3642  2.8388  1.5262
 2071TIP3    H227629   3.378   5.450   3.958  0.5795  0.8126  0.0770
 2072TIP3   OH227630   6.425   5.805  17.005  0.2178  1.0121 -0.1772
 2072TIP3    H127631   6.438   5.714  17.033 -0.9671  1.0910  0.6447
 2072TIP3    H227632   6.511   5.846  17.015  0.3526  0.4310  1.1055
 2073TIP3   OH227633   2.787   1.553  17.111 -0.5058 -0.3556 -0.5139
 2073TIP3    H127634   2.739   1.549  17.194  0.7527 -1.1727  0.1918
 2073TIP3    H227635   2.852   1.622  17.123  1.3438 -2.1439  0.1189
 2074TIP3   OH227636   3.640   4.719   2.729 -0.3750  0.1808 -0.0457
 2074TIP3    H127637   3.589   4.788   2.771 -0.9508  0.3217 -0.9550
 2074TIP3    H227638   3.655   4.655   2.798 -0.7615  0.7053  0.5311
 2075TIP3   OH227639   4.343   4.238   0.730  0.3816  0.1717 -0.3829
 2075TIP3    H127640   4.384   4.288   0.659  0.0493 -1.1303 -1.5029
 2075TIP3    H227641   4.409   4.237   0.799  1.4577 -0.1476 -1.3910
 2076TIP3   OH227642   6.356   2.435   1.678 -0.0609 -0.0879 -0.6745
 2076TIP3    H127643   6.283   2.482   1.717 -0.6090 -2.6834  1.5815
 2076TIP3    H227644   6.431   2.493   1.688 -0.2563 -0.5153  4.0174
 2077TIP3   OH227645   5.972   5.673  11.004  0.3281 -0.3862  0.0620
 2077TIP3    H127646   5.981   5.711  11.091 -0.2762  1.1229 -0.5022
 2077TIP3    H227647   5.914   5.598  11.016 -0.5701  0.4008  0.8266
 2078TIP3   OH227648   2.328   2.569  12.577  0.2005 -0.2191  0.0378
 2078TIP3    H127649   2.383   2.516  12.635  3.3429  1.6541 -1.1215
 2078TIP3    H227650   2.343   2.533  12.490  1.0458  1.4657 -0.5282
 2079TIP3   OH227651   2.832   0.009  12.391 -0.2818 -0.3330  0.2844
 2079TIP3    H127652   2.918   0.001  12.434  0.3577 -0.2344 -0.9601
 2079TIP3    H227653   2.850   0.054  12.309 -1.6840  0.5493  0.4388
 2080TIP3   OH227654   5.258   3.774  11.501  0.3720  0.4895  0.0245
 2080TIP3    H127655   5.330   3.768  11.438 -0.8676 -1.3800 -1.2519
 2080TIP3    H227656   5.186   3.726  11.460 -1.7998  2.7896  1.0309
 2081TIP3   OH227657   6.141   3.323  11.018  0.0621 -0.3586 -1.2838
 2081TIP3    H127658   6.080   3.384  10.977 -1.4303 -0.3253  0.8761
 2081TIP3    H227659   6.222   3.331  10.968 -1.1464  0.9593 -3.0509
 2082TIP3   OH227660   4.838   0.880  16.498  0.2400 -0.0723 -0.2231
 2082TIP3    H127661   4.793   0.906  16.418  1.9346  0.1347 -1.1093
 2082TIP3    H227662   4.827   0.785  16.501 -2.1199  0.1856  0.7208
 2083TIP3   OH227663   4.158   1.840   2.050 -0.4006  0.4969 -0.9037
 2083TIP3    H127664   4.146   1.925   2.007  0.3983  0.7668 -0.6127
 2083TIP3    H227665   4.239   1.806   2.013  1.5504  1.7701  1.9930
 2084TIP3   OH227666   6.454   0.249  13.663  0.1768  0.4791  0.0781
 2084TIP3    H127667   6.411   0.312  13.604 -0.2109 -1.9437 -2.3432
 2084TIP3    H227668   6.386   0.225  13.726 -0.5662  0.3049 -0.7744
 2085TIP3   OH227669   4.912   5.612   3.213  0.3101  0.6437 -0.0476
 2085TIP3    H127670   4.882   5.612   3.122  1.5368 -0.1790 -0.4708
 2085TIP3    H227671   4.883   5.528   3.247 -0.7982  1.2641  0.5540
 2086TIP3   OH227672   0.247   4.990   2.429 -0.0976 -0.5196 -0.5356
 2086TIP3    H127673   0.227   5.011   2.338  2.1713  1.8600 -0.5460
 2086TIP3    H227674   0.299   4.910   2.424  0.1477 -0.3148 -1.3331
 2087TIP3   OH227675   2.279   0.432  14.678  0.6345  0.0097 -0.1335
 2087TIP3    H127676   2.352   0.371  14.681  1.9613  1.5441 -0.3247
 2087TIP3    H227677   2.280   0.467  14.589 -0.1291  0.2933 -0.0385
 2088TIP3   OH227678   4.964   5.693  12.234  0.2712  0.1084  0.1957
 2088TIP3    H127679   4.920   5.716  12.315  1.4677 -1.2086  1.2408
 2088TIP3    H227680   4.933   5.605  12.214  0.9078 -0.0486 -0.1236
 2089TIP3   OH227681   5.240   4.646  13.158 -0.4921 -0.7738 -0.2966
 2089TIP3    H127682   5.209   4.615  13.243  1.5869 -0.7188  0.5093
 2089TIP3    H227683   5.335   4.634  13.162  0.0638  2.9262 -1.1013
 2090TIP3   OH227684   2.263   5.901  14.085  0.0829  0.1487 -0.0896
 2090TIP3    H127685   2.280   5.918  13.992 -0.5805  1.4788  0.0176
 2090TIP3    H227686   2.304   5.816  14.102  0.0658 -0.1876 -1.6407
 2091TIP3   OH227687   2.097   6.160   5.588 -0.4179  0.2529 -0.8344
 2091TIP3    H127688   2.023   6.179   5.647 -1.2031  1.7387 -2.2830
 2091TIP3    H227689   2.125   6.072   5.614 -0.2377  1.1385  2.2906
 2092TIP3   OH227690   3.616   4.569  12.962  0.2204  0.3045  0.0070
 2092TIP3    H127691   3.678   4.629  12.919 -0.5112  1.1149  0.0781
 2092TIP3    H227692   3.666   4.487  12.972  1.2300  0.8953 -0.0833
 2093TIP3   OH227693   4.568   1.096  13.006 -0.0569 -0.1000 -0.3642
 2093TIP3    H127694   4.553   1.147  13.086  1.0800 -0.6983  0.2428
 2093TIP3    H227695   4.514   1.018  13.017 -1.8534  0.9830 -1.3262
 2094TIP3   OH227696   4.927   6.248  11.990 -0.1318 -0.0450  0.0510
 2094TIP3    H127697   4.950   6.327  12.039  0.6677 -0.6175  0.6247
 2094TIP3    H227698   4.917   6.277  11.900  0.6690  0.6256  0.1718
 2095TIP3   OH227699   4.481   3.613  10.525 -0.0403  0.3175 -0.1330
 2095TIP3    H127700   4.506   3.662  10.447 -2.0278  0.7566 -0.5068
 2095TIP3    H227701   4.445   3.531  10.492  1.4279 -0.5800  0.4308
 2096TIP3   OH227702   2.897   5.863   0.653  0.4926  0.2491 -0.1916
 2096TIP3    H127703   2.801   5.852   0.656  0.4456  1.0781  1.6368
 2096TIP3    H227704   2.930   5.777   0.627 -0.9121  0.7883 -4.0987
 2097TIP3   OH227705   1.702   5.671  15.201  0.3484  0.3417 -0.2183
 2097TIP3    H127706   1.698   5.726  15.123 -1.4061  1.0708  0.3651
 2097TIP3    H227707   1.791   5.685  15.236  0.5570  1.3269 -1.1211
 2098TIP3   OH227708   4.164   2.419  16.723 -0.6520  0.7249  0.3599
 2098TIP3    H127709   4.073   2.388  16.721  0.0800 -1.4649 -1.3706
 2098TIP3    H227710   4.171   2.475  16.645  0.5194 -2.3703 -1.8423
 2099TIP3   OH227711   2.537   4.251  16.109  0.2626 -0.2312  0.2920
 2099TIP3    H127712   2.491   4.250  16.193 -0.9606 -1.0214 -0.3600
 2099TIP3    H227713   2.532   4.160  16.079  0.2367  0.1477 -0.8701
 2100TIP3   OH227714   4.154   5.994   2.055 -0.1373  0.3604  0.2305
 2100TIP3    H127715   4.094   6.026   1.988 -0.1980  1.2526  0.7164
 2100TIP3    H227716   4.098   5.963   2.126 -0.0318  1.5577  0.8532
 2101TIP3   OH227717   1.349   5.675   2.636 -0.4421  0.0017  0.4875
 2101TIP3    H127718   1.424   5.703   2.583 -0.3978  3.4393  2.1805
 2101TIP3    H227719   1.388   5.631   2.711 -0.3440 -1.5852 -0.4641
 2102TIP3   OH227720   3.133   5.209  10.580  0.9460 -0.1130  0.6167
 2102TIP3    H127721   3.155   5.124  10.617  0.2317  0.7201  3.0191
 2102TIP3    H227722   3.207   5.230  10.523  2.4507 -1.0895  2.1786
 2103TIP3   OH227723   2.022   0.958  13.273 -0.1968  0.0800 -0.1236
 2103TIP3    H127724   2.014   0.920  13.185  1.2622  1.3436 -0.8168
 2103TIP3    H227725   1.951   1.022  13.278  0.2042  0.5646 -0.6658
 2104TIP3   OH227726   4.028   2.748   5.394 -0.4032 -0.0903  0.2883
 2104TIP3    H127727   4.031   2.700   5.477 -2.2312  1.1052  1.0717
 2104TIP3    H227728   4.068   2.833   5.415 -2.3983  0.8419  0.4076
 2105TIP3   OH227729   6.582   1.988  14.126 -0.8664  0.1090 -0.3189
 2105TIP3    H127730   6.487   1.981  14.119 -0.9954  1.5053 -0.1196
 2105TIP3    H227731   6.599   1.998  14.220 -0.5003 -0.4298 -0.3246
 2106TIP3   OH227732   5.543   1.582  17.117 -0.3802  0.4318  0.6832
 2106TIP3    H127733   5.556   1.488  17.127 -0.5814  0.1837 -1.2725
 2106TIP3    H227734   5.626   1.615  17.083 -0.5679  0.8537  0.6306
 2107TIP3   OH227735   6.382   0.259  17.112  0.5676  0.2034 -0.0821
 2107TIP3    H127736   6.417   0.175  17.143  1.7209  0.2441 -1.2206
 2107TIP3    H227737   6.459   0.316  17.109 -0.2774  1.4280  1.0828
 2108TIP3   OH227738   0.332   4.314   1.985 -0.0148  0.2585  0.2761
 2108TIP3    H127739   0.288   4.289   2.066  1.4204  0.6920  1.2225
 2108TIP3    H227740   0.366   4.232   1.949 -1.3980 -0.0467 -0.3474
 2109TIP3   OH227741   3.729   5.146   1.839  0.1925 -0.0596  0.1922
 2109TIP3    H127742   3.825   5.138   1.845  0.5559  3.4256  0.1395
 2109TIP3    H227743   3.704   5.189   1.920 -1.2690 -0.3396 -0.1035
 2110TIP3   OH227744   4.643   4.735   2.499  0.2637  0.5334  0.1296
 2110TIP3    H127745   4.737   4.742   2.514  0.3727 -0.4530 -0.0692
 2110TIP3    H227746   4.605   4.808   2.548  1.1879  1.3665 -0.3654
 2111TIP3   OH227747   1.205   1.126   3.706  0.0018 -0.2014  0.4093
 2111TIP3    H127748   1.166   1.099   3.623  1.0360  0.0090 -0.1473
 2111TIP3    H227749   1.247   1.210   3.688  0.6206 -0.3657  1.0300
 2112TIP3   OH227750   4.606   1.106   4.085 -0.0285 -0.4173 -0.3238
 2112TIP3    H127751   4.613   1.165   4.009  0.0219 -1.0823 -0.8395
 2112TIP3    H227752   4.681   1.129   4.140  0.3768 -0.4568 -0.8499
 2113TIP3   OH227753   0.497   0.961  15.740 -0.0468 -0.2221 -0.1692
 2113TIP3    H127754   0.491   0.879  15.789 -0.5515  0.4357  0.8777
 2113TIP3    H227755   0.482   1.029  15.805 -2.2541  0.6164 -1.5121
 2114TIP3   OH227756   3.327   3.615   1.217 -0.0216  0.2463  0.6183
 2114TIP3    H127757   3.414   3.590   1.186 -1.0451 -2.4400 -0.1892
 2114TIP3    H227758   3.326   3.711   1.209  2.7665  0.3056  0.4668
 2115TIP3   OH227759   3.527   5.333   0.297  0.3582 -0.4255  0.0104
 2115TIP3    H127760   3.538   5.390   0.372  1.1210  0.6786 -0.9246
 2115TIP3    H227761   3.449   5.367   0.253  0.1895 -0.7699  0.0445
 2116TIP3   OH227762   6.180   6.139   1.525 -0.3604 -0.4691  0.6203
 2116TIP3    H127763   6.143   6.132   1.613 -1.3876 -0.7257  0.1684
 2116TIP3    H227764   6.227   6.223   1.525 -1.0515 -0.0845  1.1544
 2117TIP3   OH227765   1.642   0.174   4.434 -0.3065  0.3307 -0.0235
 2117TIP3    H127766   1.584   0.124   4.376 -1.3944 -0.1626  1.4635
 2117TIP3    H227767   1.635   0.264   4.402  0.4614 -0.2059 -1.7470
 2118TIP3   OH227768   2.218   5.923  12.221 -0.3888 -0.3686  0.2163
 2118TIP3    H127769   2.259   5.998  12.266  0.1837  0.0389 -0.9674
 2118TIP3    H227770   2.198   5.956  12.133  0.6829 -1.8745 -0.6030
 2119TIP3   OH227771   3.530   1.323   2.963  0.3346  0.2378  0.3119
 2119TIP3    H127772   3.568   1.407   2.988  1.5679  0.1816 -1.2634
 2119TIP3    H227773   3.539   1.268   3.040  3.7815  0.1330 -0.0907
 2120TIP3   OH227774   3.363   3.401   5.146 -0.2226 -0.4378 -0.1468
 2120TIP3    H127775   3.439   3.352   5.113  1.0806  0.4425  1.5095
 2120TIP3    H227776   3.367   3.485   5.100  0.6386  0.1479  0.9662
 2121TIP3   OH227777   0.800   3.241   4.992  0.3950  0.6273  0.4518
 2121TIP3    H127778   0.825   3.333   5.002 -0.2033  0.9556 -0.9524
 2121TIP3    H227779   0.794   3.208   5.082  4.7778  0.7939  0.9322
 2122TIP3   OH227780   4.114   1.858   4.875  0.7079 -0.0652  0.1257
 2122TIP3    H127781   4.085   1.934   4.825 -0.5639 -2.2884 -2.6379
 2122TIP3    H227782   4.075   1.869   4.962  2.8889  3.8185  0.6969
 2123TIP3   OH227783   0.050   5.412  13.973 -0.0724  0.2767 -0.2934
 2123TIP3    H127784   0.129   5.400  13.921 -0.5287 -1.4227 -0.6111
 2123TIP3    H227785   0.064   5.358  14.051 -1.7247 -1.5926 -1.2536
 2124TIP3   OH227786   4.876   5.900   3.680 -0.0507 -0.2423 -0.0869
 2124TIP3    H127787   4.919   5.890   3.595  0.2534 -0.4881  0.0973
 2124TIP3    H227788   4.895   5.991   3.705  1.3317 -0.6878  0.5237
 2125TIP3   OH227789   3.975   1.335   4.999 -0.1370 -0.1346 -0.2101
 2125TIP3    H127790   3.917   1.331   4.924  0.2349  0.8541 -0.5525
 2125TIP3    H227791   3.953   1.257   5.051 -1.9727  0.3805 -0.1827
 2126TIP3   OH227792   2.761   0.014  13.913  0.4131 -0.1588 -0.3672
 2126TIP3    H127793   2.754  -0.068  13.865 -2.4220  0.8559 -1.8008
 2126TIP3    H227794   2.671   0.033  13.942  1.6686  0.3942  3.4538
 2127TIP3   OH227795   4.358   0.355  15.190 -0.1764 -0.0038  0.1696
 2127TIP3    H127796   4.446   0.385  15.211 -0.6453  0.6014  1.2907
 2127TIP3    H227797   4.339   0.288  15.255 -0.9205  0.5535  0.5334
 2128TIP3   OH227798   6.436   6.537   2.952 -0.1354  0.4053 -0.0901
 2128TIP3    H127799   6.397   6.556   2.867 -0.0301  1.3588  0.0644
 2128TIP3    H227800   6.400   6.452   2.977  0.4953 -0.2879 -1.4693
 2129TIP3   OH227801   4.954   6.729  11.770  0.0953 -0.1450 -0.7016
 2129TIP3    H127802   4.925   6.646  11.807 -1.7604 -0.9911 -3.9276
 2129TIP3    H227803   4.883   6.790  11.790 -1.0650 -0.6813 -3.0220
 2130TIP3   OH227804   0.962   0.768  12.815  0.4464  0.0654  0.2137
 2130TIP3    H127805   0.911   0.787  12.894  0.6549  0.4948  0.2429
 2130TIP3    H227806   1.016   0.692  12.840  0.4650  0.1594  0.4641
 2131TIP3   OH227807   5.574   4.030  10.771  0.3070 -0.6909  0.3337
 2131TIP3    H127808   5.549   4.083  10.847 -1.1479 -0.4832 -0.2701
 2131TIP3    H227809   5.606   4.094  10.708 -1.0711 -0.5507 -0.2432
 2132TIP3   OH227810   3.172   5.771  15.148 -0.5365  0.0507  0.1297
 2132TIP3    H127811   3.132   5.824  15.217 -0.3836 -0.6945  0.7953
 2132TIP3    H227812   3.265   5.771  15.169 -0.5461 -0.5500  0.1793
 2133TIP3   OH227813   3.539   0.887   3.708  0.0957  0.3096 -0.0680
 2133TIP3    H127814   3.491   0.936   3.641 -1.9918  1.6467  2.3352
 2133TIP3    H227815   3.481   0.815   3.732  0.4473  0.3328  0.8937
 2134TIP3   OH227816   1.914   2.749   1.593 -0.0541  0.1499  0.0840
 2134TIP3    H127817   1.974   2.775   1.664 -0.6002  2.1704 -0.1922
 2134TIP3    H227818   1.967   2.692   1.537  1.1198  0.5738  0.7483
 2135TIP3   OH227819   4.056   0.084  10.979  0.5823 -1.0836  0.2231
 2135TIP3    H127820   4.013   0.014  11.028  2.3546 -3.1473 -1.0869
 2135TIP3    H227821   4.149   0.061  10.980  1.0154  0.4960 -1.4388
 2136TIP3   OH227822   2.899   4.562  12.079  0.1790 -0.4679  0.1742
 2136TIP3    H127823   2.843   4.494  12.041  0.1271  0.1467 -0.8951
 2136TIP3    H227824   2.882   4.559  12.173  0.1452 -1.9039  0.1224
 2137TIP3   OH227825   5.861   2.545  12.042 -0.0676  0.2290  0.2961
 2137TIP3    H127826   5.913   2.579  12.115  1.0039 -0.3297 -0.1883
 2137TIP3    H227827   5.771   2.568  12.063  0.2570  0.2481  1.6871
 2138TIP3   OH227828   0.552   1.725   2.366  0.1473 -0.3988  0.1706
 2138TIP3    H127829   0.586   1.661   2.428 -0.9557 -0.5151  0.6643
 2138TIP3    H227830   0.480   1.680   2.322  1.1129 -0.4206 -1.4235
 2139TIP3   OH227831   5.564   4.188  15.060 -0.1679  0.7675 -0.0973
 2139TIP3    H127832   5.621   4.177  14.984 -1.4320  0.8762 -1.0822
 2139TIP3    H227833   5.552   4.283  15.067 -0.2191  0.7453  0.1136
 2140TIP3   OH227834   4.343   3.885  11.500 -0.1386  0.2925 -0.2124
 2140TIP3    H127835   4.409   3.923  11.442 -1.5885  0.4394 -1.8008
 2140TIP3    H227836   4.370   3.793  11.510  0.9743  0.6507  0.1417
 2141TIP3   OH227837   3.506   6.347   4.648  0.1906 -0.1080 -0.6579
 2141TIP3    H127838   3.557   6.339   4.728 -1.4861  2.0309  0.6992
 2141TIP3    H227839   3.522   6.266   4.600  2.3725 -0.7832  1.1528
 2142TIP3   OH227840   1.582   3.961  16.544  0.0435 -0.9267 -0.0622
 2142TIP3    H127841   1.659   4.018  16.536 -1.0930  0.6527 -0.1268
 2142TIP3    H227842   1.603   3.902  16.617  0.8537  0.2356  0.6706
 2143TIP3   OH227843   3.305   6.373  12.174  0.2702 -0.0919  0.6795
 2143TIP3    H127844   3.320   6.378  12.079  0.7692 -2.5558  0.6125
 2143TIP3    H227845   3.213   6.397  12.184 -0.3229 -1.7363 -0.6382
 2144TIP3   OH227846   4.615   3.500   1.715 -0.4831  0.0449 -0.4096
 2144TIP3    H127847   4.660   3.568   1.765 -1.5686  1.3626 -1.1898
 2144TIP3    H227848   4.528   3.495   1.753 -0.0769 -1.6607  0.3203
 2145TIP3   OH227849   2.614   0.818  12.562  0.5184 -0.5971 -0.3802
 2145TIP3    H127850   2.597   0.883  12.494 -1.0123 -0.5249  0.0342
 2145TIP3    H227851   2.624   0.870  12.642  0.0445 -0.8074 -0.1787
 2146TIP3   OH227852   3.227   4.997  15.126  0.0254  0.1918  0.5413
 2146TIP3    H127853   3.245   4.925  15.064 -0.6746  0.5903 -0.1430
 2146TIP3    H227854   3.289   5.065  15.102  0.0016  0.2057  0.5219
 2147TIP3   OH227855   0.805   1.979  15.467 -0.1592  0.3360  0.8253
 2147TIP3    H127856   0.801   2.013  15.377  1.4237 -0.9434  0.2431
 2147TIP3    H227857   0.715   1.956  15.488 -0.4166 -0.2850 -0.8315
 2148TIP3   OH227858   4.370   4.187  15.258 -0.1678  0.5327 -0.1303
 2148TIP3    H127859   4.291   4.155  15.214 -0.9991 -0.2915  1.8836
 2148TIP3    H227860   4.401   4.112  15.309  2.4038  0.5919 -1.5054
 2149TIP3   OH227861   6.669   5.083   4.974  0.3298 -0.4235 -0.2180
 2149TIP3    H127862   6.717   5.001   4.981 -0.2733 -0.6209  1.9703
 2149TIP3    H227863   6.618   5.089   5.055 -2.5213  0.3155 -1.9653
 2150TIP3   OH227864   5.748   2.859   5.262 -0.0225 -0.9363  0.6860
 2150TIP3    H127865   5.671   2.805   5.281  0.4280 -1.5364  0.8117
 2150TIP3    H227866   5.768   2.903   5.345 -3.4634  3.4520 -0.5853
 2151TIP3   OH227867   4.047   5.714  16.967  0.0504 -0.4668  0.2489
 2151TIP3    H127868   3.956   5.694  16.987 -0.5870  2.8387  0.9743
 2151TIP3    H227869   4.093   5.708  17.050 -0.2295  1.3165  0.5564
 2152TIP3   OH227870   0.514   1.004  12.050  0.4369  0.6631 -0.1482
 2152TIP3    H127871   0.543   1.015  12.141  0.7714 -1.2274 -0.0137
 2152TIP3    H227872   0.419   0.996  12.056  0.5279 -0.2658  0.1228
 2153TIP3   OH227873   3.335   2.632   4.012  0.3038  0.1750  0.1172
 2153TIP3    H127874   3.401   2.584   3.961 -0.3692 -1.4025  0.6756
 2153TIP3    H227875   3.255   2.624   3.960  0.4716  1.8163 -0.4067
 2154TIP3   OH227876   2.493   5.448  11.781 -0.5509 -0.4440  0.8332
 2154TIP3    H127877   2.521   5.536  11.806 -0.5935 -1.2005  3.6915
 2154TIP3    H227878   2.404   5.441  11.815 -0.7989 -1.3577  0.0162
 2155TIP3   OH227879   3.223   0.314   3.710  0.1334  0.3274 -0.2326
 2155TIP3    H127880   3.131   0.291   3.719 -0.0634  0.1202 -2.4168
 2155TIP3    H227881   3.248   0.350   3.795 -2.0241  0.6374  0.2822
 2156TIP3   OH227882   0.095   5.662  16.688 -0.1766  0.1926 -0.4149
 2156TIP3    H127883   0.064   5.577  16.658  0.3071 -0.1165 -0.0539
 2156TIP3    H227884   0.093   5.656  16.783 -2.4747  1.4505 -0.3452
 2157TIP3   OH227885   3.015   6.205  16.275 -0.5641 -0.4093  0.1079
 2157TIP3    H127886   2.997   6.284  16.225 -1.2542 -0.7540 -0.1913
 2157TIP3    H227887   2.929   6.175  16.303 -0.3207 -1.1873  0.0230
 2158TIP3   OH227888   2.635   2.907  11.343  0.9572 -0.2950  1.0784
 2158TIP3    H127889   2.580   2.915  11.265  1.9561 -1.1256  0.2907
 2158TIP3    H227890   2.594   2.967  11.406  0.0339  0.2407  0.0009
 2159TIP3   OH227891   4.095   3.067  14.026  0.3245 -0.0621  0.1419
 2159TIP3    H127892   4.118   3.066  13.933  1.9086  0.2973  0.5149
 2159TIP3    H227893   4.100   2.975  14.052 -0.2776 -0.1847 -0.1526
 2160TIP3   OH227894   4.396   6.414  13.207 -0.5994 -0.7336 -0.5492
 2160TIP3    H127895   4.328   6.473  13.175 -1.4672 -1.3158  0.2034
 2160TIP3    H227896   4.374   6.399  13.299  0.0244 -1.6514 -0.5439
 2161TIP3   OH227897   3.120   0.914   0.712 -0.0472 -0.2397 -0.5160
 2161TIP3    H127898   3.130   0.941   0.803 -0.8481 -0.5518 -0.3327
 2161TIP3    H227899   3.030   0.881   0.706  0.8907 -2.9213 -0.6999
 2162TIP3   OH227900   4.860   6.167  16.951 -0.4907 -0.0600  0.4430
 2162TIP3    H127901   4.866   6.091  17.009 -0.1678  0.3928  1.0151
 2162TIP3    H227902   4.789   6.147  16.891 -0.3627 -0.8390  0.5567
 2163TIP3   OH227903   0.954   1.007  16.010 -0.4867  0.1127 -0.0038
 2163TIP3    H127904   0.876   1.034  16.059  1.3947  2.3371  1.8879
 2163TIP3    H227905   0.984   1.087  15.967 -0.3785 -1.1722 -2.4000
 2164TIP3   OH227906   0.137   3.305   1.348 -0.1588 -0.0612  0.0107
 2164TIP3    H127907   0.144   3.382   1.291  0.4415  0.4107  0.7108
 2164TIP3    H227908   0.109   3.234   1.290  1.0960  0.2574 -0.9976
 2165TIP3   OH227909   6.642   1.754   0.894  0.0049  0.0746  0.1525
 2165TIP3    H127910   6.571   1.731   0.954  0.9125 -0.3807  1.0810
 2165TIP3    H227911   6.610   1.730   0.808 -0.2947 -1.7875  0.7679
 2166TIP3   OH227912   0.758   2.062  13.690  0.0659 -0.7191 -0.6316
 2166TIP3    H127913   0.746   1.969  13.708 -1.1106 -0.7077 -1.2712
 2166TIP3    H227914   0.683   2.104  13.731  0.0222 -0.1679 -1.2715
 2167TIP3   OH227915   0.098   5.994   4.786  0.0806  0.0449 -0.5398
 2167TIP3    H127916   0.154   5.934   4.836 -0.0367 -0.0679 -0.5414
 2167TIP3    H227917   0.026   5.939   4.755  0.2798  0.0612 -1.0397
 2168TIP3   OH227918   2.120   2.151   2.640 -0.3839  0.8928  0.9957
 2168TIP3    H127919   2.121   2.225   2.579 -1.2504  1.2026  1.3551
 2168TIP3    H227920   2.050   2.095   2.608 -1.1862  1.3047  1.9947
 2169TIP3   OH227921   1.673   0.067   2.113  0.1854  0.1128 -0.0447
 2169TIP3    H127922   1.700   0.064   2.021  1.3944  0.4992  0.2838
 2169TIP3    H227923   1.738   0.123   2.155 -1.9810  2.2731  0.5336
 2170TIP3   OH227924   5.680   1.663  15.819  0.8911 -0.4228 -0.2744
 2170TIP3    H127925   5.717   1.715  15.890 -2.3991 -1.0292  2.0425
 2170TIP3    H227926   5.674   1.575  15.855  0.1746 -0.9701 -1.7053
 2171TIP3   OH227927   3.889   1.825  14.050 -0.9722 -0.6275 -0.2629
 2171TIP3    H127928   3.910   1.916  14.032  0.4929 -0.7415  0.8196
 2171TIP3    H227929   3.820   1.803  13.987  0.6928  0.3797 -2.4760
 2172TIP3   OH227930   1.952   5.375   2.468 -0.0131  0.1266 -0.1341
 2172TIP3    H127931   2.035   5.421   2.457  0.7002 -0.8533  1.0331
 2172TIP3    H227932   1.976   5.290   2.503 -1.5848  0.2462  1.3085
 2173TIP3   OH227933   0.680   1.950   4.253  0.9097  0.4285 -0.2137
 2173TIP3    H127934   0.591   1.987   4.254 -0.1056 -1.8890 -1.0816
 2173TIP3    H227935   0.734   2.018   4.214 -0.5277  1.8038  0.1450
 2174TIP3   OH227936   4.409   1.997   0.930  0.1856  0.0707  0.7392
 2174TIP3    H127937   4.461   1.983   0.850  0.5209  0.8434  0.8247
 2174TIP3    H227938   4.399   1.909   0.966  0.3319 -0.2462  0.0322
 2175TIP3   OH227939   3.433   2.485  13.231 -0.2912  0.3247  0.2608
 2175TIP3    H127940   3.380   2.553  13.273 -0.4569 -0.0975  0.7443
 2175TIP3    H227941   3.384   2.404  13.246 -1.2210  0.3824 -2.2429
 2176TIP3   OH227942   0.571   2.446  11.743  0.0658  0.7046 -0.0044
 2176TIP3    H127943   0.555   2.442  11.649 -3.2131 -1.8023  0.5719
 2176TIP3    H227944   0.661   2.413  11.754  0.5080  1.0927 -2.2226
 2177TIP3   OH227945   2.885   3.513   0.331  0.2574 -0.1022 -0.0645
 2177TIP3    H127946   2.972   3.549   0.315  0.1250  0.2050 -0.0908
 2177TIP3    H227947   2.861   3.471   0.248  1.0289 -1.5531  0.4212
 2178TIP3   OH227948   4.093   2.361   3.928  0.2474 -0.3020 -0.6337
 2178TIP3    H127949   4.148   2.289   3.958 -1.4618 -1.4934 -0.2526
 2178TIP3    H227950   4.090   2.353   3.833 -0.1076 -0.8799 -0.5767
 2179TIP3   OH227951   1.234   2.541   3.602  0.2011  0.1009  0.0157
 2179TIP3    H127952   1.193   2.574   3.522  1.1365 -1.7187 -1.2433
 2179TIP3    H227953   1.175   2.474   3.634  0.6568 -0.3569 -0.0952
 2180TIP3   OH227954   4.777   4.712   4.746 -0.2669 -0.1877 -0.1313
 2180TIP3    H127955   4.691   4.670   4.757  0.6547 -2.2188 -0.4719
 2180TIP3    H227956   4.814   4.714   4.834 -0.2856 -0.1417 -0.1243
 2181TIP3   OH227957   0.527   5.626  12.616 -0.7922 -0.1838  0.1722
 2181TIP3    H127958   0.572   5.612  12.533  0.5799  0.4622  0.7812
 2181TIP3    H227959   0.469   5.701  12.599 -0.8673 -0.3530 -0.3285
 2182TIP3   OH227960   1.056   0.040  15.618 -0.2579 -0.1224 -0.1879
 2182TIP3    H127961   1.068  -0.037  15.673  0.8515 -1.1174 -1.8011
 2182TIP3    H227962   1.122   0.102  15.649  1.6959 -1.4071 -1.6309
 2183TIP3   OH227963   5.514   6.178  15.032 -0.0194 -0.8076 -0.0740
 2183TIP3    H127964   5.586   6.115  15.035  2.7786  2.2399 -0.0724
 2183TIP3    H227965   5.523   6.220  14.946 -1.2185  0.2906  0.3143
 2184TIP3   OH227966   5.682   5.660   3.281 -0.1949  0.3643  0.4984
 2184TIP3    H127967   5.763   5.684   3.326  0.3671 -2.6706  1.1914
 2184TIP3    H227968   5.701   5.675   3.188  0.8471  0.5383  0.7382
 2185TIP3   OH227969   2.085   1.826  11.302  0.1923  0.1996 -0.3370
 2185TIP3    H127970   2.080   1.919  11.278 -2.2811  0.0864 -0.3993
 2185TIP3    H227971   2.116   1.782  11.223  0.1990  0.8186 -0.6832
 2186TIP3   OH227972   0.330   1.946  11.203 -0.3812 -0.8292  0.8929
 2186TIP3    H127973   0.260   1.988  11.152  1.6245  1.1333 -0.3546
 2186TIP3    H227974   0.333   1.996  11.285  2.2420  1.8896 -0.7330
 2187TIP3   OH227975   6.033   6.513   0.453 -0.7004 -0.7255 -0.3961
 2187TIP3    H127976   5.969   6.442   0.457 -1.4869  0.0526  3.2987
 2187TIP3    H227977   5.982   6.588   0.422 -0.8210 -0.8495 -0.5007
 2188TIP3   OH227978   3.436   2.917   1.473 -0.0790  0.3557 -0.2209
 2188TIP3    H127979   3.426   2.997   1.423  1.1717 -0.5177 -1.9495
 2188TIP3    H227980   3.350   2.875   1.470  0.1548 -0.0150 -2.2472
 2189TIP3   OH227981   2.230   4.988   3.084 -0.6601 -0.1052 -0.1685
 2189TIP3    H127982   2.249   5.075   3.049 -0.6961 -0.5462 -1.2978
 2189TIP3    H227983   2.142   4.968   3.053 -0.7614 -0.4320  0.3221
 2190TIP3   OH227984   5.372   1.271  12.156  0.1709  0.1502 -0.1273
 2190TIP3    H127985   5.426   1.236  12.085 -1.0189 -0.1003 -0.9351
 2190TIP3    H227986   5.332   1.193  12.196 -0.7821  0.4202 -0.5304
 2191TIP3   OH227987   2.837   1.512  12.758 -0.5836  0.9630 -0.1022
 2191TIP3    H127988   2.829   1.600  12.795  0.8888  0.4178  1.5614
 2191TIP3    H227989   2.930   1.492  12.762 -0.7579 -0.2581 -1.4826
 2192TIP3   OH227990   3.422   4.108  11.012  0.4657  0.3248  0.1006
 2192TIP3    H127991   3.338   4.112  11.058  0.8297  1.7167  0.6616
 2192TIP3    H227992   3.463   4.027  11.043  1.1621  1.7387  3.0541
 2193TIP3   OH227993   1.776   6.486   2.629 -0.0840 -0.1413 -0.2023
 2193TIP3    H127994   1.734   6.425   2.568  0.3148 -2.7300  2.0163
 2193TIP3    H227995   1.870   6.470   2.617  0.0378  0.3436  0.1021
 2194TIP3   OH227996   2.780   4.146   1.575 -0.0187 -0.7306 -0.0920
 2194TIP3    H127997   2.829   4.101   1.644  3.9046  0.4624 -1.9829
 2194TIP3    H227998   2.734   4.217   1.621  1.1618 -0.9818  1.5324
 2195TIP3   OH227999   4.369   2.101   5.543 -0.2233 -0.5623 -0.3160
 2195TIP3    H128000   4.370   2.164   5.470  0.3096  1.4912  1.3954
 2195TIP3    H228001   4.442   2.129   5.599 -1.0839 -1.6513  1.3782
 2196TIP3   OH228002   4.959   1.451  11.135 -0.5603  0.4401  0.0793
 2196TIP3    H128003   5.046   1.465  11.174  0.6574 -1.7135 -1.7200
 2196TIP3    H228004   4.961   1.502  11.054 -1.3345  1.0815  0.4500
 2197TIP3   OH228005   1.101   2.801   5.444  0.0058 -0.2393 -0.0134
 2197TIP3    H128006   1.057   2.762   5.519  0.9216 -1.1768  0.0427
 2197TIP3    H228007   1.034   2.801   5.375 -0.2824 -1.0797  0.2563
 2198TIP3   OH228008   1.966   1.563  16.538 -0.5520 -0.1531  0.3956
 2198TIP3    H128009   1.948   1.504  16.611 -1.5187  0.3319  0.5583
 2198TIP3    H228010   2.032   1.517  16.486 -0.2908 -0.7647  1.2506
 2199TIP3   OH228011   3.270   0.834   4.823  0.0580 -0.1878 -0.1295
 2199TIP3    H128012   3.197   0.896   4.816 -0.9793 -1.4739 -1.0980
 2199TIP3    H228013   3.227   0.748   4.823  1.5805 -0.9593 -0.7616
 2200TIP3   OH228014   5.367   6.117   0.328 -0.2950  0.6642  0.1320
 2200TIP3    H128015   5.430   6.156   0.267  0.7830  1.0015  1.4446
 2200TIP3    H228016   5.282   6.135   0.289  0.3973  0.5770 -1.4446
 2201TIP3   OH228017   4.583   5.152  14.933 -0.0229  0.0009  0.1065
 2201TIP3    H128018   4.542   5.082  14.881 -0.5895  0.9410 -0.7351
 2201TIP3    H228019   4.616   5.214  14.868  3.3849 -1.0313  0.7326
 2202TIP3   OH228020   2.298   3.774   5.680 -0.3861 -0.8877  0.0185
 2202TIP3    H128021   2.340   3.788   5.596 -0.1267  1.4357  0.4856
 2202TIP3    H228022   2.370   3.764   5.742 -0.4720  1.6642  0.5942
 2203TIP3   OH228023   5.251   2.383  15.294  0.0264  0.2018 -0.1103
 2203TIP3    H128024   5.286   2.308  15.247  0.7211  0.2124  0.3775
 2203TIP3    H228025   5.197   2.429  15.230 -1.9561 -1.7396  0.1037
 2204TIP3   OH228026   1.111   3.706   0.311 -0.6047  0.0845 -0.4330
 2204TIP3    H128027   1.073   3.704   0.398 -1.4759 -0.6795 -0.8131
 2204TIP3    H228028   1.096   3.618   0.276  0.5663  0.0886 -1.0056
 2205TIP3   OH228029   1.698   4.064  17.211 -0.1637 -0.0551  0.6749
 2205TIP3    H128030   1.728   4.138  17.158  1.4959 -0.2311  1.3336
 2205TIP3    H228031   1.643   4.012  17.152  1.3315 -0.0342 -0.7716
 2206TIP3   OH228032   3.346   2.522  12.458  0.1846 -0.5907 -0.4771
 2206TIP3    H128033   3.392   2.605  12.474 -0.2942 -0.1082 -1.5603
 2206TIP3    H228034   3.295   2.508  12.537  1.1366 -0.4309  0.1841
 2207TIP3   OH228035   4.539   1.224   0.331 -0.0741  0.1761  0.5511
 2207TIP3    H128036   4.460   1.191   0.288  0.3840  1.2100 -1.1836
 2207TIP3    H228037   4.507   1.288   0.394 -0.6854 -0.0239  0.4463
 2208TIP3   OH228038   3.311   2.078  15.880  0.3375  0.1415  0.4493
 2208TIP3    H128039   3.278   2.138  15.948 -0.9375  0.4506 -0.4060
 2208TIP3    H228040   3.331   1.997  15.926 -1.9427 -0.1459  0.9862
 2209TIP3   OH228041   0.312   5.732  14.537 -0.0901  0.0913  0.3911
 2209TIP3    H128042   0.272   5.690  14.461 -0.8572  1.4093  0.0468
 2209TIP3    H228043   0.283   5.680  14.612 -3.3929  1.6070  0.2675
 2210TIP3   OH228044   4.278   4.204   2.628  0.0798 -1.0142  0.8394
 2210TIP3    H128045   4.189   4.186   2.658  0.1999 -2.8840  0.1466
 2210TIP3    H228046   4.293   4.140   2.558  0.9931  1.0621 -0.9200
 2211TIP3   OH228047   2.967   1.858  10.802 -0.2062  0.6768 -0.5287
 2211TIP3    H128048   2.883   1.873  10.845 -1.0260 -1.1225 -1.4609
 2211TIP3    H228049   2.987   1.941  10.759 -0.7383  1.6018  0.9547
 2212TIP3   OH228050   2.769   0.766  10.991  0.0911  0.3371 -0.0868
 2212TIP3    H128051   2.752   0.692  11.050 -2.3464  1.0660  0.1659
 2212TIP3    H228052   2.837   0.734  10.932 -0.0831 -1.7092  0.7833
 2213TIP3   OH228053   6.574   1.776   4.099  0.3425 -0.0256  0.3482
 2213TIP3    H128054   6.482   1.800   4.110  0.7392  1.8144 -0.1501
 2213TIP3    H228055   6.575   1.681   4.105 -1.6936 -0.1112 -0.3416
 2214TIP3   OH228056   4.376   4.422   3.566  1.1839  0.3413  0.4074
 2214TIP3    H128057   4.406   4.415   3.656  0.0685 -0.8087  0.7118
 2214TIP3    H228058   4.443   4.378   3.514  1.6849  0.7507  0.7136
 2215TIP3   OH228059   1.921   1.725  11.034 -0.1964 -0.0099 -0.2124
 2215TIP3    H128060   2.015   1.710  11.033 -0.1846  0.1343 -1.2215
 2215TIP3    H228061   1.910   1.815  11.003 -0.8106 -0.8658 -2.5691
 2216TIP3   OH228062   3.729   4.951  11.122  0.2262  0.9114  0.2022
 2216TIP3    H128063   3.635   4.969  11.121 -0.0736 -0.5999  0.1342
 2216TIP3    H228064   3.747   4.916  11.209  0.2698 -1.0272 -0.5540
 2217TIP3   OH228065   1.258   1.002  10.774 -0.5019 -0.2392  0.6463
 2217TIP3    H128066   1.236   1.090  10.742  1.3497 -0.6403 -1.8598
 2217TIP3    H228067   1.303   1.017  10.856  1.0360  1.2639 -0.4398
 2218TIP3   OH228068   5.526   6.384  12.200 -0.5166 -0.1177 -0.3042
 2218TIP3    H128069   5.530   6.415  12.290 -1.3403  1.9337 -0.9566
 2218TIP3    H228070   5.592   6.315  12.196  0.5027  0.7157  1.4880
 2219TIP3   OH228071   6.419   5.412  13.798 -0.2377 -0.0884 -0.1289
 2219TIP3    H128072   6.484   5.481  13.808 -0.7728  0.5049 -0.7626
 2219TIP3    H228073   6.467   5.341  13.755 -0.1296  0.5219 -1.0270
 2220TIP3   OH228074   5.103   0.506   1.934 -0.2069 -0.4331  0.2214
 2220TIP3    H128075   5.168   0.438   1.919  0.2930  0.1914 -0.4354
 2220TIP3    H228076   5.109   0.524   2.028  0.9136 -0.0260  0.0758
 2221TIP3   OH228077   0.691   5.444  13.069  0.3293 -0.6788  0.0518
 2221TIP3    H128078   0.781   5.436  13.036  1.2739  0.3371  2.2197
 2221TIP3    H228079   0.699   5.424  13.163 -1.5867  0.1311  0.4010
 2222TIP3   OH228080   4.162   6.723   0.676  0.1067  0.0462  0.1940
 2222TIP3    H128081   4.122   6.755   0.595  0.2060  0.7843  0.4338
 2222TIP3    H228082   4.148   6.794   0.739  1.4566  0.1555  0.3817
 2223TIP3   OH228083   3.348   3.233   4.340  0.3017 -0.0391 -0.3944
 2223TIP3    H128084   3.390   3.149   4.358  0.8870  0.3737  0.1940
 2223TIP3    H228085   3.341   3.275   4.426  1.1340  1.0266 -0.8247
 2224TIP3   OH228086   5.557   2.920   1.646 -0.3909 -0.2421 -0.0344
 2224TIP3    H128087   5.473   2.950   1.681 -0.9558 -1.8822  0.0724
 2224TIP3    H228088   5.552   2.824   1.651 -0.0233 -0.5110 -3.4915
 2225TIP3   OH228089   3.728   4.518   0.472 -0.5540 -0.9517  0.4322
 2225TIP3    H128090   3.671   4.589   0.442  1.2060  0.1063 -0.4559
 2225TIP3    H228091   3.768   4.552   0.553  2.1188  0.0812 -1.2509
 2226TIP3   OH228092   4.533   0.029   3.235 -0.3103 -1.3018  0.1391
 2226TIP3    H128093   4.622   0.042   3.201 -0.6281 -0.6119 -0.4373
 2226TIP3    H228094   4.492  -0.030   3.171 -0.2096 -1.7574  0.4967
 2227TIP3   OH228095   6.272   2.756   4.250 -0.0751 -0.2505  0.1882
 2227TIP3    H128096   6.181   2.736   4.228 -1.1305  1.9645  2.3393
 2227TIP3    H228097   6.306   2.800   4.172 -1.0725 -0.4276 -0.3581
 2228TIP3   OH228098   1.818   0.833  15.773  0.2463 -0.5359  0.1688
 2228TIP3    H128099   1.736   0.831  15.722  0.1330  0.9170  0.2826
 2228TIP3    H228100   1.884   0.860  15.709  0.5716 -1.2706  0.1874
 2229TIP3   OH228101   2.032   2.526  16.790  0.0197 -0.8781 -0.0396
 2229TIP3    H128102   2.004   2.580  16.717  2.3449 -1.2101 -1.2166
 2229TIP3    H228103   1.981   2.445  16.781 -0.6742 -0.3963 -0.4932
 2230TIP3   OH228104   0.051   3.274   1.084  0.2417 -0.1715 -0.8820
 2230TIP3    H128105   0.015   3.251   0.998 -0.1243 -0.0006 -0.7772
 2230TIP3    H228106   0.145   3.270   1.073  0.2004  0.3071 -1.4237
 2231TIP3   OH228107   4.857   4.349  11.764 -0.0242  0.5514 -0.0861
 2231TIP3    H128108   4.799   4.315  11.696  0.2216  0.7323 -0.3888
 2231TIP3    H228109   4.892   4.430  11.727 -1.7576  1.9239  1.2227
 2232TIP3   OH228110   6.623   0.785  14.874 -0.1874  0.0061 -0.0802
 2232TIP3    H128111   6.566   0.774  14.951 -0.1011 -1.7701 -0.2698
 2232TIP3    H228112   6.700   0.732  14.892  0.4370  0.6349 -0.8286
 2233TIP3   OH228113   2.151   1.751  11.917 -0.1076  0.3246 -0.1153
 2233TIP3    H128114   2.147   1.715  12.006  0.6236  0.1000 -0.1678
 2233TIP3    H228115   2.226   1.811  11.919  1.4071 -1.4757 -1.2296
 2234TIP3   OH228116   0.033   6.751  14.466  0.2626 -0.0724 -0.2153
 2234TIP3    H128117  -0.010   6.833  14.493 -0.0505 -0.4360  0.3908
 2234TIP3    H228118   0.096   6.778  14.398  0.6759  0.7685  0.4994
 2235TIP3   OH228119   2.389   6.343   5.827 -0.8934 -0.1798 -0.1900
 2235TIP3    H128120   2.451   6.309   5.891 -2.2033 -1.9698  0.1897
 2235TIP3    H228121   2.368   6.267   5.772 -0.1745  1.1901 -2.4448
 2236TIP3   OH228122   2.629   1.053  12.378 -0.4863 -0.3945 -0.1549
 2236TIP3    H128123   2.718   1.037  12.345 -0.1153 -0.9051  1.0682
 2236TIP3    H228124   2.632   1.142  12.411 -0.8735  0.1374 -1.5045
 2237TIP3   OH228125   5.519   6.125   0.798 -0.4039 -1.2285  0.0963
 2237TIP3    H128126   5.439   6.155   0.754  0.7314 -0.4707 -1.5495
 2237TIP3    H228127   5.493   6.048   0.847 -3.0734  1.4045  3.0350
 2238TIP3   OH228128   6.176   5.771  13.153  0.6780  0.1329  0.0570
 2238TIP3    H128129   6.130   5.793  13.072 -1.0269 -1.0846  0.6569
 2238TIP3    H228130   6.210   5.683  13.138  0.9262  0.1697  0.4110
 2239TIP3   OH228131   0.354   0.540   6.100 -0.2292  0.3233  0.1782
 2239TIP3    H128132   0.433   0.488   6.112 -0.4712  0.3274  1.9448
 2239TIP3    H228133   0.296   0.511   6.170 -1.6428  0.6266 -0.8343
 2240TIP3   OH228134   5.393   6.464   0.617 -0.8239  0.3262  0.0759
 2240TIP3    H128135   5.382   6.441   0.524 -1.0685 -2.1144  0.6576
 2240TIP3    H228136   5.371   6.557   0.621  1.6990  1.1477 -2.7322
 2241TIP3   OH228137   0.159   4.368  12.131 -0.5300 -0.4019 -0.9298
 2241TIP3    H128138   0.139   4.450  12.176 -0.9984 -1.3118  0.5540
 2241TIP3    H228139   0.216   4.393  12.058 -0.6341  1.2240 -0.4558
 2242TIP3   OH228140   0.795   3.616  15.767  0.3559 -0.2885  0.2047
 2242TIP3    H128141   0.770   3.697  15.810  0.5159  0.7759 -1.6700
 2242TIP3    H228142   0.768   3.627  15.676  2.6951 -1.2835 -0.6539
 2243TIP3   OH228143   1.146   5.014   0.144 -0.1542 -0.0102 -0.1944
 2243TIP3    H128144   1.106   4.928   0.126  0.3495 -0.6647  1.6844
 2243TIP3    H228145   1.076   5.065   0.184 -0.0028 -0.0661  0.1379
 2244TIP3   OH228146   2.877   1.623  14.080 -0.3147 -0.1667 -0.6424
 2244TIP3    H128147   2.971   1.612  14.063 -0.4116 -0.9369 -0.6925
 2244TIP3    H228148   2.838   1.539  14.056 -1.4390  1.1168 -3.4989
 2245TIP3   OH228149   5.594   1.211  12.760 -0.6049 -0.6784 -0.2658
 2245TIP3    H128150   5.568   1.161  12.838 -0.2511  0.3294  0.5023
 2245TIP3    H228151   5.531   1.184  12.693 -2.0879 -0.1365  0.8743
 2246TIP3   OH228152   0.001   2.574  14.277  0.0465 -0.5709  0.2274
 2246TIP3    H128153  -0.076   2.632  14.272  0.5037 -0.0543 -0.9708
 2246TIP3    H228154  -0.025   2.495  14.230  1.4420  0.9932 -3.3320
 2247TIP3   OH228155   6.281   1.768  12.742  0.8331 -0.1484 -0.0447
 2247TIP3    H128156   6.208   1.708  12.728 -0.0956  1.4640 -2.4165
 2247TIP3    H228157   6.288   1.775  12.837 -1.7553 -0.7587  0.2301
 2248TIP3   OH228158   5.587   4.125  15.328  0.3284 -0.1117 -0.0406
 2248TIP3    H128159   5.526   4.191  15.362  0.6780 -0.0678  0.5178
 2248TIP3    H228160   5.557   4.108  15.238 -1.1965 -0.9151  0.5795
 2249TIP3   OH228161   6.071   5.130  14.053 -0.1098 -0.3524  0.3445
 2249TIP3    H128162   6.101   5.117  14.142  0.8420 -1.7637 -0.1580
 2249TIP3    H228163   6.102   5.217  14.029 -2.7827  1.1972  2.3222
 2250TIP3   OH228164   5.566   5.486  17.166  0.0280  0.0729  0.2276
 2250TIP3    H128165   5.539   5.467  17.076  1.4147  1.9911 -0.6253
 2250TIP3    H228166   5.582   5.399  17.204  1.8502 -0.7065 -2.1662
 2251TIP3   OH228167   4.676   3.957   5.762  0.1550  0.0191 -1.1333
 2251TIP3    H128168   4.711   4.046   5.758 -0.2437  0.1689 -1.2886
 2251TIP3    H228169   4.618   3.951   5.686 -0.2906 -0.1716 -0.7825
 2252TIP3   OH228170   2.991   1.632  15.820 -0.1997 -0.5732  0.0364
 2252TIP3    H128171   2.997   1.599  15.730  0.6056 -0.4786  0.0557
 2252TIP3    H228172   3.007   1.555  15.875 -1.3936 -0.7789  0.1149
 2253TIP3   OH228173   1.017   5.193   2.913  0.5457 -0.7432  0.0520
 2253TIP3    H128174   1.060   5.111   2.937  1.0607 -1.9279 -4.4283
 2253TIP3    H228175   1.087   5.257   2.907  0.7403 -1.0076 -0.5236
 2254TIP3   OH228176   4.171   3.943   2.764  0.1266  0.2978 -0.4933
 2254TIP3    H128177   4.222   3.903   2.694  0.7801  0.9958 -0.4193
 2254TIP3    H228178   4.081   3.944   2.731  0.3419  0.0787 -1.0801
 2255TIP3   OH228179   2.079   2.290   0.963 -0.3973 -0.4807 -0.5121
 2255TIP3    H128180   2.106   2.199   0.951 -0.3936 -0.3089 -1.8837
 2255TIP3    H228181   1.984   2.290   0.948 -0.2257 -0.0767 -1.6465
 2256TIP3   OH228182   3.625   4.013  15.588  0.0744  0.2379  0.5429
 2256TIP3    H128183   3.720   4.009  15.579  0.1077  1.4183  0.2785
 2256TIP3    H228184   3.595   3.926  15.561  1.1628 -0.6027  1.9618
 2257TIP3   OH228185   5.568   4.414   1.299 -0.1026 -0.3359 -0.4018
 2257TIP3    H128186   5.506   4.465   1.351  0.6858  0.5561 -0.3356
 2257TIP3    H228187   5.636   4.476   1.275  1.3965 -1.5925  0.5513
 2258TIP3   OH228188   1.564   2.162   4.517 -0.0294 -0.5258 -0.2734
 2258TIP3    H128189   1.515   2.081   4.510 -1.3363  0.0416  1.7588
 2258TIP3    H228190   1.596   2.164   4.608  1.1995  0.5377 -0.7048
 2259TIP3   OH228191   5.484   6.262  11.957 -0.2193  0.0102 -0.2133
 2259TIP3    H128192   5.559   6.214  11.992 -0.2161  0.9784  1.1671
 2259TIP3    H228193   5.463   6.327  12.025 -1.6301  0.4613 -1.0470
 2260TIP3   OH228194   3.834   2.659   1.485  0.1224  0.1992 -0.0865
 2260TIP3    H128195   3.820   2.667   1.391  0.0158  1.4443  0.0363
 2260TIP3    H228196   3.929   2.650   1.495  0.2813  1.7092 -0.1973
 2261TIP3   OH228197   5.461   1.243   0.135  0.1606  0.0053  0.3219
 2261TIP3    H128198   5.493   1.241   0.225 -2.1492 -0.8876  1.1541
 2261TIP3    H228199   5.466   1.335   0.110 -1.5276  0.6599  2.2592
 2262TIP3   OH228200   0.596   2.240  10.992 -0.3837  0.3820  0.1423
 2262TIP3    H128201   0.660   2.169  10.993 -0.1326  0.5890 -0.5384
 2262TIP3    H228202   0.646   2.318  11.012 -0.9731  0.1489  2.6811
 2263TIP3   OH228203   4.603   3.531   3.649  0.1587  0.1471 -0.6083
 2263TIP3    H128204   4.563   3.499   3.569 -0.8502 -1.2030  0.4055
 2263TIP3    H228205   4.553   3.490   3.719  0.9422  1.3972  0.7223
 2264TIP3   OH228206   5.829   6.412  15.425  0.4851  0.0668 -0.1620
 2264TIP3    H128207   5.842   6.328  15.381 -0.6896 -1.3666  2.1467
 2264TIP3    H228208   5.916   6.453  15.424  1.0019 -1.0076 -1.6056
 2265TIP3   OH228209   4.245   1.320  13.254  0.8446 -0.3253 -0.5272
 2265TIP3    H128210   4.225   1.315  13.348  0.2857  3.3502 -0.3999
 2265TIP3    H228211   4.340   1.307  13.249  0.7766 -1.3002  0.4305
 2266TIP3   OH228212   0.981   0.571   2.460 -0.9354  0.3678 -0.2535
 2266TIP3    H128213   0.925   0.635   2.415 -0.5904  0.4569 -0.5555
 2266TIP3    H228214   1.041   0.624   2.512  0.3581  0.3446 -1.6835
 2267TIP3   OH228215   2.540   2.085   5.410  0.8183 -0.1564 -0.3264
 2267TIP3    H128216   2.552   2.030   5.487  1.9122  1.0896  0.4149
 2267TIP3    H228217   2.466   2.141   5.432  1.1842  0.2575 -0.1333
 2268TIP3   OH228218   2.753   2.760  11.679  0.5604 -0.5002  0.0107
 2268TIP3    H128219   2.817   2.815  11.633 -0.3127 -0.1538 -0.8316
 2268TIP3    H228220   2.746   2.681  11.625 -0.1103 -0.3029 -0.2050
 2269TIP3   OH228221   6.717   2.139  16.763  0.1422  0.5570 -0.2033
 2269TIP3    H128222   6.631   2.153  16.803  0.4236  0.6410  0.3855
 2269TIP3    H228223   6.776   2.130  16.837  0.7267  1.0471 -0.6035
 2270TIP3   OH228224   4.521   4.890   4.212  0.4418  0.2914 -0.3730
 2270TIP3    H128225   4.556   4.894   4.301  1.4286  2.1380 -0.8113
 2270TIP3    H228226   4.520   4.797   4.191  1.7911 -0.0504  0.9673
 2271TIP3   OH228227   1.775   6.735   2.428  0.3062 -0.6081  0.2471
 2271TIP3    H128228   1.720   6.656   2.433  0.2224 -0.6397 -1.1197
 2271TIP3    H228229   1.717   6.802   2.391  1.6052 -1.0507 -2.7022
 2272TIP3   OH228230   1.937   5.493  15.267 -0.0384 -0.8299 -0.5238
 2272TIP3    H128231   2.021   5.465  15.301 -0.1240  0.4115  0.7790
 2272TIP3    H228232   1.956   5.572  15.217 -0.2958 -1.1136 -1.0786
 2273TIP3   OH228233   2.975   0.645  11.734 -0.3030  0.0191  0.8896
 2273TIP3    H128234   3.017   0.564  11.706  1.2109  0.7514  0.9861
 2273TIP3    H228235   3.035   0.714  11.706 -1.6005  1.1097  0.7573
 2274TIP3   OH228236   1.504   3.692   4.482 -0.3692 -0.4696  0.4673
 2274TIP3    H128237   1.574   3.741   4.440 -1.0331 -0.7045 -0.9536
 2274TIP3    H228238   1.531   3.684   4.573  2.2543 -1.9321 -0.3718
 2275TIP3   OH228239   2.042   1.855  14.411  0.0958  1.1186  0.2560
 2275TIP3    H128240   2.068   1.931  14.359 -0.4629  0.0960 -1.5566
 2275TIP3    H228241   1.979   1.809  14.357 -1.2714  0.5385  2.2741
 2276TIP3   OH228242   4.541   0.743   2.493  0.1857  0.0175 -0.3580
 2276TIP3    H128243   4.519   0.770   2.404 -1.9259 -2.4705 -0.6580
 2276TIP3    H228244   4.464   0.768   2.545  0.2248 -1.0784  0.2314
 2277TIP3   OH228245   4.196   6.209  16.174  0.5300  0.0006 -0.2108
 2277TIP3    H128246   4.118   6.255  16.204  1.7304  0.8659  1.6704
 2277TIP3    H228247   4.268   6.252  16.220  2.1678 -0.4963 -2.2232
 2278TIP3   OH228248   2.260   3.010   0.305 -0.7222  0.0178  0.3825
 2278TIP3    H128249   2.195   2.988   0.372 -0.0435 -2.0754  0.4057
 2278TIP3    H228250   2.334   2.952   0.324  0.0224  0.3713 -1.3522
 2279TIP3   OH228251   5.746   2.754  12.786  0.1540  0.2694 -0.5057
 2279TIP3    H128252   5.792   2.815  12.845 -0.1917  0.9757 -0.9575
 2279TIP3    H228253   5.677   2.807  12.746  1.2540  0.1555 -2.6138
 2280TIP3   OH228254   0.417   1.510  15.686 -0.5498 -0.2152 -0.5359
 2280TIP3    H128255   0.461   1.432  15.652 -0.6617  0.8989 -3.3924
 2280TIP3    H228256   0.488   1.573  15.702 -0.4466 -0.9065  1.8822
 2281TIP3   OH228257   0.376   5.845  12.560  0.3555  0.1036  0.3755
 2281TIP3    H128258   0.327   5.899  12.622  0.2798  2.1573 -1.4152
 2281TIP3    H228259   0.310   5.817  12.496  1.1936  1.5141 -1.1281
 2282TIP3   OH228260   6.667   0.148  13.799  0.0708  0.1740 -0.2889
 2282TIP3    H128261   6.579   0.167  13.766 -0.3910 -1.1646  0.1246
 2282TIP3    H228262   6.665   0.177  13.890 -0.4073 -1.1427  0.1338
 2283TIP3   OH228263   0.177   2.097  14.059  0.3925  0.1821 -0.0026
 2283TIP3    H128264   0.144   2.141  14.137  1.3417 -0.2075  0.6150
 2283TIP3    H228265   0.271   2.117  14.057  0.2897  0.6336 -1.3321
 2284TIP3   OH228266   5.416   5.182  16.507 -0.1350  0.2753 -0.0435
 2284TIP3    H128267   5.344   5.189  16.569 -0.4459 -0.3445 -0.3385
 2284TIP3    H228268   5.444   5.091  16.511 -1.0878 -0.1213 -1.8649
 2285TIP3   OH228269   4.174   5.567   5.096 -0.3594  0.3349  0.2935
 2285TIP3    H128270   4.224   5.545   5.174  1.2939  3.9778  0.3456
 2285TIP3    H228271   4.111   5.633   5.125 -1.3518 -0.0378 -0.9583
 2286TIP3   OH228272   1.719   0.331  14.349  0.4236 -0.3234 -0.3841
 2286TIP3    H128273   1.756   0.387  14.416 -2.3888 -0.2986  1.2213
 2286TIP3    H228274   1.701   0.248  14.394 -0.8624 -0.5385 -1.2555
 2287TIP3   OH228275   6.109   3.151  12.551 -0.0383  0.3387 -0.1180
 2287TIP3    H128276   6.091   3.092  12.624  1.8818  0.5135  0.5136
 2287TIP3    H228277   6.105   3.095  12.474 -0.9764 -0.0685  0.2199
 2288TIP3   OH228278   6.053   6.717   4.480 -0.1096  0.5344 -0.1962
 2288TIP3    H128279   5.957   6.724   4.481 -0.0179  1.9775  1.4757
 2288TIP3    H228280   6.076   6.710   4.387 -1.9081 -1.2659 -0.5412
 2289TIP3   OH228281   6.576   2.981   5.915  0.1589 -0.1559 -0.0566
 2289TIP3    H128282   6.663   2.952   5.942  0.3953  0.3748 -0.2437
 2289TIP3    H228283   6.517   2.940   5.978  0.6589  0.5793  0.9098
 2290TIP3   OH228284   4.047   2.124   4.867  0.5924 -0.4232 -0.4021
 2290TIP3    H128285   4.047   2.218   4.884  1.1073 -0.2085 -1.5610
 2290TIP3    H228286   3.956   2.097   4.882  0.0252  0.5983 -1.8173
 2291TIP3   OH228287   1.044   1.386  13.629 -0.3843 -0.3405  0.3614
 2291TIP3    H128288   1.058   1.293  13.610 -0.4576 -0.2766  0.0007
 2291TIP3    H228289   1.084   1.399  13.715 -1.0107 -0.8776  0.7460
 2292TIP3   OH228290   4.314   0.605   1.059  0.1264  0.7818  0.2209
 2292TIP3    H128291   4.252   0.533   1.047  0.3792  0.2711  1.8163
 2292TIP3    H228292   4.384   0.568   1.112  2.4579  1.0188 -2.5819
 2293TIP3   OH228293   2.421   0.377   2.243 -0.1105 -0.1667 -0.6547
 2293TIP3    H128294   2.470   0.297   2.224  0.1378 -0.2014  0.1503
 2293TIP3    H228295   2.345   0.348   2.294 -0.2650  0.0556 -0.7554
 2294TIP3   OH228296   2.590   5.807   3.257 -0.1725  0.2362  0.1753
 2294TIP3    H128297   2.630   5.727   3.291  1.5763  1.4312  1.0234
 2294TIP3    H228298   2.500   5.782   3.237  0.0878 -1.7038  1.2586
 2295TIP3   OH228299   2.162   6.116   1.668  1.5020  0.4161  0.0438
 2295TIP3    H128300   2.162   6.074   1.755 -0.2175  0.4689  0.0708
 2295TIP3    H228301   2.081   6.165   1.665  1.9268  1.0458 -1.3174
 2296TIP3   OH228302   2.315   3.627  14.437  0.2551 -0.1816 -0.0852
 2296TIP3    H128303   2.266   3.687  14.493  0.4744 -0.1511  0.0761
 2296TIP3    H228304   2.249   3.573  14.395  0.2291 -1.9035  2.0985
 2297TIP3   OH228305   2.585   0.947  14.279  0.0539  0.4655  0.0034
 2297TIP3    H128306   2.503   0.911  14.311  0.3033  0.6829  0.9044
 2297TIP3    H228307   2.653   0.904  14.332  0.5333  0.2406 -0.7710
 2298TIP3   OH228308   4.210   3.869   3.734  0.3937 -0.6994 -0.4327
 2298TIP3    H128309   4.124   3.877   3.694  0.5620  2.9968 -0.2305
 2298TIP3    H228310   4.270   3.855   3.661 -0.0564 -0.5265 -0.8322
 2299TIP3   OH228311   4.887   2.171  11.053  0.4111  0.0056 -0.7358
 2299TIP3    H128312   4.841   2.089  11.036  2.0985 -0.8094 -1.5141
 2299TIP3    H228313   4.938   2.153  11.132 -0.9932  1.0741  0.4294
 2300TIP3   OH228314   5.085   6.524  15.564  0.0812  0.1107 -0.2087
 2300TIP3    H128315   5.177   6.549  15.552  0.2888 -0.7857 -0.4991
 2300TIP3    H228316   5.073   6.449  15.506 -0.8356  0.2250 -0.1687
 2301TIP3   OH228317   4.494   0.914   4.751 -0.0209 -0.5663 -0.7391
 2301TIP3    H128318   4.433   0.915   4.825 -2.6511  1.1847 -2.7983
 2301TIP3    H228319   4.472   0.835   4.702 -0.7041  0.0478 -1.4627
 2302TIP3   OH228320   2.445   4.490   4.931 -0.3621  0.2915  0.1073
 2302TIP3    H128321   2.405   4.420   4.983 -4.1286  0.2504 -2.6967
 2302TIP3    H228322   2.504   4.444   4.871 -0.8334 -0.2390  0.0467
 2303TIP3   OH228323   1.201   1.156  12.718  0.6111 -0.7093 -0.0236
 2303TIP3    H128324   1.153   1.218  12.772  0.7235 -0.4550 -0.2124
 2303TIP3    H228325   1.138   1.086  12.699  0.6888 -0.9867  0.7471
 2304TIP3   OH228326   2.650   3.574   0.464  0.0204 -0.5982  0.0492
 2304TIP3    H128327   2.732   3.570   0.415 -0.1440  0.6989 -0.3492
 2304TIP3    H228328   2.676   3.603   0.552  0.2115 -2.0873  0.4971
 2305TIP3   OH228329   2.047   3.661   5.680  0.3678  0.1439 -0.1207
 2305TIP3    H128330   1.976   3.720   5.655 -0.2918  0.6312  2.7405
 2305TIP3    H228331   2.123   3.718   5.693  1.5256 -0.4361 -3.7405
 2306TIP3   OH228332   1.555   3.271  11.160  0.1179 -0.5861  0.3453
 2306TIP3    H128333   1.516   3.271  11.073 -1.0252 -1.9472  0.8336
 2306TIP3    H228334   1.624   3.204  11.156 -0.9225 -1.7260  0.8770
 2307TIP3   OH228335   3.436   5.266   0.797 -0.0782 -0.6048 -0.0341
 2307TIP3    H128336   3.521   5.286   0.837  0.7222 -0.7277 -1.6198
 2307TIP3    H228337   3.371   5.298   0.859  1.1538  1.0406  0.4213
 2308TIP3   OH228338   6.785   1.877   1.364  0.3384  0.2587 -0.5083
 2308TIP3    H128339   6.814   1.834   1.283 -1.7394  0.2065 -1.2543
 2308TIP3    H228340   6.690   1.882   1.355  0.2457  1.8039  1.1799
 2309TIP3   OH228341   0.912   1.391   4.632  0.0501  0.0979  0.0322
 2309TIP3    H128342   0.866   1.470   4.606  0.5321  0.2055 -0.5082
 2309TIP3    H228343   0.925   1.342   4.550  2.5817  0.9788 -0.1427
 2310TIP3   OH228344   1.622   3.288  16.663  0.0494 -0.5538  0.2212
 2310TIP3    H128345   1.558   3.243  16.608  0.0338 -0.7658  0.4125
 2310TIP3    H228346   1.704   3.241  16.648  0.1260 -0.3773  0.0923
 2311TIP3   OH228347   4.687   2.391  13.844  0.7394  0.2177 -0.3085
 2311TIP3    H128348   4.695   2.476  13.802 -2.8647  0.1220 -1.3528
 2311TIP3    H228349   4.597   2.363  13.827  0.8261 -2.3485  2.7509
 2312TIP3   OH228350   5.292   4.781  12.549  0.2066 -0.5481 -0.4148
 2312TIP3    H128351   5.336   4.841  12.490 -0.6392  0.6524  0.1616
 2312TIP3    H228352   5.200   4.784  12.523  0.1430 -1.5098 -0.3117
 2313TIP3   OH228353   1.921   0.928   1.472 -0.9641  0.0399  0.1421
 2313TIP3    H128354   1.843   0.880   1.445 -1.4699  1.7697 -1.6417
 2313TIP3    H228355   1.984   0.861   1.498 -1.7009 -1.5687 -2.1037
 2314TIP3   OH228356   0.369   0.314   0.862 -0.0313 -0.3679  0.2002
 2314TIP3    H128357   0.436   0.338   0.927  0.8553 -1.3151 -0.3620
 2314TIP3    H228358   0.418   0.299   0.781 -1.1188  0.7037 -0.6842
 2315TIP3   OH228359   6.297   5.825  13.411 -0.2476 -0.4528  0.0951
 2315TIP3    H128360   6.208   5.794  13.428 -0.1528 -0.8487 -0.1296
 2315TIP3    H228361   6.333   5.839  13.498 -0.6989  0.1953  0.1798
 2316TIP3   OH228362   6.616   0.870  11.848  0.0600  0.8201 -0.4394
 2316TIP3    H128363   6.563   0.813  11.793  1.1400 -0.5141 -0.1517
 2316TIP3    H228364   6.641   0.814  11.922  1.4495  1.5442 -0.3449
 2317TIP3   OH228365   6.494   0.327  16.380  0.0690  0.3613  0.0928
 2317TIP3    H128366   6.472   0.341  16.288  1.4053  2.1166  0.0181
 2317TIP3    H228367   6.419   0.360  16.428 -1.3256 -2.0008 -0.3726
 2318TIP3   OH228368   5.923   0.878  12.878  0.1061  0.3641  0.2366
 2318TIP3    H128369   5.861   0.930  12.929 -1.9295 -0.9327 -0.8518
 2318TIP3    H228370   5.899   0.894  12.787  1.5367  0.0182 -0.2110
 2319TIP3   OH228371   4.914   6.204  12.544  0.0854  0.5880  0.1657
 2319TIP3    H128372   5.004   6.174  12.559  0.0350  0.9359  1.2114
 2319TIP3    H228373   4.865   6.169  12.618 -0.5234  0.9220 -0.0770
 2320TIP3   OH228374   0.287   2.019   4.768 -0.1293  0.1296 -0.1920
 2320TIP3    H128375   0.361   2.049   4.715 -0.3987 -0.5648 -0.9686
 2320TIP3    H228376   0.229   2.096   4.773 -0.4271  0.0027 -1.4892
 2321TIP3   OH228377   5.094   5.159   2.314  0.1999  0.3082 -0.2300
 2321TIP3    H128378   5.092   5.074   2.268 -2.7847  0.3291 -0.2220
 2321TIP3    H228379   5.031   5.149   2.385  1.2694  1.9182  0.9732
 2322TIP3   OH228380   1.140   2.393   0.722  0.2667  0.0533 -0.7020
 2322TIP3    H128381   1.185   2.469   0.685  0.4392 -0.3592 -1.3230
 2322TIP3    H228382   1.154   2.323   0.659  0.6606 -0.6787  0.2018
 2323TIP3   OH228383   5.899   0.910   3.390  0.1068 -0.0565  0.2738
 2323TIP3    H128384   5.894   0.990   3.442  2.1196  0.5764 -0.4712
 2323TIP3    H228385   5.959   0.854   3.439  0.1748 -0.3741 -0.1727
 2324TIP3   OH228386   0.951   5.418  12.672 -0.6605  0.2322 -0.3265
 2324TIP3    H128387   1.040   5.383  12.676 -0.9004 -0.3100  0.3443
 2324TIP3    H228388   0.895   5.340  12.670 -1.1229  0.5728 -0.6872
 2325TIP3   OH228389   1.167   4.449   3.415  0.7474 -0.4934 -0.2480
 2325TIP3    H128390   1.170   4.372   3.358  1.7708 -1.1661  0.6886
 2325TIP3    H228391   1.087   4.438   3.466  0.2730 -0.3260 -0.9518
 2326TIP3   OH228392   0.451   0.477  15.221 -1.0354 -0.1036  0.4643
 2326TIP3    H128393   0.483   0.390  15.197  0.9260  0.2579  1.6064
 2326TIP3    H228394   0.449   0.476  15.317 -2.7888  0.5079  0.4568
 2327TIP3   OH228395   6.673   0.533   2.284 -0.2844 -0.1125  0.3098
 2327TIP3    H128396   6.641   0.464   2.226 -3.6222  1.5773 -0.0023
 2327TIP3    H228397   6.655   0.499   2.372  1.7842 -1.2931  0.3077
 2328TIP3   OH228398   6.728   4.379   5.479 -0.4814 -0.0172 -0.0352
 2328TIP3    H128399   6.650   4.431   5.499 -0.3080 -0.3954  1.6940
 2328TIP3    H228400   6.704   4.290   5.503  0.1911 -0.2843 -0.3481
 2329TIP3   OH228401   6.338   5.820   1.425  0.0866 -0.2953  0.1280
 2329TIP3    H128402   6.245   5.803   1.407  0.2279 -0.6219 -0.3100
 2329TIP3    H228403   6.378   5.733   1.428  0.3238 -0.1685  0.6230
 2330TIP3   OH228404   2.661   0.003  11.766  0.2759 -0.0869 -0.5264
 2330TIP3    H128405   2.745   0.048  11.759  0.2521 -0.1567 -1.3136
 2330TIP3    H228406   2.672  -0.058  11.839  0.9019 -0.0859 -0.6234
 2331TIP3   OH228407   1.076   0.100  14.704 -0.3294 -0.0869 -0.1316
 2331TIP3    H128408   1.057   0.112  14.611  0.3486  0.6247 -0.1782
 2331TIP3    H228409   1.122   0.179  14.730  0.0731 -0.5710  0.6578
 2332TIP3   OH228410   3.060   1.281   6.649  0.0720 -0.2022 -0.3690
 2332TIP3    H128411   2.987   1.325   6.694  0.8964 -0.4480  1.2483
 2332TIP3    H228412   3.081   1.207   6.705  2.8586  0.9843  0.2506
 2333TIP3   OH228413   2.245   4.626   5.736  0.2492  0.4853 -0.3444
 2333TIP3    H128414   2.340   4.633   5.730  0.6341 -1.1095  2.6387
 2333TIP3    H228415   2.224   4.546   5.688  0.6209 -0.0375  0.3547
 2334TIP3   OH228416   1.014   3.920  13.530  0.3859  0.1329 -0.4367
 2334TIP3    H128417   1.002   3.857  13.601  0.7674  1.1334  0.5417
 2334TIP3    H228418   0.935   3.913  13.478 -0.4110  0.1822  0.7469
 2335TIP3   OH228419   1.828   5.880   1.400  0.5786 -0.3748  0.0590
 2335TIP3    H128420   1.795   5.958   1.444 -0.6286 -1.2450  0.7236
 2335TIP3    H228421   1.886   5.913   1.332 -0.4940  1.1319 -0.1325
 2336TIP3   OH228422   3.480   3.695  13.291  0.3336 -0.3441 -0.1066
 2336TIP3    H128423   3.429   3.659  13.219 -1.1913 -0.2655  0.9015
 2336TIP3    H228424   3.554   3.636  13.300 -0.2790 -1.2176 -0.7518
 2337TIP3   OH228425   1.767   1.207  10.833  0.1742 -0.5148  0.1860
 2337TIP3    H128426   1.761   1.127  10.885  1.4697  0.3972  1.7919
 2337TIP3    H228427   1.861   1.227  10.830 -0.2394  1.8648  1.2904
 2338TIP3   OH228428   1.165   6.220   3.978 -0.5598 -0.3426 -0.1019
 2338TIP3    H128429   1.070   6.216   3.975 -0.5250 -0.5119 -1.6138
 2338TIP3    H228430   1.184   6.312   3.997 -1.0279 -0.1974 -0.3229
 2339TIP3   OH228431   0.610   2.976   0.027  0.4082 -0.5889  0.0956
 2339TIP3    H128432   0.533   2.964   0.082  0.3725  0.5259  0.2972
 2339TIP3    H228433   0.683   2.975   0.088  0.4719 -0.6222  0.0186
 2340TIP3   OH228434   5.230   4.787  14.057  0.3015 -0.1808  0.0483
 2340TIP3    H128435   5.258   4.840  13.982 -0.4250 -0.4419 -0.4219
 2340TIP3    H228436   5.257   4.837  14.134  0.8917  0.1805 -0.3900
 2341TIP3   OH228437   5.365   4.627  14.399 -0.1122  0.0606 -0.1532
 2341TIP3    H128438   5.413   4.662  14.474 -0.3688 -1.7892  0.9030
 2341TIP3    H228439   5.273   4.647  14.418  0.1903  4.0284 -2.4031
 2342TIP3   OH228440   1.178   4.734  13.426 -0.0046  0.3308  0.2303
 2342TIP3    H128441   1.114   4.708  13.360 -0.3150 -0.8752  1.0025
 2342TIP3    H228442   1.261   4.700  13.392 -0.1821 -0.3939  0.5232
 2343TIP3   OH228443   5.822   3.516  12.297 -0.4462  0.3337 -0.6035
 2343TIP3    H128444   5.897   3.520  12.357 -0.7402  0.4077 -0.2353
 2343TIP3    H228445   5.845   3.575  12.226 -0.7071  1.3541  0.1460
 2344TIP3   OH228446   0.875   4.894  13.509 -0.3776  0.3818  0.6754
 2344TIP3    H128447   0.914   4.807  13.512  0.3606  0.6811  0.0291
 2344TIP3    H228448   0.785   4.881  13.539 -0.5853 -0.7837 -0.3976
 2345TIP3   OH228449   5.388   0.042  11.271 -0.0657 -0.5990  0.1591
 2345TIP3    H128450   5.437   0.120  11.299  2.3612 -1.9337 -0.1993
 2345TIP3    H228451   5.376   0.054  11.177  0.1445 -0.5496  0.1365
 2346TIP3   OH228452   6.754   1.601   0.589 -0.6828 -0.7943 -0.6986
 2346TIP3    H128453   6.736   1.695   0.601 -1.1196 -1.0965  1.1939
 2346TIP3    H228454   6.792   1.595   0.502  0.5127  1.3323 -0.3695
 2347TIP3   OH228455   1.478   0.970  15.450  0.1517 -0.4052  0.2132
 2347TIP3    H128456   1.547   1.029  15.421  0.4737 -1.0063 -0.2676
 2347TIP3    H228457   1.403   1.027  15.466  0.0136 -0.0060 -1.6672
 2348TIP3   OH228458   4.427   6.412   0.280 -0.2361 -0.7286  0.1068
 2348TIP3    H128459   4.429   6.430   0.186  2.1917 -0.7201  0.1070
 2348TIP3    H228460   4.375   6.483   0.317  0.3178  0.3111 -1.0520
 2349TIP3   OH228461   1.570   2.557   1.897  0.0643 -0.4543  0.7579
 2349TIP3    H128462   1.607   2.590   1.815 -1.6115 -0.8847 -0.1922
 2349TIP3    H228463   1.641   2.566   1.961  0.9869  1.0239 -0.4519
 2350TIP3   OH228464   4.024   6.274  14.606 -0.1707  0.0014 -0.5757
 2350TIP3    H128465   4.091   6.285  14.674  1.0888  1.2834 -1.9796
 2350TIP3    H228466   3.948   6.322  14.640  0.3151  0.3228  0.0790
 2351TIP3   OH228467   0.282   6.510   1.963  0.4501 -0.4276 -0.2402
 2351TIP3    H128468   0.268   6.602   1.985  0.3021 -0.1155 -1.5844
 2351TIP3    H228469   0.287   6.466   2.047  0.2139  0.7672  0.4153
 2352TIP3   OH228470   5.645   5.552  13.110  0.2082 -0.0284 -0.1296
 2352TIP3    H128471   5.637   5.516  13.022 -0.0632 -0.2825 -0.0006
 2352TIP3    H228472   5.604   5.639  13.105 -0.2538 -0.2465 -0.1296
 2353TIP3   OH228473   3.859   3.247  14.139  0.0703  0.1324  0.1446
 2353TIP3    H128474   3.890   3.292  14.218 -0.9632 -2.4785  2.1100
 2353TIP3    H228475   3.935   3.247  14.081  1.1728  1.2267  1.5405
 2354TIP3   OH228476   1.529   6.447  13.253  0.4027 -0.2939 -0.0347
 2354TIP3    H128477   1.573   6.524  13.289  0.5139 -0.5106  0.2987
 2354TIP3    H228478   1.519   6.388  13.328  0.4398 -0.6586 -0.3145
 2355TIP3   OH228479   1.662   2.448  10.301 -0.0617 -0.5595  0.0215
 2355TIP3    H128480   1.693   2.391  10.372  1.5658 -1.2291 -1.1973
 2355TIP3    H228481   1.678   2.537  10.333  1.3227 -0.8710  0.2366
 2356TIP3   OH228482   6.261   5.485  11.945  0.0432  0.1128 -0.2777
 2356TIP3    H128483   6.269   5.579  11.930  1.6178  0.1462  0.6555
 2356TIP3    H228484   6.349   5.451  11.933 -0.2105 -1.0156  0.9037
 2357TIP3   OH228485   6.413   6.749  12.666  0.0605 -0.2843 -0.3799
 2357TIP3    H128486   6.474   6.679  12.686  0.1535  0.0213  0.4112
 2357TIP3    H228487   6.359   6.757  12.745  0.2594  0.7465 -0.3452
 2358TIP3   OH228488   6.681   4.767   6.224 -0.0900 -0.6535  0.1935
 2358TIP3    H128489   6.609   4.824   6.197  0.2468 -1.2693 -2.1134
 2358TIP3    H228490   6.759   4.810   6.189  0.4096 -1.3102  0.4884
 2359TIP3   OH228491   6.098   4.095   0.337 -0.4413  0.4098  0.2623
 2359TIP3    H128492   6.101   4.138   0.252  0.2608 -1.2463 -0.5581
 2359TIP3    H228493   6.134   4.160   0.398  0.1872  1.1524 -0.8907
 2360TIP3   OH228494   2.733   1.471  14.517 -0.1196  0.6457 -0.1276
 2360TIP3    H128495   2.643   1.499  14.504 -0.8118 -0.7723  1.3418
 2360TIP3    H228496   2.735   1.437  14.607  2.0161  1.1666  0.0647
 2361TIP3   OH228497   2.196   4.146  17.087 -0.3866  0.2909 -0.0354
 2361TIP3    H128498   2.246   4.142  17.006 -0.1410  4.3115 -0.1499
 2361TIP3    H228499   2.111   4.107  17.065  0.1912  0.0161 -1.8152
 2362TIP3   OH228500   2.034   4.985   1.046  0.0473  0.8314 -0.3409
 2362TIP3    H128501   2.079   4.979   0.962 -1.0167  1.7424 -0.9991
 2362TIP3    H228502   2.003   5.076   1.050  0.4171  0.9049  1.2049
 2363TIP3   OH228503   1.356   3.078  13.138  0.3575 -0.1333  0.6431
 2363TIP3    H128504   1.405   3.159  13.125 -0.7300  0.2750 -1.1170
 2363TIP3    H228505   1.422   3.009  13.132  0.6957  0.3637 -2.3905
 2364TIP3   OH228506   3.877   4.671  13.557  0.3489  0.5197 -0.2022
 2364TIP3    H128507   3.856   4.639  13.469  0.6599 -2.0241  0.6181
 2364TIP3    H228508   3.796   4.712  13.588 -0.9970 -2.0783 -0.1652
 2365TIP3   OH228509   0.393   5.658  16.430  0.2049 -0.2643  0.2060
 2365TIP3    H128510   0.331   5.605  16.481  0.2973 -0.2743  0.3071
 2365TIP3    H228511   0.341   5.732  16.398  0.2071 -0.1338  0.5110
 2366TIP3   OH228512   1.424   2.994   3.025 -0.3365 -0.3554 -0.0933
 2366TIP3    H128513   1.457   3.013   2.937  1.3281 -0.4355  0.5087
 2366TIP3    H228514   1.404   2.900   3.024  0.0909 -0.4425 -0.2447
 2367TIP3   OH228515   4.316   2.899  12.771  0.0073 -0.2629  0.1409
 2367TIP3    H128516   4.268   2.819  12.795 -3.3360  1.5645 -0.0555
 2367TIP3    H228517   4.274   2.968  12.823  1.5567  1.6638 -1.1085
 2368TIP3   OH228518   3.910   6.435   3.527 -0.4496  0.0039  0.0845
 2368TIP3    H128519   3.946   6.475   3.606  4.4208 -0.8172 -1.5745
 2368TIP3    H228520   3.905   6.507   3.464  0.4881 -0.3666 -0.4074
 2369TIP3   OH228521   0.641   0.001   5.557  0.2610  0.1349  0.1640
 2369TIP3    H128522   0.647   0.025   5.650 -0.4240  1.3435 -0.0885
 2369TIP3    H228523   0.554  -0.037   5.548  0.8965 -1.4039  0.3114
 2370TIP3   OH228524   4.464   2.413  10.465  0.4805  0.1325 -0.3607
 2370TIP3    H128525   4.421   2.373  10.390  0.5623 -1.9936  0.6830
 2370TIP3    H228526   4.503   2.493  10.431  0.7146 -0.9239 -2.6441
 2371TIP3   OH228527   2.764   3.051   1.526 -0.7760  0.4742 -0.1644
 2371TIP3    H128528   2.733   2.983   1.466  0.2099 -1.2981  1.2556
 2371TIP3    H228529   2.845   3.083   1.487  0.4516 -1.4554  0.7278
 2372TIP3   OH228530   5.747   1.867   0.034  0.3009 -0.1621  0.0632
 2372TIP3    H128531   5.654   1.843   0.040  0.4078 -0.1954  1.8537
 2372TIP3    H228532   5.784   1.838   0.117  2.0379 -0.5966 -0.8514
 2373TIP3   OH228533   1.389   0.988   1.903 -0.1486 -0.2156 -0.0315
 2373TIP3    H128534   1.366   1.044   1.828  2.0496 -1.1612 -1.4730
 2373TIP3    H228535   1.308   0.979   1.952 -1.2937  1.6403 -1.5171
 2374TIP3   OH228536   0.656   0.208  16.400  0.2883  0.2472  0.6074
 2374TIP3    H128537   0.741   0.191  16.360 -0.6567 -0.1882 -1.2686
 2374TIP3    H228538   0.664   0.172  16.489  1.7171 -0.7189  0.1030
 2375TIP3   OH228539   3.647   4.259   1.990 -0.5479  0.7854  0.0105
 2375TIP3    H128540   3.702   4.193   2.032  0.0988  0.2920 -1.5572
 2375TIP3    H228541   3.619   4.218   1.909 -0.3359  2.3468 -0.8717
 2376TIP3   OH228542   0.671   2.012   3.536  0.1824 -0.0551 -0.0316
 2376TIP3    H128543   0.596   1.963   3.569  0.4494  0.8667  2.0472
 2376TIP3    H228544   0.672   1.995   3.442 -0.0322 -3.6340  0.5229
 2377TIP3   OH228545   3.637   6.416  17.232 -0.2393  0.2124 -0.5176
 2377TIP3    H128546   3.664   6.502  17.262 -1.2807  1.5460 -3.2428
 2377TIP3    H228547   3.592   6.377  17.307 -1.4796  2.8272  0.1358
 2378TIP3   OH228548   2.086   6.752   2.246 -0.6091  0.0043  0.4160
 2378TIP3    H128549   2.165   6.727   2.198 -0.5184  0.8901  0.0957
 2378TIP3    H228550   2.026   6.678   2.234  0.1793 -0.6916  0.7021
 2379TIP3   OH228551   3.637   5.716   3.369 -0.5279 -0.5601  0.0131
 2379TIP3    H128552   3.652   5.798   3.322  0.4104  0.4049  1.9376
 2379TIP3    H228553   3.565   5.736   3.429 -1.1689 -1.5307 -0.4273
 2380TIP3   OH228554   1.142   5.002   3.288  0.0657 -0.7901 -0.2168
 2380TIP3    H128555   1.066   4.991   3.344 -0.1228  1.4551  0.0258
 2380TIP3    H228556   1.216   5.012   3.348  0.1236 -0.1205 -0.3949
 2381TIP3   OH228557   0.894   5.329  14.981 -0.6872 -0.0911  0.3189
 2381TIP3    H128558   0.963   5.364  14.924 -0.2260  0.6231  1.2840
 2381TIP3    H228559   0.941   5.281  15.049 -1.2158 -0.7076  0.2557
 2382TIP3   OH228560   2.075   4.899   2.391 -0.0513  0.1325 -0.6864
 2382TIP3    H128561   2.095   4.883   2.299  1.1964 -1.4219 -0.1692
 2382TIP3    H228562   2.058   4.812   2.428 -2.5733  0.9300  0.1085
 2383TIP3   OH228563   3.647   4.141  12.641  0.6505  0.6617 -0.1461
 2383TIP3    H128564   3.591   4.109  12.712  0.8323 -0.2209 -0.3949
 2383TIP3    H228565   3.588   4.147  12.565  0.7057  0.5135 -0.2021
 2384TIP3   OH228566   0.658   4.645   0.529 -0.1198 -0.0890  0.3360
 2384TIP3    H128567   0.664   4.734   0.493  0.4718  0.0727  0.8198
 2384TIP3    H228568   0.612   4.655   0.612  0.2295 -0.1843  0.5444
 2385TIP3   OH228569   5.045   3.666   1.016 -0.5266  0.2854  0.1952
 2385TIP3    H128570   5.114   3.608   0.984 -0.3140 -0.5856  2.1886
 2385TIP3    H228571   5.013   3.711   0.938 -0.6389 -2.4380 -1.3776
 2386TIP3   OH228572   1.080   6.501   0.444 -0.3102  0.2376 -0.4019
 2386TIP3    H128573   1.072   6.406   0.436  2.2427 -0.0430 -0.1513
 2386TIP3    H228574   1.025   6.524   0.519 -1.1154 -1.0158 -0.6081
 2387TIP3   OH228575   6.493   0.013   0.633 -0.4051  0.3157 -0.1569
 2387TIP3    H128576   6.534  -0.068   0.604  1.1469  1.8611 -2.4714
 2387TIP3    H228577   6.402   0.006   0.603  0.1791  0.1815 -1.9101
 2388TIP3   OH228578   0.115   5.377  14.423  0.8022 -0.4344 -1.2739
 2388TIP3    H128579   0.192   5.340  14.380 -0.3367 -0.4665 -3.3606
 2388TIP3    H228580   0.080   5.440  14.360 -0.7097 -0.1980 -0.2374
 2389TIP3   OH228581   5.458   3.086   0.724 -0.0897 -0.7556 -0.6118
 2389TIP3    H128582   5.411   3.052   0.648 -0.0706 -0.3213 -0.8209
 2389TIP3    H228583   5.476   3.177   0.701 -1.1632 -0.2761  0.4352
 2390TIP3   OH228584   5.247   6.258  14.571  0.1424 -0.2776  0.8313
 2390TIP3    H128585   5.220   6.235  14.482 -1.6103 -0.4930  1.3960
 2390TIP3    H228586   5.308   6.331  14.559 -1.2373  0.7030 -0.4864
 2391TIP3   OH228587   1.708   5.521   2.507 -0.4268  0.3994  0.0196
 2391TIP3    H128588   1.775   5.458   2.483  1.1130  0.6461  3.4054
 2391TIP3    H228589   1.625   5.477   2.486  0.6982 -0.4596 -2.8640
 2392TIP3   OH228590   3.554   5.808  11.265  0.6041 -0.1531 -0.4964
 2392TIP3    H128591   3.519   5.895  11.242 -0.7643 -1.0409 -1.8652
 2392TIP3    H228592   3.640   5.826  11.302 -0.8722  2.0248  2.0462
 2393TIP3   OH228593   3.973   2.391   0.180  0.2749  0.2778  0.3106
 2393TIP3    H128594   4.001   2.321   0.121 -0.2327  0.5724 -0.2837
 2393TIP3    H228595   3.985   2.472   0.129 -2.0116  0.3889 -0.1135
 2394TIP3   OH228596   1.847   3.464   3.710  0.6388  0.1453 -0.3184
 2394TIP3    H128597   1.814   3.548   3.742 -0.5628 -0.5306  0.2498
 2394TIP3    H228598   1.780   3.434   3.649  0.6882 -0.7614  0.0645
 2395TIP3   OH228599   6.785   5.965  11.158 -0.0454 -0.0461 -0.2730
 2395TIP3    H128600   6.724   5.899  11.124 -0.6213  0.9654 -1.2564
 2395TIP3    H228601   6.788   6.032  11.090  3.0825 -0.6022 -0.7784
 2396TIP3   OH228602   0.951   4.827   0.853 -0.4692 -0.3838  0.0289
 2396TIP3    H128603   0.858   4.836   0.874 -0.0828  0.0016  1.6156
 2396TIP3    H228604   0.951   4.787   0.766 -2.1169 -0.1233 -0.1247
 2397TIP3   OH228605   3.662   6.502   3.332  0.1971 -0.2277  0.8008
 2397TIP3    H128606   3.589   6.481   3.274 -0.8673 -0.1316  2.0934
 2397TIP3    H228607   3.715   6.564   3.281 -0.8663  0.0689  0.0314
 2398TIP3   OH228608   2.100   6.700   3.569  0.1087  0.6465  0.0271
 2398TIP3    H128609   2.054   6.629   3.613 -1.2655  2.2148  1.1774
 2398TIP3    H228610   2.172   6.657   3.523 -0.1085 -1.3537  1.5078
 2399TIP3   OH228611   3.276   3.587   4.524  0.6100  0.4183  0.4795
 2399TIP3    H128612   3.306   3.550   4.607  0.0747 -0.1804  0.4076
 2399TIP3    H228613   3.347   3.568   4.462 -0.1749 -1.5523  0.1614
 2400TIP3   OH228614   0.779   0.713   5.655 -0.2673 -0.1871  0.0344
 2400TIP3    H128615   0.813   0.679   5.572  0.4520  0.4662  0.0625
 2400TIP3    H228616   0.851   0.701   5.717 -1.4063 -2.3845  1.0327
 2401TIP3   OH228617   6.045   1.220   0.450 -0.9342  0.1881 -0.2339
 2401TIP3    H128618   6.102   1.162   0.400  1.5917  1.4074  1.1053
 2401TIP3    H228619   6.034   1.177   0.535  0.6916  1.4306  0.6521
 2402TIP3   OH228620   5.578   4.884   0.261  0.0639 -0.6852  0.1731
 2402TIP3    H128621   5.518   4.853   0.329  0.1568 -1.4443 -0.0759
 2402TIP3    H228622   5.522   4.919   0.193  0.0129  1.1264  1.1316
 2403TIP3   OH228623   1.956   3.322  16.367 -0.2378  0.0095  0.0274
 2403TIP3    H128624   1.972   3.290  16.278 -1.1202 -1.6055  0.4372
 2403TIP3    H228625   1.861   3.338  16.370 -0.2361 -0.0924  0.7215
 2404TIP3   OH228626   2.506   4.928   2.544 -0.0645 -0.3072  0.4122
 2404TIP3    H128627   2.438   4.891   2.487 -0.9098  0.1504  1.1014
 2404TIP3    H228628   2.550   4.853   2.582 -1.5464 -0.6350  1.5460
 2405TIP3   OH228629   4.818   2.166  17.041  0.2243 -0.1661  0.3387
 2405TIP3    H128630   4.752   2.097  17.050  0.7660 -0.5948  1.1469
 2405TIP3    H228631   4.898   2.126  17.075  0.2818  1.2468  1.9187
 2406TIP3   OH228632   5.553   4.672   5.349 -0.1596 -0.5329  0.1751
 2406TIP3    H128633   5.557   4.626   5.433 -0.2781 -0.6786  0.1009
 2406TIP3    H228634   5.644   4.683   5.323 -0.1522 -1.2853 -0.1158
 2407TIP3   OH228635   6.048   6.297   5.545  0.1691  0.1683  0.0964
 2407TIP3    H128636   6.064   6.323   5.636  0.2452 -1.1157  0.4615
 2407TIP3    H228637   6.131   6.261   5.515 -0.3857 -1.1619  0.1303
 2408TIP3   OH228638   3.590   1.695  12.787 -0.5997 -0.4902 -0.1330
 2408TIP3    H128639   3.546   1.778  12.807 -1.9911 -1.3086  0.2673
 2408TIP3    H228640   3.564   1.676  12.697  2.5100  1.2187 -1.4693
 2409TIP3   OH228641   6.452   2.049  15.120 -0.1139 -1.0031  0.2408
 2409TIP3    H128642   6.370   2.088  15.152  0.1100 -0.0455 -0.3197
 2409TIP3    H228643   6.501   2.123  15.085  0.0896 -1.8693 -1.3675
 2410TIP3   OH228644   4.971   1.741   0.699 -0.0919 -0.5180 -0.3644
 2410TIP3    H128645   4.974   1.773   0.609 -0.4606  1.8203  0.4264
 2410TIP3    H228646   5.062   1.719   0.720 -0.2940 -2.9831 -1.9516
 2411TIP3   OH228647   6.412   4.488   2.765 -0.6531  0.4624  0.5805
 2411TIP3    H128648   6.456   4.550   2.824 -0.3882  0.4463  0.3976
 2411TIP3    H228649   6.430   4.402   2.803 -1.5394  0.5283  1.1853
 2412TIP3   OH228650   2.233   2.480   3.527 -0.0504 -0.0994 -0.6683
 2412TIP3    H128651   2.186   2.501   3.446 -1.0943 -1.8163 -0.5404
 2412TIP3    H228652   2.217   2.555   3.584  1.0292  1.3087 -2.1731
 2413TIP3   OH228653   6.508   6.450  17.097 -0.0953  0.2047  0.5009
 2413TIP3    H128654   6.528   6.381  17.034  0.8306 -0.2675  1.3021
 2413TIP3    H228655   6.425   6.424  17.136 -0.5998  0.4257 -0.4095
 2414TIP3   OH228656   2.404   4.505   1.945  0.2289 -0.4544  0.0002
 2414TIP3    H128657   2.377   4.593   1.921 -0.2719 -0.7996 -0.7262
 2414TIP3    H228658   2.451   4.516   2.027  0.8861  0.5945 -0.5041
 2415TIP3   OH228659   6.316   4.871   5.672 -0.3720  0.2074  0.3832
 2415TIP3    H128660   6.303   4.957   5.710  1.4451  1.0138 -0.7577
 2415TIP3    H228661   6.405   4.873   5.636 -1.0285 -1.4511 -1.4470
 2416TIP3   OH228662   0.212   2.917  14.842 -0.2555 -0.6560 -0.1174
 2416TIP3    H128663   0.294   2.961  14.823  0.6434 -1.2711  2.1672
 2416TIP3    H228664   0.147   2.961  14.786  1.2392  1.1871 -0.4466
 2417TIP3   OH228665   5.434   6.041  16.628  0.3512 -0.1150 -0.0767
 2417TIP3    H128666   5.475   5.955  16.636  0.1177 -0.0705  1.8843
 2417TIP3    H228667   5.410   6.064  16.717 -1.3058  1.1521 -0.8217
 2418TIP3   OH228668   3.721   1.233  15.473 -0.0114 -0.8192  0.2069
 2418TIP3    H128669   3.697   1.168  15.407 -0.4232  0.5566 -1.0247
 2418TIP3    H228670   3.736   1.313  15.424  0.3702  0.0616  1.7184
 2419TIP3   OH228671   4.321   2.880   5.508 -0.3830 -0.3600 -0.3163
 2419TIP3    H128672   4.336   2.800   5.558 -0.1070  0.0645  0.2942
 2419TIP3    H228673   4.349   2.950   5.567 -1.0408  0.2122 -0.6788
 2420TIP3   OH228674   3.749   3.438   4.376  0.3269  0.1718  0.4940
 2420TIP3    H128675   3.790   3.515   4.338  0.5015 -0.1621 -0.0035
 2420TIP3    H228676   3.750   3.454   4.471  2.0134 -0.0328  0.5222
 2421TIP3   OH228677   4.560   1.207   3.818 -0.0765  0.4700  0.0284
 2421TIP3    H128678   4.653   1.207   3.795 -0.1741  0.3797 -0.3802
 2421TIP3    H228679   4.528   1.123   3.785 -1.1140  2.0470 -3.2224
 2422TIP3   OH228680   5.315   6.060  12.581 -0.1408 -0.4520  0.5163
 2422TIP3    H128681   5.408   6.055  12.603  0.5998 -0.6343 -2.3927
 2422TIP3    H228682   5.303   6.150  12.550 -0.4184 -1.0129 -1.0716
 2423TIP3   OH228683   3.941   6.351   5.265  0.1522 -0.1937 -0.3092
 2423TIP3    H128684   3.946   6.393   5.351 -2.1918 -0.7596  0.1082
 2423TIP3    H228685   4.021   6.298   5.260  0.9235  0.8016  0.9765
 2424TIP3   OH228686   6.760   3.779   3.729  0.2418  0.1875 -0.5651
 2424TIP3    H128687   6.769   3.862   3.775  2.7274  0.4472 -1.4298
 2424TIP3    H228688   6.779   3.800   3.638 -1.6652 -0.8716 -1.2251
 2425TIP3   OH228689   3.022   3.831   1.205 -0.6441 -0.0635  0.5230
 2425TIP3    H128690   2.947   3.795   1.157  0.2748 -1.3929  0.0532
 2425TIP3    H228691   2.999   3.923   1.219 -2.7341 -0.6296  1.1208
 2426TIP3   OH228692   6.451   0.574   3.429 -0.0114 -0.2957 -0.9683
 2426TIP3    H128693   6.425   0.665   3.417  0.2740  0.2291  2.0814
 2426TIP3    H228694   6.379   0.523   3.391 -0.9599  1.1701 -1.1660
 2427TIP3   OH228695   5.239   5.930  13.825  0.2630 -0.4014  0.4178
 2427TIP3    H128696   5.196   5.909  13.742  2.0117 -1.0878 -0.3470
 2427TIP3    H228697   5.320   5.974  13.799  0.5382 -0.0892  1.7837
 2428TIP3   OH228698   0.039   4.465   2.158 -1.0216 -0.2639 -0.0330
 2428TIP3    H128699  -0.055   4.474   2.172 -1.2626  0.8301 -2.0376
 2428TIP3    H228700   0.052   4.373   2.135 -1.7782 -0.1720 -0.8592
 2429TIP3   OH228701   4.360   0.409  13.362  0.7225 -0.1320  0.4451
 2429TIP3    H128702   4.275   0.418  13.320  0.1612 -0.0651  1.5760
 2429TIP3    H228703   4.412   0.356  13.301 -0.5802 -1.3705  0.3848
 2430TIP3   OH228704   5.660   4.508  16.220  0.2857  0.1420  0.4085
 2430TIP3    H128705   5.643   4.456  16.142 -0.1011  0.5037  0.2568
 2430TIP3    H228706   5.579   4.505  16.270  0.6506 -0.4057  0.9913
 2431TIP3   OH228707   3.656   2.317  13.273  0.0882  0.0435  0.0878
 2431TIP3    H128708   3.580   2.368  13.245  0.0865 -0.5072 -0.9235
 2431TIP3    H228709   3.731   2.377  13.262  0.0908 -0.1630 -1.1296
 2432TIP3   OH228710   2.245   2.757  12.970  0.0866  0.0845 -0.0346
 2432TIP3    H128711   2.163   2.805  12.982  0.9633  1.4153  0.8561
 2432TIP3    H228712   2.262   2.760  12.876 -1.6240 -1.4825 -0.4202
 2433TIP3   OH228713   1.289   1.272   1.176 -0.3922  0.1819 -0.4138
 2433TIP3    H128714   1.288   1.234   1.088  1.3469  1.0864 -0.8323
 2433TIP3    H228715   1.253   1.359   1.166 -0.5285  0.1574 -0.1586
 2434TIP3   OH228716   3.463   3.587  12.734 -0.2316  0.2917  0.3330
 2434TIP3    H128717   3.550   3.620  12.755 -0.3998  0.0561  1.4727
 2434TIP3    H228718   3.470   3.552  12.645  0.1543  2.6260 -0.5674
 2435TIP3   OH228719   5.919   1.806   1.799 -0.0271 -0.3434 -0.0082
 2435TIP3    H128720   5.958   1.718   1.803 -2.3748 -1.4182  0.6459
 2435TIP3    H228721   5.914   1.826   1.706  1.6051 -0.3662 -0.1223
 2436TIP3   OH228722   5.942   6.707  14.860  0.1589  0.0310 -0.9788
 2436TIP3    H128723   5.937   6.689  14.954  0.5929  1.2792 -0.7005
 2436TIP3    H228724   5.971   6.625  14.822  0.1333 -0.4479  0.0040
 2437TIP3   OH228725   4.943   0.501  10.765  0.7280  0.1724 -0.3580
 2437TIP3    H128726   4.935   0.406  10.775 -0.9586  0.4213  0.9527
 2437TIP3    H228727   5.022   0.514  10.712 -0.1861 -2.0332 -2.3391
 2438TIP3   OH228728   5.360   2.681  16.412 -0.4569  0.1487 -0.2060
 2438TIP3    H128729   5.273   2.694  16.451 -0.8486  0.7082 -1.2646
 2438TIP3    H228730   5.343   2.634  16.331  0.2764 -0.1869 -0.1665
 2439TIP3   OH228731   0.209   6.776  16.757  0.4312  0.1199  0.6401
 2439TIP3    H128732   0.115   6.779  16.774  0.8984  0.7972  3.3822
 2439TIP3    H228733   0.241   6.861  16.786  1.9416 -0.1906 -0.0758
 2440TIP3   OH228734   0.252   2.854  10.915  0.4283  0.2491 -0.0580
 2440TIP3    H128735   0.305   2.920  10.869  0.1302  1.1100  0.7996
 2440TIP3    H228736   0.295   2.771  10.897 -0.0248  0.4809 -2.3925
 2441TIP3   OH228737   6.011   6.566  16.727  0.0307 -0.0473  0.0527
 2441TIP3    H128738   6.059   6.595  16.805  1.3139 -0.1051 -0.7100
 2441TIP3    H228739   6.078   6.529  16.669 -0.7263  1.1217 -1.6139
 2442TIP3   OH228740   5.198   4.582  12.725  0.2695 -0.4472 -0.0164
 2442TIP3    H128741   5.250   4.616  12.652 -0.8487 -0.5693 -0.8945
 2442TIP3    H228742   5.205   4.487  12.717 -0.2035 -0.4655 -0.2257
 2443TIP3   OH228743   2.173   5.811   3.410  0.4694 -0.1742  0.1823
 2443TIP3    H128744   2.080   5.830   3.426  0.6267  1.4390 -0.7083
 2443TIP3    H228745   2.173   5.748   3.339  0.0509  0.2505 -0.1999
 2444TIP3   OH228746   1.499   1.577   1.228 -0.6637  0.1513  0.3212
 2444TIP3    H128747   1.593   1.574   1.210 -0.6059  2.0875  0.2027
 2444TIP3    H228748   1.493   1.587   1.323 -0.7315  0.5646  0.2749
 2445TIP3   OH228749   6.305   2.552   2.297 -0.7907 -0.2656  0.1236
 2445TIP3    H128750   6.226   2.514   2.258 -1.8401 -0.8124  2.7434
 2445TIP3    H228751   6.302   2.644   2.270 -0.5814 -0.9714 -2.4995
 2446TIP3   OH228752   0.123   2.604  13.330 -0.2613 -0.5878 -0.3065
 2446TIP3    H128753   0.202   2.557  13.356  0.9663  0.5345 -1.9477
 2446TIP3    H228754   0.143   2.696  13.348 -2.1159 -0.5067  1.5417
 2447TIP3   OH228755   4.036   6.154   0.603 -0.2223 -0.6231 -0.4999
 2447TIP3    H128756   3.985   6.120   0.676  2.3760 -1.1090  1.1677
 2447TIP3    H228757   4.049   6.078   0.545 -1.2271 -0.5338 -0.8487
 2448TIP3   OH228758   5.341   5.036   5.102  0.0174 -0.1376 -0.6095
 2448TIP3    H128759   5.310   5.002   5.186 -1.2530 -1.4353 -1.5755
 2448TIP3    H228760   5.416   4.980   5.081  0.6327  0.4944 -0.1291
 2449TIP3   OH228761   1.417   5.873  14.897  0.0098  0.5887  0.3490
 2449TIP3    H128762   1.396   5.858  14.989  0.6851 -0.2074  0.3850
 2449TIP3    H228763   1.333   5.891  14.856 -0.5164 -0.6716  0.8382
 2450TIP3   OH228764   6.037   5.818   4.896  0.5391 -0.0534 -0.3437
 2450TIP3    H128765   6.037   5.765   4.976 -3.0102 -3.3972 -2.3631
 2450TIP3    H228766   5.978   5.890   4.915  1.7045  0.6017  0.8657
 2451TIP3   OH228767   0.570   2.655   4.039 -0.1085 -0.3796 -0.2231
 2451TIP3    H128768   0.655   2.684   4.005 -1.4251  2.2081 -1.5235
 2451TIP3    H228769   0.567   2.689   4.129  0.4814 -1.0000  0.0290
 2452TIP3   OH228770   3.517   5.850   2.661  0.0708  0.1197  0.3392
 2452TIP3    H128771   3.481   5.939   2.657  0.1607  0.1287 -0.4020
 2452TIP3    H228772   3.552   5.842   2.750  2.1136  1.6269 -0.2891
 2453TIP3   OH228773   5.603   6.186   1.319 -0.0365 -1.0678 -0.1918
 2453TIP3    H128774   5.547   6.117   1.285 -1.4875 -0.5878  1.1587
 2453TIP3    H228775   5.692   6.155   1.303 -0.6577 -1.4941 -3.0623
 2454TIP3   OH228776   0.162   6.145  10.507 -0.8376  0.1998  0.1515
 2454TIP3    H128777   0.142   6.227  10.552  0.0093  0.4822  0.0276
 2454TIP3    H228778   0.149   6.165  10.414 -1.0277  0.0774  0.1508
 2455TIP3   OH228779   3.091   3.476  13.610 -0.3865  0.1103 -0.1012
 2455TIP3    H128780   3.084   3.550  13.669  0.6827  1.0474 -1.1278
 2455TIP3    H228781   3.085   3.515  13.522  0.1773 -1.0075 -0.6467
 2456TIP3   OH228782   2.999   4.348  13.212  0.2068 -0.0954 -0.1128
 2456TIP3    H128783   3.018   4.268  13.261  1.0698  0.6417  0.7978
 2456TIP3    H228784   3.002   4.322  13.120  3.0144 -0.5941  0.0838
 2457TIP3   OH228785   1.194   4.913  14.189 -1.0223  0.2613 -0.4555
 2457TIP3    H128786   1.284   4.909  14.157 -1.3526 -0.6165 -1.2677
 2457TIP3    H228787   1.169   5.005  14.177  0.5531  1.0636  1.9551
 2458TIP3   OH228788   6.437   3.523  16.543  0.0813  0.5318 -0.2649
 2458TIP3    H128789   6.375   3.500  16.473 -1.5385  1.1922  0.9151
 2458TIP3    H228790   6.466   3.611  16.521 -0.8958  0.9805  0.1949
 2459TIP3   OH228791   6.743   5.593   5.623 -0.0932 -0.2313  0.1991
 2459TIP3    H128792   6.833   5.624   5.626  0.3989 -1.7245  1.7689
 2459TIP3    H228793   6.732   5.543   5.704 -2.8219  1.2714  0.8263
 2460TIP3   OH228794   4.993   1.624  11.434 -0.0589 -0.0522  0.2613
 2460TIP3    H128795   5.088   1.616  11.423 -0.3130 -1.9368 -0.7413
 2460TIP3    H228796   4.970   1.704  11.387  1.0621  0.5761  0.7595
 2461TIP3   OH228797   3.257   6.740  15.382 -0.0546  0.1360  0.1464
 2461TIP3    H128798   3.189   6.681  15.351  1.0441 -0.7596 -0.6320
 2461TIP3    H228799   3.329   6.682  15.406  1.0763  1.1421 -0.7253
 2462TIP3   OH228800   6.242   0.733  16.034 -0.1788  0.1039  0.0563
 2462TIP3    H128801   6.205   0.650  16.002  0.6768 -1.0315  1.8682
 2462TIP3    H228802   6.177   0.799  16.012 -1.6243 -1.3131  0.0074
 2463TIP3   OH228803   0.836   2.323   5.460  0.1501  0.3745 -0.2845
 2463TIP3    H128804   0.878   2.407   5.443 -0.4918  0.7332 -0.1305
 2463TIP3    H228805   0.745   2.345   5.478  0.2641 -0.2226  1.1100
 2464TIP3   OH228806   2.757   5.460  11.879 -0.1228 -0.1832 -0.3875
 2464TIP3    H128807   2.824   5.423  11.822  1.1357  0.1049  0.8779
 2464TIP3    H228808   2.675   5.420  11.849  0.8339 -1.8350 -0.8429
 2465TIP3   OH228809   6.197   0.514   4.629  0.1498 -0.4866  0.3485
 2465TIP3    H128810   6.216   0.581   4.694  1.9520  1.1156 -1.7482
 2465TIP3    H228811   6.277   0.508   4.576 -0.9996 -2.2449 -1.2730
 2466TIP3   OH228812   5.288   6.110   2.190 -0.1150  0.1805  0.4044
 2466TIP3    H128813   5.199   6.078   2.196  0.5245 -1.5603  0.7766
 2466TIP3    H228814   5.288   6.164   2.111 -1.3786 -0.1724  0.1492
 2467TIP3   OH228815   5.700   4.988   4.609 -0.0370 -0.6305  0.0831
 2467TIP3    H128816   5.635   5.013   4.544 -1.5743 -1.6241  1.1890
 2467TIP3    H228817   5.754   4.922   4.565  0.4659  0.4665 -0.9576
 2468TIP3   OH228818   6.537   3.395   4.863  0.3018 -0.4971 -0.6663
 2468TIP3    H128819   6.574   3.473   4.820  1.0089 -0.7620 -0.5480
 2468TIP3    H228820   6.551   3.411   4.956 -0.2136 -0.4399 -0.5954
 2469TIP3   OH228821   6.439   6.410  12.258 -0.6069 -0.1113 -0.4013
 2469TIP3    H128822   6.421   6.344  12.325  0.1286  1.0165  0.9410
 2469TIP3    H228823   6.531   6.396  12.235 -0.5981  0.1024 -0.4973
 2470TIP3   OH228824   5.825   6.101   1.207  0.0514 -0.1834 -0.4373
 2470TIP3    H128825   5.915   6.098   1.241  0.2995  0.0589 -1.0654
 2470TIP3    H228826   5.831   6.157   1.130 -0.3759 -1.3527 -1.3177
 2471TIP3   OH228827   4.649   3.235  13.093  0.3887  0.0158 -0.0435
 2471TIP3    H128828   4.567   3.204  13.054  0.1659  1.2027 -0.5216
 2471TIP3    H228829   4.688   3.290  13.025  1.7160 -0.7391  0.0807
 2472TIP3   OH228830   3.202   4.434  15.994  0.2399 -0.2025 -0.1389
 2472TIP3    H128831   3.173   4.366  15.933 -0.9203  0.0428  0.1246
 2472TIP3    H228832   3.293   4.412  16.013  0.4154 -0.6495 -1.4507
 2473TIP3   OH228833   0.497   0.657   5.106 -0.5935 -0.6252 -0.2751
 2473TIP3    H128834   0.526   0.748   5.096  0.0944 -1.0302 -2.3096
 2473TIP3    H228835   0.554   0.621   5.174 -0.3046  0.2406 -0.0479
 2474TIP3   OH228836   5.945   2.434   0.530 -0.2470  0.5768  0.2376
 2474TIP3    H128837   5.863   2.481   0.544 -0.3222  0.4437  0.2456
 2474TIP3    H228838   5.918   2.344   0.510 -0.1497  0.8001 -0.9614
 2475TIP3   OH228839   0.016   2.704  11.632  0.2528 -0.1888 -0.1537
 2475TIP3    H128840  -0.054   2.739  11.577  0.1375 -0.2184 -0.0257
 2475TIP3    H228841   0.043   2.623  11.588  2.2141  1.3033 -1.7891
 2476TIP3   OH228842   2.934   0.612  15.008 -0.1799 -0.2896  0.3332
 2476TIP3    H128843   2.966   0.533  15.051 -2.3600 -0.8053  1.1138
 2476TIP3    H228844   3.003   0.636  14.946  0.3652 -3.0115 -0.1895
 2477TIP3   OH228845   5.812   1.420   3.792  0.3825 -0.2746 -0.1477
 2477TIP3    H128846   5.838   1.407   3.883  2.2137 -1.1002 -0.7602
 2477TIP3    H228847   5.882   1.379   3.741 -0.9355 -0.3785 -1.9216
 2478TIP3   OH228848   2.769   0.212   2.460  0.0905  0.1275 -0.3090
 2478TIP3    H128849   2.698   0.151   2.479  1.4197 -1.0377  1.0420
 2478TIP3    H228850   2.822   0.212   2.540  1.2860  1.4153 -1.0948
 2479TIP3   OH228851   4.496   4.450  12.380 -0.2600  0.2072  0.3520
 2479TIP3    H128852   4.492   4.366  12.426  0.4363  0.0125  0.0667
 2479TIP3    H228853   4.453   4.433  12.296  1.9766 -0.5231 -0.6783
 2480TIP3   OH228854   6.251   4.834  15.887 -0.0336 -0.3688  0.3324
 2480TIP3    H128855   6.212   4.802  15.968  0.6353 -0.9010  0.4442
 2480TIP3    H228856   6.339   4.796  15.885 -0.2429 -0.8184 -0.9117
 2481TIP3   OH228857   6.678   3.817   1.934 -0.2540 -0.0490 -0.2529
 2481TIP3    H128858   6.585   3.806   1.949 -0.4208  0.7099 -0.6722
 2481TIP3    H228859   6.705   3.737   1.889 -0.7037 -0.2630 -0.1431
 2482TIP3   OH228860   6.766   5.225  16.422 -0.3743 -0.2338 -0.5950
 2482TIP3    H128861   6.696   5.279  16.386 -0.7031 -1.0105 -1.1212
 2482TIP3    H228862   6.820   5.202  16.346  0.9633  1.0833 -0.0807
 2483TIP3   OH228863   0.885   0.519   3.942 -0.2547  0.0676  0.0989
 2483TIP3    H128864   0.849   0.496   3.856  1.7771  0.5872 -0.9209
 2483TIP3    H228865   0.903   0.613   3.936  1.4853 -0.2311  0.4927
 2484TIP3   OH228866   5.172   1.086   0.436  0.0539  0.4962 -0.1423
 2484TIP3    H128867   5.141   1.065   0.524  1.6354  0.1507  0.3390
 2484TIP3    H228868   5.234   1.158   0.448 -0.4759  1.1305 -1.0929
 2485TIP3   OH228869   3.884   1.224  11.325  0.2029  0.1265  0.2262
 2485TIP3    H128870   3.816   1.232  11.258  0.9754  0.7168 -0.4986
 2485TIP3    H228871   3.868   1.140  11.367  0.5734 -0.8876 -1.6528
 2486TIP3   OH228872   6.214   4.945  14.864  0.2942  0.1459 -0.1371
 2486TIP3    H128873   6.138   4.915  14.914 -0.1608  0.5921 -0.5511
 2486TIP3    H228874   6.263   5.000  14.926  1.5659 -2.0498  0.8842
 2487TIP3   OH228875   6.659   0.199  14.079 -0.0890 -0.4265  0.1120
 2487TIP3    H128876   6.753   0.218  14.078 -0.2573  0.4687  1.1644
 2487TIP3    H228877   6.655   0.104  14.090  0.7127 -0.8829 -3.0453
 2488TIP3   OH228878   1.493   1.345   1.673  0.7363 -0.1363 -0.0596
 2488TIP3    H128879   1.438   1.379   1.744  0.0864 -0.3981 -0.4463
 2488TIP3    H228880   1.441   1.357   1.594  0.3012 -2.4785 -0.1581
 2489TIP3   OH228881   0.038   3.034   4.011  0.1001 -0.2166  0.3707
 2489TIP3    H128882   0.023   3.129   4.012  2.1930  0.1583 -0.9207
 2489TIP3    H228883   0.081   3.016   4.095 -0.9892 -0.1635  0.9517
 2490TIP3   OH228884   2.783   4.773   4.892 -0.1764  0.1259  0.7520
 2490TIP3    H128885   2.758   4.775   4.984 -0.9338 -0.2296  0.5600
 2490TIP3    H228886   2.723   4.834   4.849  0.0145  0.1079  0.4561
 2491TIP3   OH228887   6.231   4.959   0.093  0.0188 -0.0833  0.3105
 2491TIP3    H128888   6.301   5.005   0.140 -0.0594 -0.4635  0.8018
 2491TIP3    H228889   6.246   4.982   0.001  0.7622 -0.1215  0.4156
 2492TIP3   OH228890   5.216   4.493   5.660 -0.4784  0.3768  0.4126
 2492TIP3    H128891   5.249   4.414   5.616  2.0635  2.1874 -1.0536
 2492TIP3    H228892   5.204   4.466   5.751 -0.1492 -1.8353 -0.1533
 2493TIP3   OH228893   3.474   0.204   0.736  0.3014  0.0682 -0.0323
 2493TIP3    H128894   3.512   0.233   0.653  1.4849  1.1463  0.8488
 2493TIP3    H228895   3.411   0.272   0.759  0.4520  0.1066  0.2713
 2494TIP3   OH228896   6.513   4.463   1.354 -0.4849  0.0556 -0.0690
 2494TIP3    H128897   6.491   4.488   1.264  2.2617 -0.1609 -0.8470
 2494TIP3    H228898   6.560   4.380   1.345  2.5920  1.5932  1.2619
 2495TIP3   OH228899   5.943   3.448  12.959 -0.1086 -0.7930 -0.1011
 2495TIP3    H128900   5.849   3.437  12.976  0.1557 -1.0268  1.2078
 2495TIP3    H228901   5.957   3.399  12.878 -0.9513 -1.5124  0.1739
 2496TIP3   OH228902   1.566   3.609   0.910 -0.0531  0.2360 -0.2660
 2496TIP3    H128903   1.597   3.588   0.998  1.6815  1.4974 -0.5513
 2496TIP3    H228904   1.505   3.682   0.923  0.1802  0.4037 -0.1112
 2497TIP3   OH228905   4.570   2.807  16.643  0.0835 -0.4798  0.6179
 2497TIP3    H128906   4.505   2.863  16.601 -0.7911 -1.1502  1.0605
 2497TIP3    H228907   4.647   2.863  16.654 -0.7403  0.5990  0.9653
 2498TIP3   OH228908   5.613   5.141   5.245 -0.6944  0.0083 -0.4746
 2498TIP3    H128909   5.618   5.190   5.163 -0.8909  0.4470 -0.2276
 2498TIP3    H228910   5.538   5.180   5.291  0.8195  1.3447  0.9238
 2499TIP3   OH228911   6.722   1.671   5.248  0.6300 -1.1595  0.1164
 2499TIP3    H128912   6.672   1.604   5.200 -1.0413  0.2745 -0.1767
 2499TIP3    H228913   6.746   1.627   5.329  0.9221 -2.6443 -0.7450
 2500TIP3   OH228914   3.662   4.151   5.209 -0.1059  0.2024 -0.9851
 2500TIP3    H128915   3.603   4.079   5.230  1.5148 -0.1687  2.6750
 2500TIP3    H228916   3.634   4.223   5.266  0.1541  1.5097 -2.4690
 2501TIP3   OH228917   1.035   3.910   3.944  0.6109 -0.0654  0.5663
 2501TIP3    H128918   0.949   3.879   3.918  1.0223 -1.0360  0.3486
 2501TIP3    H228919   1.035   4.003   3.923  0.2961 -0.4574 -1.2469
 2502TIP3   OH228920   6.709   4.772   1.091  0.0119  0.6929 -0.8602
 2502TIP3    H128921   6.753   4.856   1.078 -1.5533  1.5818 -0.5051
 2502TIP3    H228922   6.670   4.778   1.178  1.7096 -1.2464  0.0694
 2503TIP3   OH228923   1.973   1.753  15.498 -0.4075  0.0794 -0.0201
 2503TIP3    H128924   1.939   1.823  15.553  0.8433  1.2881 -0.7570
 2503TIP3    H228925   1.929   1.764  15.414 -2.3598 -1.8008  0.7174
 2504TIP3   OH228926   2.379   4.312  12.343 -0.2981  0.1965  0.0435
 2504TIP3    H128927   2.321   4.250  12.389  1.2800 -0.6544  0.9639
 2504TIP3    H228928   2.320   4.373  12.300 -1.9147 -1.9243 -0.8346
 2505TIP3   OH228929   5.325   1.985  15.630  1.1440  0.3677  0.2564
 2505TIP3    H128930   5.247   1.969  15.576 -1.2242 -0.8148  3.8538
 2505TIP3    H228931   5.379   1.907  15.616 -0.7149 -1.2290  1.5595
 2506TIP3   OH228932   1.548   4.627   2.317  0.7054 -0.3004  0.5071
 2506TIP3    H128933   1.537   4.686   2.391  1.0448 -0.4059  0.6424
 2506TIP3    H228934   1.551   4.540   2.356  0.4500 -0.3912  0.3300
 2507TIP3   OH228935   2.992   0.777  12.543  0.2310 -0.6923 -0.2231
 2507TIP3    H128936   3.046   0.701  12.519  1.0401 -0.3963  0.6126
 2507TIP3    H228937   2.997   0.835  12.467  1.6511 -0.3709  0.0955
 2508TIP3   OH228938   2.308   1.957  15.826  0.1490 -0.1051 -0.1803
 2508TIP3    H128939   2.379   1.921  15.773  0.5572  0.3391  0.0597
 2508TIP3    H228940   2.330   2.049  15.835 -1.4361  0.4514 -1.6793
 2509TIP3   OH228941   0.202   4.010  13.189 -0.0674  0.7233  0.0779
 2509TIP3    H128942   0.112   4.041  13.197 -1.1747 -1.9862 -1.3459
 2509TIP3    H228943   0.203   3.926  13.235  1.3488  0.0294 -1.1751
 2510TIP3   OH228944   5.967   0.422   4.391 -0.0166  0.0954  0.2604
 2510TIP3    H128945   5.944   0.511   4.416  0.9124  0.7857 -1.2656
 2510TIP3    H228946   6.060   0.414   4.410 -0.1018 -0.5611  0.4203
 2511TIP3   OH228947   4.216   5.783  13.519  0.4050 -0.0412  0.3889
 2511TIP3    H128948   4.207   5.714  13.454 -0.6027 -0.2159  0.6958
 2511TIP3    H228949   4.294   5.831  13.493  0.7060 -0.8568 -0.2406
 2512TIP3   OH228950   6.278   4.013   0.940 -0.0244 -0.8149 -0.4574
 2512TIP3    H128951   6.204   4.072   0.923  1.0850  0.8211  0.2280
 2512TIP3    H228952   6.329   4.014   0.860  0.7166  0.2494  0.0159
 2513TIP3   OH228953   1.007   5.700   5.189  0.0752 -0.5489  0.1435
 2513TIP3    H128954   0.953   5.642   5.243  0.1353 -1.6869 -0.9927
 2513TIP3    H228955   1.056   5.641   5.132  2.0896  0.5073  0.7410
 2514TIP3   OH228956   4.184   2.008   3.276  0.1798 -0.1580  0.8156
 2514TIP3    H128957   4.219   1.941   3.217 -1.1263  0.1331 -0.3074
 2514TIP3    H228958   4.229   2.088   3.251 -1.8984  0.4112 -1.2572
 2515TIP3   OH228959   0.969   4.222   1.490 -0.5363 -0.4038  0.1757
 2515TIP3    H128960   0.896   4.196   1.546 -1.7542  2.0408 -0.1733
 2515TIP3    H228961   0.942   4.199   1.402 -0.6355 -0.0664  0.1152
 2516TIP3   OH228962   0.796   6.585   3.345  0.0990 -0.1111  0.2234
 2516TIP3    H128963   0.887   6.612   3.355  0.2977 -0.5286 -0.4679
 2516TIP3    H228964   0.750   6.631   3.416  1.1725 -1.5340  1.8801
 2517TIP3   OH228965   1.639   6.779  15.460 -0.0653  0.9100 -0.5864
 2517TIP3    H128966   1.634   6.864  15.502  0.4232  1.1487 -1.0072
 2517TIP3    H228967   1.701   6.729  15.514 -1.5301  0.2895  0.5668
 2518TIP3   OH228968   4.359   3.939  12.928  0.4570  0.1184 -0.3260
 2518TIP3    H128969   4.448   3.974  12.932  0.6397 -0.0770 -2.1793
 2518TIP3    H228970   4.317   3.987  12.857 -0.8510  0.0499  0.3853
 2519TIP3   OH228971   5.202   3.672  14.267 -0.4789 -0.3811  0.3269
 2519TIP3    H128972   5.265   3.603  14.245 -0.0063  0.4683 -1.1070
 2519TIP3    H228973   5.217   3.690  14.360  1.3015 -0.3037  0.0549
 2520TIP3   OH228974   1.852   2.007  13.294  0.2508 -0.7361  0.0203
 2520TIP3    H128975   1.926   1.962  13.334  0.6000 -0.4185 -0.2688
 2520TIP3    H228976   1.775   1.958  13.324  0.5065 -0.4656  1.1183
 2521TIP3   OH228977   1.249   6.328   2.589 -0.2601  0.4986 -0.4404
 2521TIP3    H128978   1.235   6.261   2.656 -0.2082 -0.1591 -1.0860
 2521TIP3    H228979   1.163   6.366   2.574 -0.5525 -0.3855 -1.0778
 2522TIP3   OH228980   4.760   3.901  16.029 -0.2826  0.0027  0.0440
 2522TIP3    H128981   4.827   3.959  15.993 -1.2271 -0.3690 -2.4088
 2522TIP3    H228982   4.797   3.813  16.019  0.1934 -0.0013  1.6773
 2523TIP3   OH228983   2.876   6.241   5.384 -0.4264 -0.8839  0.2184
 2523TIP3    H128984   2.866   6.220   5.477 -0.0909 -0.4165  0.3650
 2523TIP3    H228985   2.857   6.159   5.339  0.0054 -1.2778  0.7337
 2524TIP3   OH228986   0.254   0.368  10.676  0.5842 -0.2140  0.4644
 2524TIP3    H128987   0.192   0.367  10.603  0.5716 -0.5432  0.4781
 2524TIP3    H228988   0.293   0.281  10.676  1.4410  0.1592  0.1224
 2525TIP3   OH228989   3.239   0.068  13.735  0.1873 -0.4665  0.4082
 2525TIP3    H128990   3.257  -0.002  13.672  3.1931 -0.1949  0.9090
 2525TIP3    H228991   3.228   0.024  13.819 -0.8970 -0.5656  0.2238
 2526TIP3   OH228992   1.878   6.396   0.086  0.4872  0.4231 -0.0905
 2526TIP3    H128993   1.949   6.340   0.117 -0.5178 -0.9330 -0.2152
 2526TIP3    H228994   1.828   6.341   0.026 -1.3214  1.0182  0.8543
 2527TIP3   OH228995   2.090   0.214  12.449  0.4524  0.5046  0.0018
 2527TIP3    H128996   2.141   0.255  12.380 -0.5273 -0.8844 -1.5795
 2527TIP3    H228997   2.002   0.250  12.438  0.4141  0.6848  0.8737
 2528TIP3   OH228998   4.382   5.081  15.563 -0.1030 -0.2893 -0.3433
 2528TIP3    H128999   4.376   5.142  15.636  0.4591  0.5322 -0.9756
 2528TIP3    H229000   4.476   5.066  15.552 -0.1396  0.3033 -1.4780
 2529TIP3   OH229001   2.446   6.072   1.198  0.0854 -0.0593  0.5746
 2529TIP3    H129002   2.483   6.004   1.255  1.2860  0.7055  0.7058
 2529TIP3    H229003   2.432   6.027   1.115  0.2499 -0.6414  0.8530
 2530TIP3   OH229004   4.147   1.620   2.220 -0.5993 -0.1759 -0.0849
 2530TIP3    H129005   4.102   1.658   2.144 -1.0602  0.5134  0.5226
 2530TIP3    H229006   4.183   1.537   2.188 -0.2715  0.3996 -1.2183
 2531TIP3   OH229007   6.725   0.118  10.987  0.1058 -0.6258 -0.0496
 2531TIP3    H129008   6.769   0.038  10.958 -1.8750 -1.2043 -1.5561
 2531TIP3    H229009   6.724   0.174  10.909  0.3521  0.3823  0.6608
 2532TIP3   OH229010   5.926   1.562  16.430 -0.7980  0.2219  0.9404
 2532TIP3    H129011   5.933   1.657  16.430 -0.2061  0.1792  1.4994
 2532TIP3    H229012   5.974   1.534  16.508  0.2012 -0.6128  0.0396
 2533TIP3   OH229013   4.095   2.907  11.691 -0.4116  0.1290 -0.2019
 2533TIP3    H129014   4.058   2.993  11.674 -0.2298  0.1332 -0.6005
 2533TIP3    H229015   4.067   2.853  11.616  0.8053  0.2762 -0.7814
 2534TIP3   OH229016   0.230   3.196  15.526 -0.0460  0.0785 -0.3675
 2534TIP3    H129017   0.321   3.175  15.506 -0.3334 -0.8336 -0.7662
 2534TIP3    H229018   0.202   3.254  15.456 -0.2226 -0.8797 -1.1013
 2535TIP3   OH229019   3.637   3.781  11.628 -0.1334  0.0406  0.9855
 2535TIP3    H129020   3.700   3.836  11.676  2.6398 -0.8661 -1.4184
 2535TIP3    H229021   3.657   3.692  11.657  1.8700 -0.5644 -1.9898
 2536TIP3   OH229022   4.627   6.078  12.312 -0.4703  0.0133  0.2359
 2536TIP3    H129023   4.694   6.144  12.292 -0.9610  0.4689  0.0972
 2536TIP3    H229024   4.650   6.047  12.400 -0.3201  0.4594  0.3543
 2537TIP3   OH229025   3.875   5.130   4.138  0.2646 -0.3131  0.3611
 2537TIP3    H129026   3.855   5.223   4.141  0.4917 -0.2380 -0.3330
 2537TIP3    H229027   3.966   5.125   4.108  0.4751 -0.7365  1.0444
 2538TIP3   OH229028   1.692   4.582  11.438 -0.1314 -0.1502 -0.6520
 2538TIP3    H129029   1.627   4.518  11.410 -1.4425 -0.0051  1.9426
 2538TIP3    H229030   1.765   4.530  11.471 -1.1261 -0.3336  1.2959
 2539TIP3   OH229031   6.414   6.175   3.321  0.1562  0.1783  0.1287
 2539TIP3    H129032   6.423   6.266   3.349 -0.0778 -0.1035  1.1406
 2539TIP3    H229033   6.320   6.157   3.329  0.0783  0.0958 -0.8733
 2540TIP3   OH229034   4.748   0.845   3.882 -0.0783  0.1587  1.0317
 2540TIP3    H129035   4.841   0.861   3.866 -0.7452  3.2957 -0.0544
 2540TIP3    H229036   4.714   0.928   3.915 -3.1119  0.0681 -1.5153
 2541TIP3   OH229037   1.361   1.884  15.113  0.3464  0.0760  0.7539
 2541TIP3    H129038   1.339   1.913  15.202  1.0544 -0.4284  1.0989
 2541TIP3    H229039   1.453   1.858  15.119  0.3044 -0.2503 -0.0523
 2542TIP3   OH229040   2.266   1.935   4.089  0.3159  0.1071 -0.0806
 2542TIP3    H129041   2.243   1.994   4.017  1.3002  0.7934  0.1633
 2542TIP3    H229042   2.188   1.932   4.144  0.5412  1.8031  0.3338
 2543TIP3   OH229043   4.826   5.329   3.674  0.2531  0.0517  0.2833
 2543TIP3    H129044   4.828   5.278   3.755 -1.2197  1.5663  1.3050
 2543TIP3    H229045   4.740   5.311   3.636  0.7920 -0.3502 -0.7574
 2544TIP3   OH229046   3.532   5.803   6.662 -0.0385 -0.3735  0.8886
 2544TIP3    H129047   3.570   5.870   6.606  0.4318 -1.1070  0.3197
 2544TIP3    H229048   3.449   5.781   6.620  0.6507 -1.4403  0.0793
 2545TIP3   OH229049   2.876   5.413  16.165 -0.0126  0.0507 -0.4299
 2545TIP3    H129050   2.856   5.334  16.115 -0.3060  0.3757 -0.8250
 2545TIP3    H229051   2.909   5.380  16.249 -1.2750 -0.4947 -0.1280
 2546TIP3   OH229052   4.742   6.606  14.406  0.2439 -0.2785  0.3529
 2546TIP3    H129053   4.729   6.574  14.495  1.2547  0.8607  0.9268
 2546TIP3    H229054   4.829   6.577  14.382 -0.4653 -1.5670 -0.7070
 2547TIP3   OH229055   1.361   2.140  11.735  0.1121 -0.2052  0.1034
 2547TIP3    H129056   1.400   2.058  11.765  0.2947  0.2181  1.0361
 2547TIP3    H229057   1.328   2.182  11.815  0.8844  1.0819 -0.2373
 2548TIP3   OH229058   5.892   4.790  15.172  0.0642  0.1035  0.1835
 2548TIP3    H129059   5.919   4.760  15.086 -0.6997  0.9727 -0.3687
 2548TIP3    H229060   5.797   4.800  15.166 -0.1265 -0.8260  1.4441
 2549TIP3   OH229061   4.939   1.521  13.506  0.4812  0.6173  0.2370
 2549TIP3    H129062   4.867   1.498  13.447  0.1213  0.6364  0.6717
 2549TIP3    H229063   4.964   1.438  13.547  0.3398  0.7047  0.4996
 2550TIP3   OH229064   1.660   0.755  15.470 -0.0281  0.0646  0.1502
 2550TIP3    H129065   1.594   0.687  15.466 -0.2605  0.0053  3.4595
 2550TIP3    H229066   1.610   0.837  15.478  0.2260  0.0482  2.3093
 2551TIP3   OH229067   2.670   1.193  12.976  0.3152  0.3425 -0.0905
 2551TIP3    H129068   2.630   1.133  13.039  0.4852 -1.8293 -1.9456
 2551TIP3    H229069   2.694   1.270  13.027 -0.0292 -1.1227  2.3823
 2552TIP3   OH229070   1.534   4.455  17.140 -0.3372  0.6365 -0.4256
 2552TIP3    H129071   1.493   4.524  17.088 -0.5556 -0.5558 -1.8606
 2552TIP3    H229072   1.501   4.470  17.229 -2.2962  0.9313 -1.1722
 2553TIP3   OH229073   1.831   1.349   2.792 -0.4358  0.3232  0.0879
 2553TIP3    H129074   1.838   1.299   2.711  1.3792  0.3136  0.2195
 2553TIP3    H229075   1.863   1.437   2.768  2.7011 -0.3915  1.3671
 2554TIP3   OH229076   5.013   6.145   2.094 -0.7828 -0.0323 -0.4719
 2554TIP3    H129077   5.002   6.083   2.022  0.4497 -1.2099  0.3085
 2554TIP3    H229078   4.925   6.173   2.117 -1.4057 -1.9152 -0.5048
 2555TIP3   OH229079   3.291   3.702  15.620  0.0079 -0.1870 -0.5943
 2555TIP3    H129080   3.374   3.729  15.582  0.3184 -2.9432 -2.0035
 2555TIP3    H229081   3.230   3.699  15.546 -0.8042 -0.1889  0.0649
 2556TIP3   OH229082   4.025   4.542  11.663 -0.0163 -0.4132  0.2330
 2556TIP3    H129083   4.110   4.507  11.638  0.1380 -1.1308  1.6690
 2556TIP3    H229084   4.034   4.561  11.757 -0.9279  1.0126  0.0489
 2557TIP3   OH229085   5.554   3.581  12.318 -0.3677  0.5735 -0.2478
 2557TIP3    H129086   5.502   3.509  12.281 -1.7223  1.2413  0.3208
 2557TIP3    H229087   5.644   3.560  12.294 -0.4022 -2.7099  2.1493
 2558TIP3   OH229088   6.698   3.059   5.590  0.0755  0.4015 -0.3561
 2558TIP3    H129089   6.701   3.003   5.667  2.0992  0.0975 -0.6296
 2558TIP3    H229090   6.712   3.148   5.623 -1.4256  0.5580 -0.1168
 2559TIP3   OH229091   1.242   4.132   1.084  0.4043 -0.1575 -0.5824
 2559TIP3    H129092   1.228   4.217   1.042  2.9748  0.7360  0.2934
 2559TIP3    H229093   1.156   4.109   1.121 -0.5585  1.5620 -1.6798
 2560TIP3   OH229094   1.683   5.345   5.892  0.3550  0.3490  0.1859
 2560TIP3    H129095   1.677   5.269   5.950  0.0431  1.2825  1.3818
 2560TIP3    H229096   1.680   5.421   5.950  0.6694  1.2883 -0.9978
 2561TIP3   OH229097   3.547   0.305   2.672  0.0616  0.2014 -0.1984
 2561TIP3    H129098   3.455   0.320   2.693  0.3295  0.4596  0.8086
 2561TIP3    H229099   3.587   0.391   2.681  0.0155  0.5007 -2.6735
 2562TIP3   OH229100   2.677   2.821  16.897  0.0483  0.4621 -0.3126
 2562TIP3    H129101   2.604   2.774  16.856 -0.8598  1.6241 -0.0755
 2562TIP3    H229102   2.672   2.796  16.990  0.2292  0.1953 -0.3733
 2563TIP3   OH229103   1.479   4.837  11.347 -0.7577 -0.3706 -0.6980
 2563TIP3    H129104   1.423   4.802  11.416  1.5719  0.8397  1.9486
 2563TIP3    H229105   1.544   4.768  11.332 -1.2635 -0.6346 -1.7287
 2564TIP3   OH229106   5.210   4.897   3.855  0.0910  0.0913 -0.5707
 2564TIP3    H129107   5.239   4.981   3.888 -2.3800 -0.4485  3.2818
 2564TIP3    H229108   5.145   4.919   3.787  1.1586  1.2497 -1.2258
 2565TIP3   OH229109   4.692   3.876  17.139 -0.5831  0.1948  0.6568
 2565TIP3    H129110   4.746   3.876  17.218 -0.1269 -2.5777  0.4029
 2565TIP3    H229111   4.654   3.788  17.136  0.3389 -0.1576 -2.8187
 2566TIP3   OH229112   4.990   3.455   1.672  0.1561  0.3527 -0.3045
 2566TIP3    H129113   5.046   3.487   1.742 -0.4801  0.7365  0.0392
 2566TIP3    H229114   4.901   3.466   1.706 -0.1315 -0.1216 -0.8916
 2567TIP3   OH229115   6.649   5.169  12.068  0.2787 -0.2622  0.2429
 2567TIP3    H129116   6.716   5.233  12.092  0.3903 -0.4344  0.4001
 2567TIP3    H229117   6.601   5.209  11.996  0.1264  0.1436  0.5657
 2568TIP3   OH229118   6.374   0.278  12.366  0.1191 -1.1811 -0.1512
 2568TIP3    H129119   6.327   0.197  12.388  0.6693 -1.2564  0.7631
 2568TIP3    H229120   6.385   0.322  12.451  2.0551 -1.3536 -0.3064
 2569TIP3   OH229121   6.020   2.252  13.279 -0.0609 -0.0823  0.3239
 2569TIP3    H129122   6.045   2.345  13.280 -3.0389  0.8393 -3.4059
 2569TIP3    H229123   5.974   2.239  13.362  1.0908  1.5512  1.2460
 2570TIP3   OH229124   5.232   2.216  13.803  0.4051  0.2954  0.3558
 2570TIP3    H129125   5.140   2.222  13.779 -0.3403 -0.7486  2.7707
 2570TIP3    H229126   5.250   2.299  13.847  0.5652  0.4068  0.0820
 2571TIP3   OH229127   3.777   3.595   5.081 -0.0661  0.6810  0.3158
 2571TIP3    H129128   3.688   3.631   5.086 -0.2301  0.0159  4.0465
 2571TIP3    H229129   3.769   3.518   5.024 -1.5788  1.4168 -0.4961
 2572TIP3   OH229130   5.552   5.832  16.743 -0.7230 -0.3613 -0.1985
 2572TIP3    H129131   5.530   5.840  16.836 -2.2887 -0.8077 -0.5272
 2572TIP3    H229132   5.647   5.846  16.740 -0.8962  1.3200  1.2730
 2573TIP3   OH229133   2.435   2.358  12.715  0.2654 -0.4664 -0.1145
 2573TIP3    H129134   2.359   2.302  12.730 -0.5422  0.6005 -0.1536
 2573TIP3    H229135   2.460   2.389  12.802 -2.0961  2.7133 -0.4971
 2574TIP3   OH229136   5.447   3.444   0.347 -0.3943 -0.0827 -0.2253
 2574TIP3    H129137   5.362   3.473   0.382 -0.4232 -0.0538 -0.3176
 2574TIP3    H229138   5.493   3.406   0.422  0.4339  1.9800  0.3328
 2575TIP3   OH229139   2.931   3.152   3.646 -0.1211  0.3939  0.4855
 2575TIP3    H129140   2.934   3.135   3.740  0.6575  1.4119  0.6472
 2575TIP3    H229141   3.022   3.161   3.619 -0.3288 -0.0664 -0.4102
 2576TIP3   OH229142   0.123   0.020   6.179 -0.9319 -0.5651 -0.0465
 2576TIP3    H129143   0.077   0.041   6.098  2.1119  1.7749 -1.2304
 2576TIP3    H229144   0.088   0.082   6.243 -0.1858  0.5681 -0.7100
 2577TIP3   OH229145   0.960   3.422  15.150  0.5018 -0.0789  0.3238
 2577TIP3    H129146   1.010   3.366  15.209 -0.9256 -2.6229 -0.8091
 2577TIP3    H229147   0.873   3.428  15.191 -0.2721 -1.2527 -1.1100
 2578TIP3   OH229148   2.477   0.898   3.967 -0.4680 -0.6329  0.6207
 2578TIP3    H129149   2.512   0.896   4.057  2.5453 -0.3619 -0.4655
 2578TIP3    H229150   2.491   0.988   3.938 -2.6501 -0.3826  0.3244
 2579TIP3   OH229151   5.837   3.328  15.832  0.2088 -0.2339 -0.6706
 2579TIP3    H129152   5.893   3.257  15.801  2.0805  1.8717 -2.2622
 2579TIP3    H229153   5.803   3.370  15.753 -1.2688  0.3676  0.2393
 2580TIP3   OH229154   5.227   1.257  10.090 -0.0187  0.4126  0.2579
 2580TIP3    H129155   5.164   1.185  10.097  0.6836 -0.1037  1.3682
 2580TIP3    H229156   5.296   1.235  10.152  1.1251  1.1167 -0.7299
 2581TIP3   OH229157   6.390   4.195   4.440 -0.0814  0.6101 -0.6238
 2581TIP3    H129158   6.470   4.234   4.405 -1.5208  3.3481 -1.0047
 2581TIP3    H229159   6.395   4.210   4.534 -0.0031  0.4785 -0.6067
 2582TIP3   OH229160   1.750   6.546  16.960  0.2005  0.1495 -0.2767
 2582TIP3    H129161   1.758   6.583  16.872  0.8950 -1.3686 -0.8769
 2582TIP3    H229162   1.769   6.453  16.948  0.6224 -0.0123  1.5334
 2583TIP3   OH229163   1.188   1.914  14.213 -0.2473  0.0753 -0.0627
 2583TIP3    H129164   1.124   1.985  14.214 -2.1076 -1.5291 -0.7447
 2583TIP3    H229165   1.195   1.886  14.305  1.2948  1.8155  0.3624
 2584TIP3   OH229166   5.429   0.666   4.883  0.1814 -0.1326 -0.5350
 2584TIP3    H129167   5.351   0.718   4.865 -0.2098 -0.5926 -0.1629
 2584TIP3    H229168   5.489   0.727   4.927 -0.2796 -0.0008 -0.0876
 2585TIP3   OH229169   2.357   0.704   1.057 -0.3263 -0.4473  0.2245
 2585TIP3    H129170   2.330   0.711   0.966  1.2596 -1.4444 -0.3524
 2585TIP3    H229171   2.283   0.662   1.102 -1.0760 -0.0204 -0.6099
 2586TIP3   OH229172   3.339   4.189  15.414  0.4471  0.5927 -0.5096
 2586TIP3    H129173   3.415   4.154  15.368  0.8023 -0.7029  0.9744
 2586TIP3    H229174   3.264   4.143  15.376  0.7419 -0.4932  0.1823
 2587TIP3   OH229175   4.277   0.678  15.710 -0.0897  0.0758 -0.1211
 2587TIP3    H129176   4.188   0.699  15.740 -0.6935 -0.1843 -1.6620
 2587TIP3    H229177   4.299   0.749  15.650 -0.0193 -0.8681 -1.2231
 2588TIP3   OH229178   3.728   2.899  12.843  0.7388 -0.1428 -0.0564
 2588TIP3    H129179   3.805   2.955  12.831 -1.4453  2.2627 -3.7047
 2588TIP3    H229180   3.729   2.841  12.766 -0.7718 -0.5271  0.2069
 2589TIP3   OH229181   0.654   4.131   3.310  0.3552 -0.4889 -0.0096
 2589TIP3    H129182   0.713   4.134   3.386  0.5698  0.5187 -0.2120
 2589TIP3    H229183   0.640   4.222   3.287  0.3866 -0.8028 -1.2783
 2590TIP3   OH229184   2.330   5.673   5.104 -0.1380  0.1085 -0.0916
 2590TIP3    H129185   2.373   5.719   5.032 -1.5840  1.1552 -0.3115
 2590TIP3    H229186   2.249   5.640   5.066 -0.2755 -0.4811  0.7143
 2591TIP3   OH229187   2.773   1.501  13.628  0.7644  0.1996 -0.4493
 2591TIP3    H129188   2.683   1.516  13.598  0.4592 -1.6774 -0.5246
 2591TIP3    H229189   2.820   1.474  13.549  1.3127  0.8576 -0.3446
 2592TIP3   OH229190   4.526   1.707  13.806 -0.1612 -0.7351 -0.1940
 2592TIP3    H129191   4.543   1.789  13.759  0.1351  1.1369  3.0195
 2592TIP3    H229192   4.432   1.694  13.799 -0.5083  0.9980  0.9689
 2593TIP3   OH229193   4.697   5.838   3.877  0.0993 -0.4746  0.2262
 2593TIP3    H129194   4.639   5.913   3.867 -1.2709 -1.7297 -1.4043
 2593TIP3    H229195   4.762   5.850   3.808 -0.8717 -1.4586 -0.8644
 2594TIP3   OH229196   1.655   0.207  11.826  0.8240  0.4964 -0.8545
 2594TIP3    H129197   1.576   0.248  11.861  2.3063  2.0498  0.7560
 2594TIP3    H229198   1.688   0.154  11.898  0.5331 -1.2544 -1.9787
 2595TIP3   OH229199   6.724   0.725  15.334 -0.5447 -0.2910  0.0968
 2595TIP3    H129200   6.785   0.727  15.408 -1.0305 -2.4681  0.5989
 2595TIP3    H229201   6.683   0.811  15.334  0.4350  0.1959  1.5314
 2596TIP3   OH229202   0.825   4.119  10.213 -0.4124  0.2008 -0.5924
 2596TIP3    H129203   0.849   4.178  10.285  0.5500 -1.8939  0.8627
 2596TIP3    H229204   0.770   4.053  10.254  0.4709 -1.2437 -1.7022
 2597TIP3   OH229205   1.480   5.357   1.387  0.6193  0.2412  0.2467
 2597TIP3    H129206   1.448   5.280   1.435  1.1099  0.5930  1.1440
 2597TIP3    H229207   1.525   5.320   1.311 -0.1534 -0.3253  0.0573
 2598TIP3   OH229208   5.894   2.208   1.389 -0.3539  0.0736  0.6284
 2598TIP3    H129209   5.989   2.201   1.376 -0.5302 -0.3320 -0.5034
 2598TIP3    H229210   5.871   2.129   1.438 -0.1711 -0.0645  0.4944
 2599TIP3   OH229211   5.162   5.143  16.203  0.3204 -0.3713  0.1703
 2599TIP3    H129212   5.223   5.070  16.191 -0.4863 -0.8868 -0.8933
 2599TIP3    H229213   5.217   5.221  16.205  0.8953 -0.6612 -2.5348
 2600TIP3   OH229214   5.756   6.100   2.723  0.0027 -0.2957 -0.0809
 2600TIP3    H129215   5.764   6.063   2.811 -1.1711  2.7532  1.3696
 2600TIP3    H229216   5.664   6.128   2.717  0.2403  0.1368 -2.0298
 2601TIP3   OH229217   2.056   6.043  13.011  0.0179  0.2059 -0.1010
 2601TIP3    H129218   2.088   5.981  12.946  0.6123 -2.2730  2.4193
 2601TIP3    H229219   1.972   6.007  13.039  0.1761  0.7535  1.1153
 2602TIP3   OH229220   5.765   4.331   3.751  0.2728 -0.4826 -0.2903
 2602TIP3    H129221   5.712   4.395   3.704 -0.4474 -0.2609  0.8132
 2602TIP3    H229222   5.821   4.293   3.684  0.0569  0.6419 -1.1246
 2603TIP3   OH229223   3.368   3.865   3.380 -0.0401 -0.0870  0.1605
 2603TIP3    H129224   3.331   3.795   3.327 -1.5826  1.8083 -1.3868
 2603TIP3    H229225   3.407   3.821   3.455  0.5166 -2.6966 -1.5970
 2604TIP3   OH229226   6.580   0.438  16.804 -0.1705 -0.6521 -0.0096
 2604TIP3    H129227   6.516   0.498  16.766 -0.0912  0.7362  1.9692
 2604TIP3    H229228   6.528   0.362  16.832 -0.6585 -0.3910 -0.1990
 2605TIP3   OH229229   2.185   4.062  16.745 -0.1815  0.0596  0.3644
 2605TIP3    H129230   2.263   4.008  16.755 -1.4097 -1.7368  0.3902
 2605TIP3    H229231   2.117   4.002  16.716 -1.2731  1.8288 -0.8384
 2606TIP3   OH229232   6.247   4.923  13.496 -0.3632  0.0491  0.4932
 2606TIP3    H129233   6.171   4.962  13.452  0.3615 -0.2502 -1.0729
 2606TIP3    H229234   6.247   4.832  13.467  1.6713  0.5093 -1.0880
 2607TIP3   OH229235   0.391   5.579   0.609 -0.4533  0.2946 -0.0235
 2607TIP3    H129236   0.466   5.521   0.623  0.2684  1.0108 -0.8548
 2607TIP3    H229237   0.316   5.529   0.641  0.2399 -0.8457 -0.1453
 2608TIP3   OH229238   3.511   6.779  14.672 -0.1585  0.8217  0.4335
 2608TIP3    H129239   3.450   6.746  14.738  0.6080 -2.0205 -0.1881
 2608TIP3    H229240   3.558   6.701  14.642  1.9037  2.5469 -1.0211
 2609TIP3   OH229241   3.575   1.536   0.890 -0.1338  0.3444 -0.7824
 2609TIP3    H129242   3.662   1.526   0.852  0.2445 -1.1965  0.4426
 2609TIP3    H229243   3.585   1.512   0.981 -1.5693  1.5248 -0.2770
 2610TIP3   OH229244   1.371   6.785  13.694 -0.0449 -0.4810 -0.5249
 2610TIP3    H129245   1.361   6.803  13.601  0.4672  0.3908 -0.4175
 2610TIP3    H229246   1.435   6.849  13.724 -2.1597  0.9816  0.9805
 2611TIP3   OH229247   0.718   4.970   3.694  0.1385  0.2098 -0.0441
 2611TIP3    H129248   0.668   4.889   3.704 -0.8183  0.9590  1.2537
 2611TIP3    H229249   0.653   5.038   3.680  0.7995  1.1517  1.4017
 2612TIP3   OH229250   5.729   6.503  11.973 -0.0871 -0.7598  0.4655
 2612TIP3    H129251   5.814   6.520  12.013  0.4026 -1.3181 -0.3100
 2612TIP3    H229252   5.676   6.468  12.044  0.1929  0.0165  1.0603
 2613TIP3   OH229253   1.786   2.569   4.700 -0.2256  0.2748 -0.4786
 2613TIP3    H129254   1.753   2.655   4.674  0.7133  0.2918 -1.6186
 2613TIP3    H229255   1.763   2.511   4.628  0.7210 -0.0632 -0.5132
 2614TIP3   OH229256   4.000   0.022   2.199  0.0539 -0.5358 -0.3881
 2614TIP3    H129257   4.028   0.113   2.197  2.5017 -1.1579  2.8765
 2614TIP3    H229258   3.921   0.022   2.253 -1.0614 -0.1488 -1.9561
 2615TIP3   OH229259   5.756   4.357  11.576 -0.3843 -0.2425 -0.9534
 2615TIP3    H129260   5.785   4.355  11.485 -0.0338 -0.3844 -0.8380
 2615TIP3    H229261   5.759   4.449  11.601  2.1658 -0.4851 -0.2330
 2616TIP3   OH229262   6.332   4.400  15.462  0.0968 -0.1115 -0.6059
 2616TIP3    H129263   6.393   4.328  15.446 -0.0841 -0.2838 -0.5228
 2616TIP3    H229264   6.269   4.365  15.524 -0.9261 -0.4143 -1.7876
 2617TIP3   OH229265   6.022   1.454  16.642  0.3331 -0.0605  0.4388
 2617TIP3    H129266   6.039   1.360  16.654  0.8051 -0.0373 -0.0225
 2617TIP3    H229267   6.101   1.497  16.674 -1.4023  0.4074  4.2885
 2618TIP3   OH229268   0.452   3.050  14.842 -0.1917 -0.3657 -0.8300
 2618TIP3    H129269   0.462   3.129  14.789 -2.0396 -0.0430 -0.7412
 2618TIP3    H229270   0.541   3.023  14.863  0.4664  1.4656 -1.2038
 2619TIP3   OH229271   1.682   0.678   1.241 -0.2585 -0.0555 -0.3967
 2619TIP3    H129272   1.688   0.583   1.242  0.7108  0.0002  0.5518
 2619TIP3    H229273   1.757   0.706   1.188  0.4051  0.2249  0.6739
 2620TIP3   OH229274   2.122   2.187  13.306 -0.0952  0.0787  0.4271
 2620TIP3    H129275   2.211   2.217  13.287  0.3469  0.1139  2.5021
 2620TIP3    H229276   2.066   2.257  13.273  0.5252 -0.6305 -2.3174
 2621TIP3   OH229277   1.483   4.843  12.663 -0.6259 -0.3937 -0.1523
 2621TIP3    H129278   1.563   4.791  12.658 -0.6719 -0.6021  0.9781
 2621TIP3    H229279   1.492   4.892  12.745 -1.6120 -0.3652 -0.0558
 2622TIP3   OH229280   3.335   3.101  16.015 -0.6054 -0.0252  0.1447
 2622TIP3    H129281   3.242   3.118  16.029 -0.9150  0.4940 -2.2530
 2622TIP3    H229282   3.373   3.187  15.996  0.2995 -0.2698  0.8195
 2623TIP3   OH229283   0.486   6.509  15.633 -0.0863 -0.5491  0.0403
 2623TIP3    H129284   0.468   6.581  15.572 -0.3133  0.2699  1.0732
 2623TIP3    H229285   0.580   6.491  15.622  0.5904  1.7604  1.7780
 2624TIP3   OH229286   4.623   4.557  14.953 -0.9679  0.2909 -0.7001
 2624TIP3    H129287   4.615   4.557  15.048 -2.4983  1.1751 -0.8049
 2624TIP3    H229288   4.635   4.465  14.929  0.8444  0.2139  0.4397
 2625TIP3   OH229289   4.662   4.037   3.854  0.0915  0.1959  0.5919
 2625TIP3    H129290   4.728   4.023   3.786 -0.2282 -0.1723  0.3557
 2625TIP3    H229291   4.592   4.084   3.810 -1.6499 -3.0350 -0.2249
 2626TIP3   OH229292   2.897   0.156   2.708 -0.4954 -0.6692  0.5346
 2626TIP3    H129293   2.983   0.147   2.749 -0.7827 -1.1442  1.0482
 2626TIP3    H229294   2.835   0.139   2.779 -1.0714  2.5912  0.9258
 2627TIP3   OH229295   4.569   4.913   4.855 -0.4741 -0.3789  0.1532
 2627TIP3    H129296   4.568   5.005   4.829  0.3795 -0.1929  0.7498
 2627TIP3    H229297   4.538   4.913   4.945  1.8476 -0.3800  0.9893
 2628TIP3   OH229298   3.435   6.176   3.840 -0.0492 -0.1205 -0.0273
 2628TIP3    H129299   3.443   6.084   3.864  0.1866  0.0536  0.5767
 2628TIP3    H229300   3.420   6.175   3.745  2.4319 -0.6906 -0.4487
 2629TIP3   OH229301   3.842   5.428  11.287 -0.3379 -0.1812  0.1678
 2629TIP3    H129302   3.778   5.428  11.358 -0.8449 -0.5623 -0.2844
 2629TIP3    H229303   3.801   5.376  11.218  1.1995 -1.9285  0.5331
 2630TIP3   OH229304   2.632   6.435   5.395 -0.4795 -0.4086  0.0872
 2630TIP3    H129305   2.658   6.519   5.358 -0.7717 -0.9653 -1.4479
 2630TIP3    H229306   2.713   6.384   5.398 -0.6980 -0.8552 -1.1732
 2631TIP3   OH229307   6.104   1.702   0.503 -0.1532 -0.1455 -0.0540
 2631TIP3    H129308   6.113   1.771   0.436  1.7080  1.1646  1.4975
 2631TIP3    H229309   6.152   1.628   0.467  0.8764  0.5684 -0.1851
 2632TIP3   OH229310   0.194   4.992   3.225  0.2221 -0.1958 -0.2628
 2632TIP3    H129311   0.267   5.039   3.185  1.4288 -0.8263  1.1334
 2632TIP3    H229312   0.117   5.018   3.175  1.0447  2.3749 -0.2227
 2633TIP3   OH229313   0.981   4.695   3.490 -0.4626 -0.2106  0.3361
 2633TIP3    H129314   0.963   4.788   3.506  2.2008  0.4430 -0.1299
 2633TIP3    H229315   0.987   4.656   3.577  2.9388  1.0504  0.7717
 2634TIP3   OH229316   5.463   4.395   6.228  0.1553 -0.6421  0.4824
 2634TIP3    H129317   5.442   4.320   6.172  0.2414  0.8241 -1.5661
 2634TIP3    H229318   5.377   4.431   6.252  0.1269  0.1286 -0.6967
 2635TIP3   OH229319   2.505   4.200  16.953  0.6248  0.0331  0.7267
 2635TIP3    H129320   2.583   4.194  17.009  1.4525 -1.8409 -0.5696
 2635TIP3    H229321   2.527   4.147  16.876 -0.3298  2.9445 -1.6011
 2636TIP3   OH229322   4.210   3.700  12.017 -0.1187  0.2214 -0.6003
 2636TIP3    H129323   4.191   3.661  12.103 -1.1449  0.5536 -0.6768
 2636TIP3    H229324   4.224   3.625  11.959  4.2692 -0.0549  0.6302
 2637TIP3   OH229325   0.030   5.743  15.721  0.0597  0.0748  0.5706
 2637TIP3    H129326   0.066   5.778  15.802  0.1849 -0.7009  0.8509
 2637TIP3    H229327  -0.054   5.789  15.711 -0.1020 -0.0531  1.2996
 2638TIP3   OH229328   4.679   3.572   2.190  0.0075 -0.0630  0.0531
 2638TIP3    H129329   4.770   3.571   2.161  0.5589 -2.0171  1.7587
 2638TIP3    H229330   4.674   3.646   2.251  0.4408  0.0502 -0.0489
 2639TIP3   OH229331   6.177   1.652   2.232 -0.4343 -0.3832  0.0281
 2639TIP3    H129332   6.086   1.678   2.227 -0.2923  0.1953  0.3249
 2639TIP3    H229333   6.212   1.703   2.305 -0.2205 -1.6333  0.8184
 2640TIP3   OH229334   1.156   5.061   0.687 -0.7449  0.3906 -0.1213
 2640TIP3    H129335   1.079   5.105   0.723 -0.5513  2.3937 -2.0665
 2640TIP3    H229336   1.139   5.056   0.593  0.6204 -0.9441 -0.3107
 2641TIP3   OH229337   6.502   4.352  13.735 -0.1879  0.3482 -0.0635
 2641TIP3    H129338   6.481   4.405  13.657 -1.1404  1.2626  0.7912
 2641TIP3    H229339   6.463   4.401  13.808  2.5896  0.6741  1.2920
 2642TIP3   OH229340   3.519   1.878  12.299 -0.2495  0.0189 -0.0033
 2642TIP3    H129341   3.580   1.819  12.342 -2.4437 -0.4730  2.6057
 2642TIP3    H229342   3.454   1.899  12.366 -3.2978  0.0324 -2.7899
 2643TIP3   OH229343   0.325   0.159   5.730 -0.2252  0.9917  0.0542
 2643TIP3    H129344   0.344   0.183   5.820 -1.5598  0.2159  0.5532
 2643TIP3    H229345   0.245   0.206   5.708 -1.5127 -1.0578  0.2458
 2644TIP3   OH229346   5.493   3.456   1.952 -0.2073 -0.6988 -0.0125
 2644TIP3    H129347   5.530   3.380   1.996  0.2833 -0.8611 -0.7111
 2644TIP3    H229348   5.561   3.523   1.956 -0.2175 -0.6624 -0.3806
 2645TIP3   OH229349   3.556   2.977  15.899 -0.1564  0.0044  0.4040
 2645TIP3    H129350   3.521   2.907  15.843  0.2594  0.4508 -0.4212
 2645TIP3    H229351   3.480   3.006  15.950 -0.8138  0.3674 -0.7451
 2646TIP3   OH229352   2.644   5.924   5.930  0.2925  0.3749 -0.2737
 2646TIP3    H129353   2.642   5.944   6.024 -2.4112  1.6791 -0.5511
 2646TIP3    H229354   2.659   6.009   5.888  0.6702 -0.0733 -1.0398
 2647TIP3   OH229355   0.591   1.493  12.779 -0.0409  0.6158 -0.1813
 2647TIP3    H129356   0.575   1.410  12.733 -0.0350 -0.9768  2.5663
 2647TIP3    H229357   0.629   1.550  12.713 -0.0442 -1.5732 -2.1542
 2648TIP3   OH229358   3.822   4.871   3.661  0.0474  0.1745  0.1108
 2648TIP3    H129359   3.896   4.920   3.696 -0.3471  1.5549 -0.9536
 2648TIP3    H229360   3.752   4.935   3.652 -1.0811 -0.9748  0.4779
 2649TIP3   OH229361   1.731   2.638   5.750 -0.5029 -0.1356  0.0732
 2649TIP3    H129362   1.809   2.688   5.774  0.1291 -0.4436 -1.2901
 2649TIP3    H229363   1.684   2.626   5.833  1.4077 -0.8374  1.0872
 2650TIP3   OH229364   2.307   4.176  15.667 -0.3497  0.2518 -0.6267
 2650TIP3    H129365   2.363   4.209  15.596 -0.5664  2.6118  0.2244
 2650TIP3    H229366   2.219   4.202  15.642 -0.5570  0.1188 -0.0363
 2651TIP3   OH229367   0.700   4.912  14.419  0.4620 -0.3986  0.3207
 2651TIP3    H129368   0.704   4.821  14.388 -0.5609 -0.4811  0.4171
 2651TIP3    H229369   0.608   4.934  14.415  0.7329  0.7040  0.1415
 2652TIP3   OH229370   3.131   5.580   5.384 -0.7317  0.6108  0.0625
 2652TIP3    H129371   3.036   5.591   5.383 -0.5866  1.8392  0.0689
 2652TIP3    H229372   3.162   5.639   5.453  0.0630  0.4149 -0.1174
 2653TIP3   OH229373   5.888   0.287  12.730  0.3317 -0.1899  0.0520
 2653TIP3    H129374   5.954   0.282  12.799 -0.4750  0.1032  0.8431
 2653TIP3    H229375   5.930   0.244  12.655  1.7110  0.6815  0.3047
 2654TIP3   OH229376   3.681   5.791  16.306 -0.4365  0.1282 -0.0929
 2654TIP3    H129377   3.717   5.707  16.335  1.9436  0.3376 -2.2278
 2654TIP3    H229378   3.664   5.839  16.387  1.7915 -0.9637  1.0803
 2655TIP3   OH229379   5.126   1.906   1.281  0.0132  0.1278 -0.5435
 2655TIP3    H129380   5.057   1.855   1.323  1.3625 -0.8889  0.4717
 2655TIP3    H229381   5.089   1.994   1.272 -1.1461 -0.2354  0.6045
 2656TIP3   OH229382   6.308   2.224  14.760 -0.9541  0.2668  0.2835
 2656TIP3    H129383   6.400   2.249  14.750 -0.8440  0.3554  1.4711
 2656TIP3    H229384   6.262   2.306  14.773 -0.9797  0.0879  1.3275
 2657TIP3   OH229385   6.747   6.288  12.658 -0.1342 -0.1131 -0.5157
 2657TIP3    H129386   6.784   6.216  12.709  0.9216  0.6879 -0.1267
 2657TIP3    H229387   6.777   6.273  12.569  2.6928  1.5119  0.1124
 2658TIP3   OH229388   2.880   3.445   5.586  0.2664  0.2301  0.2026
 2658TIP3    H129389   2.825   3.409   5.656  0.4278  0.2180  0.3227
 2658TIP3    H229390   2.857   3.538   5.584 -0.8234 -0.0424 -0.7296
 2659TIP3   OH229391   4.229   0.909   1.031  0.2723  0.3024 -0.1915
 2659TIP3    H129392   4.283   0.837   1.062 -0.7682 -1.0685 -1.5192
 2659TIP3    H229393   4.196   0.950   1.110  0.0762 -1.2885  0.5616
 2660TIP3   OH229394   2.561   0.816   2.574  0.3962 -0.2817 -0.0425
 2660TIP3    H129395   2.472   0.813   2.607  1.3560 -2.8683  2.5085
 2660TIP3    H229396   2.583   0.909   2.572 -2.0192  0.3218  0.1483
 2661TIP3   OH229397   4.870   0.236  13.888  0.3809  0.0610  0.4036
 2661TIP3    H129398   4.819   0.178  13.832  1.0346 -0.5038  0.3983
 2661TIP3    H229399   4.860   0.323  13.848  0.7007 -0.3049 -0.4716
 2662TIP3   OH229400   5.154   2.326   5.573  0.5755 -0.4771  0.2591
 2662TIP3    H129401   5.243   2.331   5.540  0.5523 -0.7475  0.1614
 2662TIP3    H229402   5.100   2.361   5.502  0.6227 -0.0915  0.4075
 2663TIP3   OH229403   3.205   2.387   2.636 -0.4283  0.3619 -0.3350
 2663TIP3    H129404   3.190   2.293   2.626 -0.7236  0.2761  0.7962
 2663TIP3    H229405   3.276   2.407   2.575 -0.4840 -0.5635 -0.7076
 2664TIP3   OH229406   0.282   5.465   0.252 -0.0436  0.4936  0.5790
 2664TIP3    H129407   0.370   5.493   0.228  0.1176  2.3136  3.0433
 2664TIP3    H229408   0.295   5.391   0.311 -0.3689 -2.1963 -2.5306
 2665TIP3   OH229409   0.007   4.242  12.960 -0.0983  0.6250 -0.2448
 2665TIP3    H129410  -0.024   4.219  13.047  0.9074  0.4352  0.0647
 2665TIP3    H229411  -0.072   4.269  12.913 -1.0772 -1.9069 -0.1281
 2666TIP3   OH229412   1.952   6.442  16.287 -0.4775 -0.4046  0.0479
 2666TIP3    H129413   1.922   6.516  16.340 -1.0736  1.7316 -3.1019
 2666TIP3    H229414   2.030   6.476  16.241 -0.5011 -1.8666 -1.0956
 2667TIP3   OH229415   5.183   1.755   2.118  0.3870 -0.6611  0.0943
 2667TIP3    H129416   5.240   1.680   2.138  0.1786 -0.4789  1.4127
 2667TIP3    H229417   5.139   1.774   2.200  1.1643  1.5538  0.0225
 2668TIP3   OH229418   5.490   3.640   4.812  0.2326 -0.0615  0.2065
 2668TIP3    H129419   5.477   3.570   4.876  2.1800  1.0275  1.8177
 2668TIP3    H229420   5.579   3.627   4.780 -1.0464 -1.2194 -3.1011
 2669TIP3   OH229421   2.597   3.714  11.510 -0.2278  0.5724 -0.3507
 2669TIP3    H129422   2.680   3.758  11.496 -0.2605  0.7302 -0.0411
 2669TIP3    H229423   2.531   3.781  11.493 -0.2976  0.4289 -0.6684
 2670TIP3   OH229424   0.405   4.724   2.149  0.0519 -0.2225 -0.0155
 2670TIP3    H129425   0.498   4.720   2.173  0.2030 -2.2741 -0.8612
 2670TIP3    H229426   0.363   4.656   2.203 -0.8610  0.2554 -0.1121
 2671TIP3   OH229427   3.940   1.283  13.535  0.1157  0.5035 -0.4543
 2671TIP3    H129428   4.034   1.290  13.523  0.3394  1.8059  1.7793
 2671TIP3    H229429   3.928   1.206  13.590  0.0647  1.5545  1.0355
 2672TIP3   OH229430   1.929   1.331   5.155  0.5562 -0.2763  0.0273
 2672TIP3    H129431   1.918   1.407   5.212  0.0521  1.0867 -1.8020
 2672TIP3    H229432   1.872   1.264   5.193  1.1548  0.1859  1.7787
 2673TIP3   OH229433   5.037   6.377   0.564 -0.0744  0.4614 -0.2542
 2673TIP3    H129434   5.085   6.384   0.646 -0.2952 -0.6638 -0.0145
 2673TIP3    H229435   5.011   6.467   0.543  1.8837  1.0539 -0.2465
 2674TIP3   OH229436   0.777   5.939  14.304  0.5453  0.0803 -0.1278
 2674TIP3    H129437   0.703   5.999  14.308  0.1741 -0.3053 -1.1321
 2674TIP3    H229438   0.738   5.852  14.310  1.0145 -0.0855  0.5221
 2675TIP3   OH229439   2.172   5.386  15.346  0.2064  0.1697 -0.1728
 2675TIP3    H129440   2.225   5.418  15.273 -1.8784 -0.1808 -1.8853
 2675TIP3    H229441   2.227   5.320  15.388  1.1694 -0.1477 -1.8783
 2676TIP3   OH229442   1.228   2.550   1.381  0.0604 -0.2369 -0.1499
 2676TIP3    H129443   1.208   2.457   1.372 -3.0683  0.2950  0.8687
 2676TIP3    H229444   1.145   2.594   1.364  1.2772  2.3333  0.3532
 2677TIP3   OH229445   4.896   4.212   3.719  0.2615 -0.0961 -0.4677
 2677TIP3    H129446   4.932   4.201   3.631  2.2864  0.3334  0.2952
 2677TIP3    H229447   4.900   4.307   3.734  1.1401 -0.2927  0.5807
 2678TIP3   OH229448   1.400   2.952   3.776 -0.1186 -0.1845 -0.2725
 2678TIP3    H129449   1.426   2.920   3.690  0.7605 -0.8400  0.2326
 2678TIP3    H229450   1.453   2.902   3.838 -2.2259 -1.1973  0.7672
 2679TIP3   OH229451   4.359   2.763   3.639  0.4202 -0.4822  0.2342
 2679TIP3    H129452   4.332   2.853   3.621  1.0001 -0.3391  0.0722
 2679TIP3    H229453   4.307   2.710   3.578  1.1975 -0.1279 -0.7444
 2680TIP3   OH229454   4.073   0.622  13.877  0.1511 -0.3995 -0.3969
 2680TIP3    H129455   4.014   0.671  13.819 -1.5961 -1.8500  0.1007
 2680TIP3    H229456   4.049   0.530  13.862 -1.9460 -0.7444  4.2625
 2681TIP3   OH229457   5.579   1.492   2.847 -0.6498  0.3108  0.0686
 2681TIP3    H129458   5.631   1.488   2.767 -1.0280  2.2006 -0.2797
 2681TIP3    H229459   5.575   1.585   2.869 -2.0148 -0.0278  1.3283
 2682TIP3   OH229460   1.236   1.489   5.369 -0.0921  0.3867  0.1058
 2682TIP3    H129461   1.261   1.553   5.302  0.1192 -0.0236 -0.2122
 2682TIP3    H229462   1.208   1.412   5.319 -0.0687  0.1284  0.4875
 2683TIP3   OH229463   1.240   1.251  13.271 -0.3567  0.1328 -0.1067
 2683TIP3    H129464   1.235   1.304  13.192 -1.6946  0.8721  0.4615
 2683TIP3    H229465   1.161   1.197  13.270  0.6820 -1.4183 -0.3583
 2684TIP3   OH229466   5.207   0.322   0.499  0.4915  0.0191  0.3387
 2684TIP3    H129467   5.232   0.326   0.407  1.5877  0.9917  0.6525
 2684TIP3    H229468   5.136   0.258   0.503 -0.7366  1.2323 -1.4318
 2685TIP3   OH229469   5.013   2.116  11.330  0.2211 -0.0011 -0.1458
 2685TIP3    H129470   4.940   2.177  11.323  1.0700  1.0239 -0.0944
 2685TIP3    H229471   4.997   2.069  11.412 -0.9780 -0.5826 -0.6985
 2686TIP3   OH229472   3.049   3.381  16.166  0.1800  0.1639 -0.1830
 2686TIP3    H129473   3.052   3.310  16.102  2.9515 -1.8912  2.0618
 2686TIP3    H229474   2.982   3.354  16.229 -0.2856  0.6078 -0.4850
 2687TIP3   OH229475   2.368   2.854  11.199 -0.0420  0.1445 -0.1941
 2687TIP3    H129476   2.305   2.890  11.137 -0.1220 -1.8060 -1.2918
 2687TIP3    H229477   2.439   2.819  11.145  0.4411 -0.5557  0.8621
 2688TIP3   OH229478   1.893   3.631  15.561 -0.1804  0.8106 -0.1930
 2688TIP3    H129479   1.880   3.719  15.527  0.3513  0.2558 -1.8893
 2688TIP3    H229480   1.850   3.574  15.497  1.8230 -0.3337 -0.5548
 2689TIP3   OH229481   5.869   5.250  11.791 -0.3998  0.4589 -0.6696
 2689TIP3    H129482   5.838   5.321  11.736 -1.1549  0.1669 -0.6273
 2689TIP3    H229483   5.810   5.177  11.773 -0.3101  0.1820  0.1048
 2690TIP3   OH229484   3.315   6.348  14.586 -0.1562  0.2219 -0.1326
 2690TIP3    H129485   3.243   6.317  14.532  0.2413  1.0350 -1.1532
 2690TIP3    H229486   3.361   6.411  14.531  1.7602 -0.8147  0.2328
 2691TIP3   OH229487   6.144   5.381   0.776 -0.1938 -0.3120 -0.1378
 2691TIP3    H129488   6.092   5.371   0.697 -1.4527  0.9730  0.5151
 2691TIP3    H229489   6.178   5.470   0.772 -0.2320 -0.2548  0.7575
 2692TIP3   OH229490   1.403   2.722   0.148  0.1496  0.1301  0.5361
 2692TIP3    H129491   1.459   2.648   0.125  0.9606  0.8486  0.2083
 2692TIP3    H229492   1.397   2.719   0.244 -0.6793 -0.9873  0.4574
 2693TIP3   OH229493   0.642   4.470  12.178 -1.0256 -0.6250 -0.4565
 2693TIP3    H129494   0.702   4.418  12.231  0.0227 -0.2341 -1.2494
 2693TIP3    H229495   0.603   4.532  12.240  0.5018  0.1045 -0.2045
 2694TIP3   OH229496   3.660   1.416   1.825 -0.1819  0.4661  0.2226
 2694TIP3    H129497   3.726   1.348   1.836  1.0852  1.4191 -1.3022
 2694TIP3    H229498   3.581   1.368   1.797  0.6672 -0.3915 -0.7315
 2695TIP3   OH229499   2.504   2.699  15.668 -0.2373 -0.0913  0.4869
 2695TIP3    H129500   2.446   2.748  15.726 -0.8506  0.1267 -0.3174
 2695TIP3    H229501   2.574   2.668  15.726  0.6939  2.5592  0.8455
 2696TIP3   OH229502   0.503   3.504  12.459 -0.3827 -0.0031 -0.4045
 2696TIP3    H129503   0.457   3.450  12.394  0.5446  0.6246 -1.6106
 2696TIP3    H229504   0.550   3.441  12.514  0.3379 -0.4641 -1.5248
 2697TIP3   OH229505   1.386   4.357   4.326  0.0311  0.2699 -0.1103
 2697TIP3    H129506   1.319   4.393   4.384 -0.2203 -1.9850  1.0505
 2697TIP3    H229507   1.382   4.262   4.341  1.6734 -0.1166 -1.9810
 2698TIP3   OH229508   6.461   2.127  11.211 -0.1458  0.5117  0.0683
 2698TIP3    H129509   6.489   2.092  11.295 -0.3156  1.0352  0.3466
 2698TIP3    H229510   6.533   2.184  11.184 -0.3223  0.7532  0.1091
 2699TIP3   OH229511   3.235   5.691  13.497  0.0189 -0.1216  0.1617
 2699TIP3    H129512   3.291   5.768  13.504 -0.5153  0.1577  1.3915
 2699TIP3    H229513   3.247   5.645  13.580 -1.6690  0.0128  0.5023
 2700TIP3   OH229514   4.232   4.343   4.862 -0.4214  0.5496 -0.0456
 2700TIP3    H129515   4.319   4.345   4.823 -0.5115  1.4137 -0.2143
 2700TIP3    H229516   4.221   4.253   4.891  0.0780  0.1661 -1.0305
 2701TIP3   OH229517   1.859   6.027  13.606 -0.5377 -0.3779 -0.2171
 2701TIP3    H129518   1.895   5.999  13.522 -0.5084 -1.4308  0.1441
 2701TIP3    H229519   1.896   5.966  13.670  0.5246  1.2556  0.7522
 2702TIP3   OH229520   6.048   0.650  15.652 -0.3722 -0.5470 -0.2971
 2702TIP3    H129521   6.020   0.693  15.733 -2.0771 -0.7102 -0.7807
 2702TIP3    H229522   5.977   0.667  15.590  0.5943 -1.0162 -1.5595
 2703TIP3   OH229523   2.176   1.026   0.530  0.7716 -0.2067 -0.2706
 2703TIP3    H129524   2.091   1.063   0.556  0.7654 -0.3469 -0.0921
 2703TIP3    H229525   2.203   1.079   0.456  0.0704 -0.7836 -0.9441
 2704TIP3   OH229526   6.213   2.611   0.892  0.7555  0.3477 -0.9603
 2704TIP3    H129527   6.245   2.528   0.926  0.1873  0.4305 -0.2165
 2704TIP3    H229528   6.152   2.643   0.958 -0.2804  0.5573 -1.9905
 2705TIP3   OH229529   5.438   5.465   5.153  0.1794 -0.3369 -0.3557
 2705TIP3    H129530   5.487   5.425   5.082  2.4475  0.9662  0.4374
 2705TIP3    H229531   5.491   5.447   5.231 -1.2510  0.0175  0.7164
 2706TIP3   OH229532   4.578   6.122   3.816 -0.2106  0.2322  0.5554
 2706TIP3    H129533   4.527   6.192   3.777 -2.1822 -0.8301  1.1716
 2706TIP3    H229534   4.574   6.139   3.910 -1.0586 -0.9236  0.7405
 2707TIP3   OH229535   1.759   0.668   2.392 -0.5288 -0.2799  0.1707
 2707TIP3    H129536   1.718   0.654   2.307 -1.5818  0.0807  0.6091
 2707TIP3    H229537   1.820   0.595   2.401  0.2072  0.1386 -1.2476
 2708TIP3   OH229538   5.132   0.214  16.928  0.1968  0.0757 -0.4822
 2708TIP3    H129539   5.107   0.295  16.882  1.1344  0.1150 -0.9340
 2708TIP3    H229540   5.081   0.145  16.885 -0.8261  0.4661  0.0993
 2709TIP3   OH229541   2.050   6.682   2.574  0.2424 -0.3179 -0.2260
 2709TIP3    H129542   2.047   6.588   2.593 -2.7269  0.0393  1.4702
 2709TIP3    H229543   2.024   6.689   2.482 -0.7940 -1.1143 -0.0069
 2710TIP3   OH229544   0.132   3.010  11.497  0.0409 -0.3846  0.2929
 2710TIP3    H129545   0.214   2.996  11.449  0.4484  1.3702  0.4571
 2710TIP3    H229546   0.108   3.100  11.478 -0.5421 -0.1091  2.2390
 2711TIP3   OH229547   5.885   6.467  12.214  0.3766 -0.1075  0.5529
 2711TIP3    H129548   5.884   6.436  12.305 -2.3963 -0.6184  0.4021
 2711TIP3    H229549   5.839   6.551  12.217 -0.0362 -0.2930 -0.4266
 2712TIP3   OH229550   4.619   0.585   3.924 -0.5607 -0.2352 -0.0209
 2712TIP3    H129551   4.661   0.665   3.956  2.9698 -1.5699 -1.0579
 2712TIP3    H229552   4.580   0.545   4.002 -1.3960  1.9037  0.6889
 2713TIP3   OH229553   4.289   0.428   2.901 -0.1749  0.4199 -0.0131
 2713TIP3    H129554   4.304   0.341   2.865  1.2036  0.0625  1.3697
 2713TIP3    H229555   4.357   0.439   2.967  0.0377  2.7872 -0.5686
 2714TIP3   OH229556   0.888   4.554   1.808 -0.6394 -0.3950 -0.6820
 2714TIP3    H129557   0.793   4.563   1.803 -0.6313 -0.3347 -0.7373
 2714TIP3    H229558   0.915   4.533   1.719 -0.8965 -3.4655 -0.0719
 2715TIP3   OH229559   0.057   5.086   3.651  0.4812 -0.3723 -0.4548
 2715TIP3    H129560   0.006   5.167   3.653 -0.5758 -1.0508  0.4862
 2715TIP3    H229561   0.112   5.095   3.573  0.0397  1.0417 -0.6275
 2716TIP3   OH229562   0.280   3.005   1.581  0.0422  0.0742  0.0825
 2716TIP3    H129563   0.289   3.082   1.637  1.4827 -1.4523  2.0272
 2716TIP3    H229564   0.363   2.959   1.590 -0.3275 -1.0610 -2.0424
 2717TIP3   OH229565   2.033   2.610   6.599  0.0570  0.3220 -0.2794
 2717TIP3    H129566   2.113   2.645   6.638  0.5806 -1.3579  0.1617
 2717TIP3    H229567   2.060   2.531   6.553 -1.3794 -0.3778  0.0330
 2718TIP3   OH229568   0.084   1.778  13.685  0.0949 -0.6093 -0.2209
 2718TIP3    H129569   0.146   1.741  13.748  1.1787  1.7270  0.1453
 2718TIP3    H229570   0.118   1.752  13.599  0.5367 -0.8919  0.0383
 2719TIP3   OH229571   4.388   0.934   5.413  0.5023 -0.2639  0.7189
 2719TIP3    H129572   4.313   0.953   5.469 -0.1232  0.6548 -0.4236
 2719TIP3    H229573   4.404   1.016   5.365  1.5346 -0.7933  0.1339
 2720TIP3   OH229574   3.597   1.735   4.627  0.1833  0.5553 -0.5334
 2720TIP3    H129575   3.515   1.760   4.669  0.4341  0.9702 -0.2865
 2720TIP3    H229576   3.623   1.812   4.576  0.6304  0.5759 -0.2799
 2721TIP3   OH229577   1.348   2.919  13.669  0.0376  0.6294  0.0405
 2721TIP3    H129578   1.294   2.941  13.744 -1.2813 -0.0247 -0.6929
 2721TIP3    H229579   1.438   2.919  13.702 -0.6709 -1.5675  2.0934
 2722TIP3   OH229580   4.724   6.389   1.248  0.5617 -0.3889  0.1323
 2722TIP3    H129581   4.812   6.352   1.254  0.5462 -0.6897 -1.2599
 2722TIP3    H229582   4.668   6.316   1.223  0.7372  0.7336 -3.9473
 2723TIP3   OH229583   1.628   5.471  11.387 -0.1821  0.1705  0.3202
 2723TIP3    H129584   1.687   5.490  11.460  0.6380  0.5266 -0.4313
 2723TIP3    H229585   1.677   5.495  11.309 -0.1911 -2.4232 -0.5190
 2724TIP3   OH229586   0.318   3.372  12.036  0.5271  0.2675  0.0894
 2724TIP3    H129587   0.360   3.356  12.120 -0.1852  1.4346  0.6822
 2724TIP3    H229588   0.230   3.338  12.046  0.5920 -0.0442 -0.3621
 2725TIP3   OH229589   4.241   0.717  14.313  0.0767 -0.3400 -0.5715
 2725TIP3    H129590   4.301   0.772  14.363  0.0060  1.4852 -2.4434
 2725TIP3    H229591   4.295   0.643  14.284  0.8849  0.1789 -0.4136
 2726TIP3   OH229592   6.354   0.971  16.845  0.1307 -0.0781 -0.0883
 2726TIP3    H129593   6.300   0.892  16.852  0.9298 -0.7014 -0.7558
 2726TIP3    H229594   6.372   0.979  16.751  0.5391  0.5652  0.0456
 2727TIP3   OH229595   4.947   6.123  11.484  0.3401 -0.4272  0.2531
 2727TIP3    H129596   4.904   6.078  11.411 -1.1106  0.9605  0.2265
 2727TIP3    H229597   4.984   6.052  11.536 -1.8234 -1.6973  0.1656
 2728TIP3   OH229598   5.825   6.401   1.876 -0.1327 -0.2916 -0.1746
 2728TIP3    H129599   5.864   6.439   1.797 -1.5520  0.0246 -0.7329
 2728TIP3    H229600   5.735   6.381   1.852 -0.9654  0.9431  1.7162
 2729TIP3   OH229601   0.312   6.741   5.557  0.2324 -0.0778  0.2757
 2729TIP3    H129602   0.261   6.674   5.601 -1.4112  1.4481  0.7808
 2729TIP3    H229603   0.321   6.811   5.622 -1.1352  1.6636 -1.3678
 2730TIP3   OH229604   4.164   0.616  12.118 -0.5026  0.1471  0.1067
 2730TIP3    H129605   4.142   0.628  12.025  1.9329 -0.4411 -0.5744
 2730TIP3    H229606   4.166   0.705  12.154  0.6415  0.5412 -0.9082
 2731TIP3   OH229607   2.129   3.114   4.482  0.4739  0.1693  0.4602
 2731TIP3    H129608   2.122   3.194   4.430  2.2744  0.1357  0.1386
 2731TIP3    H229609   2.109   3.044   4.421  1.2391  0.2232  0.1422
 2732TIP3   OH229610   2.959   3.620   4.601  0.8417 -0.1977  0.2666
 2732TIP3    H129611   2.957   3.529   4.571  0.9522 -0.5297  1.2254
 2732TIP3    H229612   2.868   3.648   4.597  0.9707  0.0466 -1.1782
 2733TIP3   OH229613   1.296   5.470  12.591 -0.4125 -0.0477 -0.6384
 2733TIP3    H129614   1.299   5.426  12.676  1.3942  0.2325 -0.5252
 2733TIP3    H229615   1.382   5.512  12.583 -1.3183  1.6838 -1.6782
 2734TIP3   OH229616   5.286   3.784  11.942  0.2121  0.6041  0.6887
 2734TIP3    H129617   5.321   3.706  11.985  0.5741 -0.1839 -1.0173
 2734TIP3    H229618   5.193   3.764  11.927  0.6984 -0.1968 -1.3034
 2735TIP3   OH229619   1.954   4.126  11.701  0.3955  0.0672  0.0662
 2735TIP3    H129620   1.927   4.078  11.623  1.6806 -1.8330  0.7540
 2735TIP3    H229621   1.947   4.062  11.772 -0.5947  1.7120  1.5172
 2736TIP3   OH229622   5.420   5.922   0.970  0.1882  0.2549  0.2293
 2736TIP3    H129623   5.437   5.827   0.970 -0.7680  0.0808  0.6863
 2736TIP3    H229624   5.351   5.934   1.034  0.0186  1.2206 -0.1259
 2737TIP3   OH229625   4.847   5.651  16.186  0.1626  0.3559  0.1085
 2737TIP3    H129626   4.905   5.727  16.180  0.3637  0.1113 -1.0812
 2737TIP3    H229627   4.905   5.578  16.207  0.1468  0.2984 -0.0443
 2738TIP3   OH229628   1.571   4.282   2.858  0.2539 -0.0825 -0.0582
 2738TIP3    H129629   1.647   4.324   2.818  0.0290 -0.9577 -1.4468
 2738TIP3    H229630   1.587   4.188   2.849  0.1664 -0.3081  1.9079
 2739TIP3   OH229631   3.567   2.485  16.559 -0.0500  0.4191  0.2008
 2739TIP3    H129632   3.545   2.503  16.651  0.4136  0.4232  0.3123
 2739TIP3    H229633   3.482   2.475  16.516 -0.2725 -0.5076  0.8219
 2740TIP3   OH229634   1.147   3.621   4.661 -0.6196  0.1000 -0.4181
 2740TIP3    H129635   1.098   3.693   4.622 -2.9544 -1.0744  0.2816
 2740TIP3    H229636   1.185   3.659   4.741 -1.6889  0.5959 -0.1355
 2741TIP3   OH229637   0.695   6.432   4.827 -0.8524  0.3258 -0.1779
 2741TIP3    H129638   0.604   6.457   4.840 -1.5345 -1.2473 -1.8717
 2741TIP3    H229639   0.694   6.373   4.752  1.4956 -0.0933  0.0819
 2742TIP3   OH229640   3.584   1.114  13.629  0.0344 -0.4470  0.5960
 2742TIP3    H129641   3.530   1.180  13.673 -2.5237 -2.3176  0.3838
 2742TIP3    H229642   3.663   1.108  13.683 -1.0301  0.5856  2.3265
 2743TIP3   OH229643   5.190   1.695  14.152  0.1797 -0.3994 -0.7405
 2743TIP3    H129644   5.243   1.684  14.073 -0.9027  0.8162 -1.6589
 2743TIP3    H229645   5.149   1.781  14.142 -0.4189 -0.4777  0.8785
 2744TIP3   OH229646   4.119   6.596   0.337 -0.0663 -0.5001  0.2134
 2744TIP3    H129647   4.178   6.624   0.406 -0.3496 -0.5283  0.4677
 2744TIP3    H229648   4.070   6.523   0.375 -0.8470  0.0602  0.2876
 2745TIP3   OH229649   4.881   5.663   2.056  0.0682  0.8110 -0.2010
 2745TIP3    H129650   4.856   5.706   1.974 -0.7087  0.7797  0.0139
 2745TIP3    H229651   4.798   5.653   2.104  0.2795 -0.6662 -0.1229
 2746TIP3   OH229652   6.146   0.682  10.526 -0.0072 -0.7061 -0.7456
 2746TIP3    H129653   6.133   0.717  10.438  0.2418  1.3894  0.0305
 2746TIP3    H229654   6.241   0.672  10.534  0.2158  2.0242  0.3582
 2747TIP3   OH229655   1.548   6.545   2.776  0.2691  0.0953 -0.5202
 2747TIP3    H129656   1.631   6.518   2.737 -0.3092 -0.8779 -1.0895
 2747TIP3    H229657   1.485   6.541   2.705  0.0671  2.5554 -0.5088
 2748TIP3   OH229658   1.298   5.583  12.963 -0.4285  0.3399  0.2378
 2748TIP3    H129659   1.208   5.587  12.931 -0.4854 -2.9591 -0.1828
 2748TIP3    H229660   1.289   5.564  13.057 -0.2113 -0.2303  0.1502
 2749TIP3   OH229661   5.259   3.513   5.566  0.3322  0.3744  0.1290
 2749TIP3    H129662   5.173   3.516   5.607 -0.4391 -0.8770 -1.3622
 2749TIP3    H229663   5.252   3.569   5.489  0.6741 -0.1791 -0.3095
 2750TIP3   OH229664   0.277   3.881  14.573 -0.2261  0.0923 -0.1524
 2750TIP3    H129665   0.323   3.818  14.517  0.0671 -0.7408  1.0174
 2750TIP3    H229666   0.260   3.956  14.516 -0.1097 -0.8314 -1.4138
 2751TIP3   OH229667   3.907   3.967  14.460  0.0663 -0.3649 -0.0740
 2751TIP3    H129668   3.911   4.029  14.387 -0.1371  0.8822  0.9513
 2751TIP3    H229669   3.832   3.996  14.512  0.8706 -0.5746  1.2127
 2752TIP3   OH229670   2.683   0.843  16.281 -0.2424 -0.4920 -0.1654
 2752TIP3    H129671   2.680   0.886  16.195  0.4107  0.4753  0.2819
 2752TIP3    H229672   2.776   0.843  16.304 -0.0084 -3.6440 -0.8871
 2753TIP3   OH229673   3.341   4.826  14.945  0.3767 -0.1705  0.1339
 2753TIP3    H129674   3.280   4.753  14.962  0.7924 -0.5689 -0.0904
 2753TIP3    H229675   3.342   4.834  14.850  1.0790 -0.5009  0.1155
 2754TIP3   OH229676   2.737   6.131  16.325  0.5372 -0.1673 -0.0314
 2754TIP3    H129677   2.682   6.207  16.304  0.3004 -0.0612  0.9730
 2754TIP3    H229678   2.696   6.092  16.402  2.2213  0.2862  1.1250
 2755TIP3   OH229679   2.728   5.589  14.410 -0.1668 -0.0466  0.0554
 2755TIP3    H129680   2.642   5.554  14.390  0.2240 -0.4397 -0.9927
 2755TIP3    H229681   2.712   5.676  14.445 -0.9977 -0.2078  0.0730
 2756TIP3   OH229682   3.770   0.150  16.623  0.1588  0.7047  0.2561
 2756TIP3    H129683   3.813   0.136  16.707  0.4016 -1.4909 -0.2038
 2756TIP3    H229684   3.838   0.132  16.558 -0.8445 -0.5884 -0.4520
 2757TIP3   OH229685   1.462   4.687   4.895 -0.0733  0.6893 -0.1622
 2757TIP3    H129686   1.404   4.738   4.951 -0.2727  0.3508 -0.0605
 2757TIP3    H229687   1.514   4.635   4.956 -1.6317 -1.1214 -0.3632
 2758TIP3   OH229688   1.640   0.635   2.118  0.0995  0.1683 -0.3351
 2758TIP3    H129689   1.662   0.629   2.025  1.1576 -0.1597 -0.0706
 2758TIP3    H229690   1.545   0.622   2.121  0.4136 -2.5899 -1.1190
 2759TIP3   OH229691   1.242   1.537  15.767  0.9513 -0.7024  0.3850
 2759TIP3    H129692   1.176   1.467  15.767 -1.4127  1.4206 -1.1549
 2759TIP3    H229693   1.305   1.511  15.700 -0.3062 -1.0313 -0.6999
 2760TIP3   OH229694   0.539   1.262  16.915  0.4078  0.0015 -0.2837
 2760TIP3    H129695   0.521   1.356  16.928  0.4545  0.3233 -2.3399
 2760TIP3    H229696   0.620   1.261  16.864 -1.2541 -1.0647 -2.9658
 2761TIP3   OH229697   5.350   4.993  15.644 -0.0371 -0.1167 -0.1235
 2761TIP3    H129698   5.308   5.008  15.559 -3.0367  1.9613  1.6501
 2761TIP3    H229699   5.444   4.988  15.623 -0.6943  0.4669 -3.5465
 2762TIP3   OH229700   6.741   0.108   5.958 -0.5907 -0.1886 -0.3330
 2762TIP3    H129701   6.656   0.145   5.982 -0.2151  0.6098 -0.2312
 2762TIP3    H229702   6.721   0.049   5.885 -1.5970 -1.8841  1.2464
 2763TIP3   OH229703   6.455   6.517   4.151 -0.4194 -0.3142 -0.5772
 2763TIP3    H129704   6.378   6.473   4.187 -0.2523 -1.2137 -1.2906
 2763TIP3    H229705   6.522   6.448   4.146  0.6656  0.6124  0.6972
 2764TIP3   OH229706   6.168   6.591  15.090 -0.3910  0.1817 -0.1933
 2764TIP3    H129707   6.226   6.668  15.096 -0.2936  0.1068 -0.1748
 2764TIP3    H229708   6.144   6.586  14.998 -0.1466  0.0472 -0.2466
 2765TIP3   OH229709   0.539   3.460  13.633 -0.1828 -0.5163 -0.1852
 2765TIP3    H129710   0.617   3.436  13.682 -0.3124  1.2530  0.9652
 2765TIP3    H229711   0.540   3.556  13.633 -0.9033 -0.4859 -2.5305
 2766TIP3   OH229712   1.056   4.663  16.991  0.4413 -0.2102 -0.3282
 2766TIP3    H129713   1.120   4.636  17.056 -0.7257 -0.1179  0.8969
 2766TIP3    H229714   1.102   4.657  16.907  1.0472 -3.3024  0.1650
 2767TIP3   OH229715   5.441   5.378  12.049 -0.2964  0.2859  0.3249
 2767TIP3    H129716   5.430   5.472  12.063 -0.4400  0.7356 -2.6155
 2767TIP3    H229717   5.535   5.367  12.035 -0.6654  0.4916 -2.5573
 2768TIP3   OH229718   4.569   0.384  16.129  0.5433  0.8640  0.3792
 2768TIP3    H129719   4.635   0.361  16.195 -0.0025  1.0848  1.0040
 2768TIP3    H229720   4.537   0.300  16.097 -0.2716  0.7525  1.4782
 2769TIP3   OH229721   5.832   5.553   0.022  0.5902 -0.2628 -0.0423
 2769TIP3    H129722   5.826   5.643  -0.011  0.0909 -0.7268 -1.2642
 2769TIP3    H229723   5.742   5.520   0.019  1.0668 -1.5095 -1.7115
 2770TIP3   OH229724   4.123   0.415   5.305  0.5696 -0.0938 -0.2331
 2770TIP3    H129725   4.033   0.445   5.313  1.0626  1.0897  1.0821
 2770TIP3    H229726   4.176   0.493   5.317  1.8011 -0.8678 -0.4617
 2771TIP3   OH229727   1.482   1.454   0.967  0.0302 -0.2543  0.0404
 2771TIP3    H129728   1.556   1.393   0.960 -0.3096 -0.8307  1.3814
 2771TIP3    H229729   1.483   1.482   1.058 -0.5037  0.8883 -0.3030
 2772TIP3   OH229730   6.319   2.834   0.764 -0.3301 -0.1409 -0.0568
 2772TIP3    H129731   6.269   2.765   0.807 -1.6745  0.3557 -0.8074
 2772TIP3    H229732   6.392   2.787   0.722 -0.0162 -0.8355  1.2447
 2773TIP3   OH229733   4.776   2.433  14.801 -0.2280 -0.4451 -0.0524
 2773TIP3    H129734   4.701   2.421  14.744  0.3785  0.1653 -0.9919
 2773TIP3    H229735   4.752   2.506  14.858 -0.1165  0.1235 -0.7370
 2774TIP3   OH229736   1.917   6.307   5.407  0.3913  0.1920  0.0376
 2774TIP3    H129737   1.984   6.269   5.462  0.6458 -2.1589 -1.7961
 2774TIP3    H229738   1.859   6.354   5.467  2.0481 -0.1725  1.9457
 2775TIP3   OH229739   6.009   4.938   3.715  0.0106  0.2509 -0.1041
 2775TIP3    H129740   6.102   4.929   3.696  0.3207  1.7028  0.6895
 2775TIP3    H229741   5.993   4.876   3.786  0.7074  1.0893  0.8002
 2776TIP3   OH229742   3.445   5.112  14.128 -0.4584 -0.1420  0.0439
 2776TIP3    H129743   3.411   5.092  14.215 -1.8862  0.0345 -0.4606
 2776TIP3    H229744   3.369   5.143  14.079  0.4944  0.5422 -1.0257
 2777TIP3   OH229745   2.203   1.920  13.165 -0.5518 -0.7632  0.3308
 2777TIP3    H129746   2.155   1.950  13.242  0.0210  0.3644  0.2491
 2777TIP3    H229747   2.145   1.855  13.125 -1.6031 -0.0938  0.7495
 2778TIP3   OH229748   3.091   6.107   4.551  0.4953 -0.1810 -0.4607
 2778TIP3    H129749   3.126   6.092   4.638  1.9877  0.1156 -0.9885
 2778TIP3    H229750   3.128   6.191   4.524  0.1441 -0.3259 -1.4262
 2779TIP3   OH229751   3.256   2.139  16.175  0.5343  0.1201 -0.2423
 2779TIP3    H129752   3.337   2.092  16.155  0.1253 -0.2905 -0.9481
 2779TIP3    H229753   3.235   2.113  16.264  0.9905 -0.0555 -0.1867
 2780TIP3   OH229754   5.318   1.364  16.154  0.3892 -0.3370  0.6618
 2780TIP3    H129755   5.320   1.334  16.063  0.8705  1.1285  0.1843
 2780TIP3    H229756   5.400   1.331  16.192  0.3890 -0.5767  0.4582
 2781TIP3   OH229757   4.369   0.744  10.798  0.1761 -0.0687  0.0084
 2781TIP3    H129758   4.319   0.739  10.879 -0.5944  0.8482 -0.3960
 2781TIP3    H229759   4.415   0.661  10.793 -0.4973 -0.5063  0.9188
 2782TIP3   OH229760   5.525   4.013   3.204  0.2165 -0.6312  0.1393
 2782TIP3    H129761   5.521   4.108   3.215 -1.4924 -0.7155  0.4058
 2782TIP3    H229762   5.470   3.978   3.274  0.6656 -1.8033 -0.0834
 2783TIP3   OH229763   5.577   4.003  13.827 -0.2665 -0.2477  0.0915
 2783TIP3    H129764   5.644   4.018  13.761  0.0394 -1.2855  0.1653
 2783TIP3    H229765   5.609   4.052  13.904  0.2972 -0.5492  0.0547
 2784TIP3   OH229766   1.785   1.339  12.549 -0.1382  0.5125  0.6956
 2784TIP3    H129767   1.725   1.284  12.499 -0.0731  2.1174 -1.1829
 2784TIP3    H229768   1.859   1.281  12.569 -0.2577 -0.2041 -0.8662
 2785TIP3   OH229769   4.983   4.391  13.047 -0.1004  0.7072 -0.0029
 2785TIP3    H129770   5.076   4.376  13.029  0.0643 -0.4389  1.6564
 2785TIP3    H229771   4.981   4.419  13.139 -1.4317  0.2767  0.1082
 2786TIP3   OH229772   3.534   1.312   5.972  0.3542  0.7332  0.1108
 2786TIP3    H129773   3.560   1.281   6.059  0.6409  1.4896  0.3050
 2786TIP3    H229774   3.448   1.352   5.986  0.9384  1.9589  0.3052
 2787TIP3   OH229775   0.096   6.549  12.706  0.3374  0.6835 -0.5838
 2787TIP3    H129776   0.124   6.491  12.777  0.9777  0.3637 -1.1017
 2787TIP3    H229777   0.027   6.500  12.661 -0.2804  1.0065 -0.0144
 2788TIP3   OH229778   0.150   4.111  14.485  0.1782  0.2987 -0.3610
 2788TIP3    H129779   0.192   4.169  14.548 -1.4506  1.2722 -0.1449
 2788TIP3    H229780   0.101   4.169  14.428 -0.8215 -0.8073 -0.6443
 2789TIP3   OH229781   1.808   5.474  15.508 -0.1229 -0.0613  0.3151
 2789TIP3    H129782   1.890   5.510  15.541  0.2094 -0.1741 -0.3674
 2789TIP3    H229783   1.826   5.455  15.416 -0.2204 -2.1131  0.6824
 2790TIP3   OH229784   3.400   5.660  14.759 -0.2911 -0.2011  0.7624
 2790TIP3    H129785   3.467   5.653  14.827  0.8540  0.4780 -0.2761
 2790TIP3    H229786   3.318   5.643  14.805  0.6307 -1.6356  1.9433
 2791TIP3   OH229787   3.094   0.909   0.088  0.1222  0.2452  0.5570
 2791TIP3    H129788   3.135   0.973   0.030  1.4378 -1.1383 -0.0726
 2791TIP3    H229789   3.105   0.825   0.042 -0.5835 -0.5820  1.8871
 2792TIP3   OH229790   0.140   6.559  11.705  0.1815  0.6274  0.0216
 2792TIP3    H129791   0.091   6.487  11.665 -1.3017  2.7188 -2.0846
 2792TIP3    H229792   0.090   6.581  11.783  0.4199 -0.3486  0.4570
 2793TIP3   OH229793   3.397   4.139  16.190 -0.3302 -0.0147  0.2617
 2793TIP3    H129794   3.438   4.069  16.240  0.1712  1.0219  1.3146
 2793TIP3    H229795   3.303   4.130  16.210 -0.0940  0.6116  1.6557
 2794TIP3   OH229796   3.151   1.020  14.617  0.0666 -0.2296  0.0382
 2794TIP3    H129797   3.113   1.108  14.613  1.6054  0.3692 -2.5741
 2794TIP3    H229798   3.208   1.022  14.693  1.5356  1.6812 -1.0636
 2795TIP3   OH229799   2.440   6.755   2.985 -0.4421 -0.0473  0.2300
 2795TIP3    H129800   2.415   6.709   2.905  1.2323 -0.9385  0.1888
 2795TIP3    H229801   2.390   6.712   3.055  1.1569 -2.0104  0.2013
 2796TIP3   OH229802   0.912   5.491   3.887 -0.0338 -0.1137 -0.0546
 2796TIP3    H129803   0.896   5.582   3.864  0.4175 -0.2962 -1.1467
 2796TIP3    H229804   0.832   5.463   3.932 -0.0939  0.8667  0.4565
 2797TIP3   OH229805   2.684   2.896  15.045  0.0499  0.5285  0.2442
 2797TIP3    H129806   2.653   2.958  15.111  0.9793  1.1522  0.1024
 2797TIP3    H229807   2.607   2.879  14.990  0.0082  2.2659 -0.2669
 2798TIP3   OH229808   2.503   0.975   0.211  0.0621 -0.2055  0.0869
 2798TIP3    H129809   2.475   1.066   0.197  2.3811  0.3916 -0.9617
 2798TIP3    H229810   2.571   0.961   0.145 -0.8550 -3.0090 -0.3209
 2799TIP3   OH229811   5.028   1.814   5.590  0.5659  0.3460 -0.9933
 2799TIP3    H129812   5.108   1.866   5.586 -0.2229  1.5875 -0.8318
 2799TIP3    H229813   4.963   1.872   5.630 -0.4780 -0.5608 -1.3374
 2800TIP3   OH229814   3.091   2.349   0.702  0.3499  0.5272  0.7033
 2800TIP3    H129815   3.064   2.367   0.612  1.3098  0.5728  0.4089
 2800TIP3    H229816   3.067   2.258   0.717 -0.0795  0.6062  0.5018
 2801TIP3   OH229817   5.881   3.961   2.144  0.1628  0.0477 -0.3581
 2801TIP3    H129818   5.864   3.875   2.182 -1.9320  0.8226  0.5605
 2801TIP3    H229819   5.820   3.966   2.070  0.2051  0.7666 -0.3424
 2802TIP3   OH229820   0.780   0.897  12.975  0.1039 -0.0334  0.2389
 2802TIP3    H129821   0.764   0.836  13.048  2.6740 -1.0370 -0.0181
 2802TIP3    H229822   0.849   0.955  13.007  0.8993 -0.1614 -1.2010
 2803TIP3   OH229823   0.968   4.098   3.637  0.3501 -1.0099 -0.0795
 2803TIP3    H129824   0.897   4.099   3.574  0.5685 -1.6709 -0.3326
 2803TIP3    H229825   1.008   4.012   3.629  1.8307 -0.2967 -0.6628
 2804TIP3   OH229826   5.707   3.621  13.381 -0.3407 -0.1968  0.0249
 2804TIP3    H129827   5.718   3.673  13.461  0.1008 -0.7386  0.3191
 2804TIP3    H229828   5.784   3.565  13.378 -1.5756 -1.9732  0.5720
 2805TIP3   OH229829   0.319   4.548  14.469 -0.3111 -0.2017 -0.0073
 2805TIP3    H129830   0.299   4.622  14.526 -0.6787 -0.1145 -0.2504
 2805TIP3    H229831   0.234   4.520  14.435 -0.2850 -1.2926  0.7759
 2806TIP3   OH229832   2.985   0.278   6.714 -0.7485  0.8674 -0.0105
 2806TIP3    H129833   2.979   0.202   6.773  0.3981  0.7844  0.0152
 2806TIP3    H229834   2.955   0.245   6.629 -1.5484  0.7501  0.3090
 2807TIP3   OH229835   5.096   1.548  13.201 -0.1881  0.6711 -0.6311
 2807TIP3    H129836   5.157   1.621  13.196 -0.8309  1.2913  0.4395
 2807TIP3    H229837   5.010   1.588  13.194 -0.5602  0.0666  0.4002
 2808TIP3   OH229838   2.280   0.302  13.773  0.6329 -0.1312 -0.4563
 2808TIP3    H129839   2.249   0.240  13.839 -0.4762  0.2663 -0.6005
 2808TIP3    H229840   2.373   0.313  13.792  0.9367 -2.1890 -0.7171
 2809TIP3   OH229841   4.283   4.097   2.955 -0.5344  0.0031 -0.0902
 2809TIP3    H129842   4.257   4.059   2.871 -3.1320  2.6687 -0.5580
 2809TIP3    H229843   4.259   4.031   3.020 -1.6508 -0.6482 -1.1630
 2810TIP3   OH229844   4.527   4.406   4.330  0.4590  0.1204  0.0308
 2810TIP3    H129845   4.611   4.387   4.370  1.2139 -0.2950 -1.7005
 2810TIP3    H229846   4.477   4.452   4.398  2.3685  1.0738  0.8162
 2811TIP3   OH229847   3.168   0.096   3.300  1.0579  0.5896 -0.2628
 2811TIP3    H129848   3.207   0.152   3.367 -1.4239  1.1553  0.7606
 2811TIP3    H229849   3.142   0.156   3.231  0.1957  0.4828 -0.0396
 2812TIP3   OH229850   3.777   2.013   3.019 -0.5472 -0.1510 -0.1431
 2812TIP3    H129851   3.817   1.929   3.000 -0.1685 -0.6788  2.7640
 2812TIP3    H229852   3.687   1.992   3.046 -0.5119  0.3626  0.4024
 2813TIP3   OH229853   3.139   2.042  13.584 -0.0871 -0.0336  0.2453
 2813TIP3    H129854   3.131   2.133  13.557  0.5059  0.1273  0.5764
 2813TIP3    H229855   3.164   1.995  13.505  0.4850  0.2406  0.2607
 2814TIP3   OH229856   5.567   3.782   0.478  0.2214  0.4132  0.4762
 2814TIP3    H129857   5.573   3.719   0.550 -1.3839 -1.2134 -0.7528
 2814TIP3    H229858   5.610   3.738   0.404 -1.7244  0.3299 -0.6460
 2815TIP3   OH229859   1.334   2.942   5.702 -0.2408 -0.3216 -0.4559
 2815TIP3    H129860   1.301   2.994   5.628 -1.2182 -0.4464 -0.1240
 2815TIP3    H229861   1.377   2.867   5.662  0.8616  0.5647 -0.9360
 2816TIP3   OH229862   1.574   1.154   4.705  0.1305  0.0082  0.5760
 2816TIP3    H129863   1.509   1.152   4.635 -0.1359 -0.6114  0.8364
 2816TIP3    H229864   1.524   1.171   4.785  0.4037  0.4800  0.6508
 2817TIP3   OH229865   4.499   0.123  16.009 -0.5739 -0.1656 -0.2490
 2817TIP3    H129866   4.539   0.072  15.939 -0.9136 -0.3223 -0.3288
 2817TIP3    H229867   4.503   0.066  16.086 -2.1891 -0.8509 -0.6578
 2818TIP3   OH229868   2.284   5.775   0.486  0.4133  0.7692 -0.0459
 2818TIP3    H129869   2.328   5.857   0.507  0.4064  0.7924 -0.1219
 2818TIP3    H229870   2.195   5.802   0.462 -0.2154  0.5650  1.9159
 2819TIP3   OH229871   1.054   2.981   3.549 -0.2925 -0.0031 -0.0954
 2819TIP3    H129872   1.113   2.941   3.486 -1.3536 -1.6679 -0.0695
 2819TIP3    H229873   0.984   3.019   3.495  0.1535  0.8997 -0.0550
 2820TIP3   OH229874   5.691   2.366   1.780  0.5018  0.1370  0.7220
 2820TIP3    H129875   5.702   2.354   1.685 -2.0310  0.7770  0.3063
 2820TIP3    H229876   5.650   2.285   1.809  0.0946  0.4611  1.0462
 2821TIP3   OH229877   6.296   6.093   3.912  0.1649 -0.1348  0.2015
 2821TIP3    H129878   6.261   6.041   3.840 -0.8397  0.6066  0.1458
 2821TIP3    H229879   6.382   6.053   3.931  0.7528  0.0985 -1.8593
 2822TIP3   OH229880   3.705   2.341  14.007 -0.0570  0.2648 -0.6829
 2822TIP3    H129881   3.724   2.306  14.094  0.7521  1.7746 -0.2453
 2822TIP3    H229882   3.625   2.294  13.980  0.5989 -1.3926  0.1699
 2823TIP3   OH229883   4.011   5.179  16.238 -0.3752  0.2855 -0.2640
 2823TIP3    H129884   3.960   5.135  16.171 -1.8937 -1.2796  1.8359
 2823TIP3    H229885   4.078   5.115  16.263  0.0494  0.7735 -0.1385
 2824TIP3   OH229886   6.523   4.557  14.780  0.0144  0.2105  0.2740
 2824TIP3    H129887   6.506   4.463  14.785 -2.0234  0.5370 -0.0720
 2824TIP3    H229888   6.607   4.565  14.735  0.1265 -1.4362  0.1872
 2825TIP3   OH229889   5.666   3.382  12.965  0.2073 -0.1360  0.2359
 2825TIP3    H129890   5.579   3.351  12.941  0.0243 -0.0859  0.8264
 2825TIP3    H229891   5.667   3.380  13.061  0.1244  1.8052  0.3083
 2826TIP3   OH229892   6.379   0.867  12.359  0.1698 -0.0187 -0.2021
 2826TIP3    H129893   6.429   0.941  12.392 -0.1088  0.2838 -0.4585
 2826TIP3    H229894   6.382   0.802  12.429 -0.3747  0.5997  0.3957
 2827TIP3   OH229895   0.189   0.138  15.532  0.0264  0.7699 -0.1135
 2827TIP3    H129896   0.278   0.152  15.566  0.4819 -1.0605 -0.4784
 2827TIP3    H229897   0.149   0.078  15.595 -0.5196  0.5848 -0.6400
 2828TIP3   OH229898   3.948   6.624   1.116  0.1317 -0.1447  0.0097
 2828TIP3    H129899   4.022   6.563   1.108  0.5809  0.3271  0.5358
 2828TIP3    H229900   3.931   6.628   1.210  0.7568  1.3078  0.0669
 2829TIP3   OH229901   3.572   2.491  17.141 -0.4156 -0.0299 -0.7650
 2829TIP3    H129902   3.610   2.458  17.223 -1.2442  0.4430 -0.1814
 2829TIP3    H229903   3.644   2.489  17.078  0.5395  0.7026  0.2929
 2830TIP3   OH229904   0.728   3.132   6.331  0.7844  0.7404 -0.2165
 2830TIP3    H129905   0.761   3.219   6.354 -0.3326  0.6169  2.0344
 2830TIP3    H229906   0.791   3.072   6.370 -0.5387  0.5368  1.6980
 2831TIP3   OH229907   3.783   1.227   3.617 -0.0512  0.1697  0.0019
 2831TIP3    H129908   3.740   1.307   3.645 -1.7012 -0.5337 -0.4810
 2831TIP3    H229909   3.825   1.250   3.534 -0.1165  0.6541  0.1052
 2832TIP3   OH229910   3.654   4.589  11.229  0.0588 -0.5506  0.5706
 2832TIP3    H129911   3.695   4.663  11.274 -2.3737  0.5077  1.1373
 2832TIP3    H229912   3.685   4.595  11.139  0.0390  1.0851  0.6534
 2833TIP3   OH229913   4.893   1.980   5.307 -0.1732  0.4890  0.0224
 2833TIP3    H129914   4.814   2.016   5.266 -0.4260  0.8714  0.8304
 2833TIP3    H229915   4.931   1.924   5.240  0.3932  2.4968 -1.3973
 2834TIP3   OH229916   1.340   1.514   2.663 -0.0722 -0.5307 -0.1821
 2834TIP3    H129917   1.321   1.499   2.571 -0.7876  0.5154 -0.2078
 2834TIP3    H229918   1.255   1.533   2.703  0.3477 -0.0721  0.5175
 2835TIP3   OH229919   3.304   2.988  14.253  0.7404  0.3146 -0.2463
 2835TIP3    H129920   3.340   3.076  14.262  1.4256  0.1489 -1.3412
 2835TIP3    H229921   3.377   2.934  14.225 -0.0295 -0.2994 -1.1186
 2836TIP3   OH229922   2.606   2.203   5.153 -0.2206  0.8516  0.2276
 2836TIP3    H129923   2.586   2.160   5.237 -2.9246  0.9622 -0.2934
 2836TIP3    H229924   2.553   2.283   5.154 -1.8384 -0.1046 -2.3567
 2837TIP3   OH229925   0.809   5.695  16.037  0.1450  0.5485 -0.0361
 2837TIP3    H129926   0.737   5.746  16.077  1.1747  1.2629  0.9319
 2837TIP3    H229927   0.809   5.613  16.085 -0.5597  0.2161 -0.6000
 2838TIP3   OH229928   2.675   2.378  12.612  0.3786 -0.1619  0.3518
 2838TIP3    H129929   2.583   2.361  12.632  0.3344  0.4286  0.6829
 2838TIP3    H229930   2.686   2.471  12.631  0.5801  0.2143 -1.4565
 2839TIP3   OH229931   6.749   2.714   2.741  0.2021 -0.1892  0.1403
 2839TIP3    H129932   6.750   2.620   2.762 -0.5060  0.4832  3.4288
 2839TIP3    H229933   6.679   2.723   2.676  0.2905 -1.9386 -0.2241
 2840TIP3   OH229934   4.459   1.780  14.892 -0.2116  0.2259  0.5287
 2840TIP3    H129935   4.407   1.825  14.825  0.3825 -0.6441 -0.5228
 2840TIP3    H229936   4.439   1.828  14.973 -1.6096  0.7386 -0.0949
 2841TIP3   OH229937   4.438   2.827   5.261 -0.2467 -0.0022  0.3678
 2841TIP3    H129938   4.396   2.903   5.220 -1.5486 -0.1958  1.3215
 2841TIP3    H229939   4.402   2.824   5.349 -1.4001 -2.5990 -0.1303
 2842TIP3   OH229940   1.981   2.358  15.839  0.3777 -0.0021 -0.0864
 2842TIP3    H129941   2.062   2.334  15.793  0.7340  0.1673  0.4567
 2842TIP3    H229942   1.964   2.448  15.811  0.4059 -0.0197 -0.1609
 2843TIP3   OH229943   1.575   0.772  12.123 -0.1779 -0.4952 -0.0478
 2843TIP3    H129944   1.551   0.680  12.119 -0.3201 -0.4010 -1.4546
 2843TIP3    H229945   1.650   0.780  12.064 -1.0363  0.5469 -1.0263
 2844TIP3   OH229946   4.982   3.825   5.535  0.7264 -0.4690 -0.1157
 2844TIP3    H129947   4.988   3.920   5.530  2.5597 -0.5258  0.4479
 2844TIP3    H229948   4.974   3.806   5.629  2.3631 -0.9297 -0.0435
 2845TIP3   OH229949   6.484   3.952  16.955  0.5940  0.0506 -0.0166
 2845TIP3    H129950   6.538   3.924  16.881  1.1206 -0.1187  0.4355
 2845TIP3    H229951   6.540   3.944  17.031 -0.1832 -0.4994  0.5129
 2846TIP3   OH229952   6.706   3.205  16.793 -0.7873  0.7912 -0.4500
 2846TIP3    H129953   6.687   3.276  16.732  0.7168  0.8500 -0.8551
 2846TIP3    H229954   6.800   3.210  16.808 -0.8605 -0.3557  0.4610
 2847TIP3   OH229955   3.557   4.077  14.688  0.2981  0.5398 -0.3372
 2847TIP3    H129956   3.537   4.082  14.781  1.9920  3.3611 -0.0527
 2847TIP3    H229957   3.628   4.013  14.682  0.1234  0.2859  0.3082
 2848TIP3   OH229958   5.109   1.427  12.153 -0.1114 -0.3113 -0.3150
 2848TIP3    H129959   5.076   1.421  12.064  2.2364  0.7721 -1.3329
 2848TIP3    H229960   5.108   1.521  12.173  0.1004 -0.4694  0.4930
 2849TIP3   OH229961   1.247   6.365   2.970 -0.4944 -0.4895 -0.0559
 2849TIP3    H129962   1.188   6.362   2.895 -1.1000  1.0331  0.3437
 2849TIP3    H229963   1.198   6.411   3.038  1.6429  2.0852 -0.1853
 2850TIP3   OH229964   3.856   3.329  13.509 -0.3327 -0.3234 -0.4177
 2850TIP3    H129965   3.766   3.310  13.537 -0.3804 -0.5067 -0.7003
 2850TIP3    H229966   3.877   3.411  13.553 -0.3099 -0.7583  0.3866
 2851TIP3   OH229967   6.196   5.455  14.442  0.6899 -0.3021  0.7778
 2851TIP3    H129968   6.274   5.399  14.445  0.4052 -0.8420 -0.8591
 2851TIP3    H229969   6.124   5.394  14.424  0.1345  0.3941  0.6305
 2852TIP3   OH229970   1.091   2.153   0.125  0.1543 -0.0564 -0.1034
 2852TIP3    H129971   1.133   2.212   0.188  2.5804 -0.5852 -1.1420
 2852TIP3    H229972   1.071   2.074   0.176  0.2530  0.2938  0.4757
 2853TIP3   OH229973   6.217   1.566  16.991 -0.3577  0.0901 -0.0258
 2853TIP3    H129974   6.154   1.602  17.054  1.1448  0.8221  1.0926
 2853TIP3    H229975   6.299   1.560  17.040  0.9197  0.9308 -2.0022
 2854TIP3   OH229976   4.824   6.183   0.884  0.6136 -0.0999  0.2377
 2854TIP3    H129977   4.757   6.183   0.952  1.5297  2.8286  1.2131
 2854TIP3    H229978   4.813   6.268   0.840  0.3158 -1.7308 -3.0415
 2855TIP3   OH229979   3.315   3.068   2.924  0.3573  0.3253  0.4206
 2855TIP3    H129980   3.333   3.005   2.855  3.0705  0.4808  0.9099
 2855TIP3    H229981   3.241   3.031   2.972 -0.8007 -0.3628 -1.8127
 2856TIP3   OH229982   3.498   5.198   5.697  0.0072 -0.0859  0.1624
 2856TIP3    H129983   3.452   5.278   5.671  1.5658  0.4024 -1.2079
 2856TIP3    H229984   3.583   5.204   5.653  0.4540 -2.1137  0.6924
 2857TIP3   OH229985   1.526   6.366   0.305  0.0257  0.1349 -0.7578
 2857TIP3    H129986   1.578   6.286   0.312  0.1579  0.4002  1.8343
 2857TIP3    H229987   1.591   6.436   0.294  0.0185  0.0713 -1.1900
 2858TIP3   OH229988   0.802   5.579  11.510  0.0981  1.0517  0.2195
 2858TIP3    H129989   0.887   5.614  11.538  0.0484 -0.1375  1.9679
 2858TIP3    H229990   0.758   5.555  11.592 -2.5014  2.8937 -0.5632
 2859TIP3   OH229991   0.982   1.217  10.680 -0.2604  0.0532 -0.2591
 2859TIP3    H129992   0.929   1.282  10.634 -0.6228  0.1454  0.2868
 2859TIP3    H229993   1.062   1.264  10.702  0.1736 -0.1645 -1.3282
 2860TIP3   OH229994   1.562   3.884  12.455 -0.3130  0.0917  0.0746
 2860TIP3    H129995   1.573   3.808  12.512 -1.6936 -0.4930 -0.4082
 2860TIP3    H229996   1.491   3.934  12.495 -1.2125 -0.2586 -1.0423
 2861TIP3   OH229997   0.921   1.485   6.315 -0.1560 -0.1265 -0.2166
 2861TIP3    H129998   1.001   1.438   6.337 -0.6521 -0.2609  1.3377
 2861TIP3    H229999   0.916   1.555   6.380 -1.1381  0.0765 -0.5075
 2862TIP3   OH230000   2.825   2.798   2.983 -0.3407 -0.1651 -0.4152
 2862TIP3    H130001   2.776   2.875   3.012  0.7657  1.3834 -2.5541
 2862TIP3    H230002   2.761   2.744   2.937 -0.8512  0.0144  0.0739
 2863TIP3   OH230003   2.557   2.250   2.290  0.2519 -0.1123  0.1316
 2863TIP3    H130004   2.566   2.200   2.371  1.5824 -0.7152 -0.3710
 2863TIP3    H230005   2.624   2.318   2.296 -1.1228  1.2493  0.5247
 2864TIP3   OH230006   0.998   5.805  15.494  0.2241  0.0071  0.2341
 2864TIP3    H130007   1.070   5.847  15.447 -1.0457 -0.3668 -2.1373
 2864TIP3    H230008   0.946   5.763  15.426 -1.0778 -1.5280  2.1162
 2865TIP3   OH230009   0.207   4.066   3.832 -0.5430  0.0368 -0.2179
 2865TIP3    H130010   0.125   4.030   3.865 -0.0785  0.0025  0.9462
 2865TIP3    H230011   0.220   4.146   3.883 -0.4532  0.6768 -1.2343
 2866TIP3   OH230012   4.338   1.736  10.288 -0.6812  0.0964 -0.1797
 2866TIP3    H130013   4.313   1.646  10.267  0.7452 -0.1453 -0.9512
 2866TIP3    H230014   4.433   1.737  10.276 -0.5053  1.3416  1.2149
 2867TIP3   OH230015   3.197   4.931  11.321  0.6960  0.4615 -0.6613
 2867TIP3    H130016   3.259   4.999  11.348 -0.0116  1.5413 -1.6579
 2867TIP3    H230017   3.211   4.923  11.226 -1.1034  1.1893 -1.0136
 2868TIP3   OH230018   1.599   2.967  13.825 -0.2859 -0.1294 -0.0949
 2868TIP3    H130019   1.579   2.959  13.918 -0.7190  1.2396 -0.0549
 2868TIP3    H230020   1.590   3.061  13.807  0.5817 -0.2799 -1.3368
 2869TIP3   OH230021   3.232   4.025  12.463  0.6954  0.0537 -0.8094
 2869TIP3    H130022   3.198   4.105  12.424  1.8176  1.1858  0.5103
 2869TIP3    H230023   3.320   4.015  12.425  1.6425  0.9511  1.1120
 2870TIP3   OH230024   1.540   0.786   5.280  0.5474 -0.2042 -0.3049
 2870TIP3    H130025   1.513   0.805   5.370  0.7350 -0.5554 -0.1689
 2870TIP3    H230026   1.459   0.766   5.234  0.6868 -2.8283  0.4898
 2871TIP3   OH230027   5.294   2.732  11.976 -0.7685 -0.2678 -0.1743
 2871TIP3    H130028   5.212   2.738  12.024 -0.7663 -2.0126  0.0589
 2871TIP3    H230029   5.269   2.696  11.891 -0.5353  1.2284 -0.8927
 2872TIP3   OH230030   1.065   4.571   5.283  0.1611  0.1136  0.0133
 2872TIP3    H130031   1.099   4.657   5.307  0.6642  0.4832 -1.9355
 2872TIP3    H230032   1.142   4.514   5.282 -0.2108 -0.4240  1.5587
 2873TIP3   OH230033   0.144   3.669  11.245 -0.4736  0.3283  0.4047
 2873TIP3    H130034   0.180   3.675  11.333 -0.6216  0.0851  0.4828
 2873TIP3    H230035   0.199   3.604  11.201 -0.3752  0.4787  0.3060
 2874TIP3   OH230036   0.038   1.419  16.696  0.0982  0.1072 -0.0285
 2874TIP3    H130037   0.067   1.448  16.609 -1.4656 -0.7597 -0.8553
 2874TIP3    H230038  -0.054   1.443  16.700  0.0021 -0.4406  1.1346
 2875TIP3   OH230039   3.114   4.666  14.995 -0.8550  0.6612 -0.2980
 2875TIP3    H130040   3.111   4.570  14.991 -0.7539  0.6320  0.2724
 2875TIP3    H230041   3.061   4.695  14.921 -1.2832  0.1640 -0.1873
 2876TIP3   OH230042   3.750   6.166  11.148 -0.0464 -0.9606  0.2907
 2876TIP3    H130043   3.753   6.181  11.243 -1.0429 -1.1377  0.3577
 2876TIP3    H230044   3.841   6.152  11.123  0.4438  0.8072  0.9486
 2877TIP3   OH230045   2.596   5.895   2.068 -0.3824 -0.6545 -0.9107
 2877TIP3    H130046   2.665   5.937   2.017 -0.7286  0.8115 -0.2228
 2877TIP3    H230047   2.642   5.839   2.131  0.2524  1.1569  0.2826
 2878TIP3   OH230048   4.120   3.881  16.098 -0.3910 -0.0466  0.3727
 2878TIP3    H130049   4.198   3.921  16.059 -0.5137 -1.7365 -1.7322
 2878TIP3    H230050   4.053   3.950  16.094  0.2364  0.5300 -0.3725
 2879TIP3   OH230051   2.191   1.995  14.960 -0.7563 -0.4797  0.2335
 2879TIP3    H130052   2.214   1.991  14.867 -1.2402 -0.0946  0.0928
 2879TIP3    H230053   2.261   1.946  15.004 -1.0374 -1.4923 -0.4230
 2880TIP3   OH230054   5.733   4.341   6.141 -0.2433  0.2993 -0.1662
 2880TIP3    H130055   5.740   4.255   6.100 -0.0713  0.4331 -0.4172
 2880TIP3    H230056   5.658   4.333   6.200  1.2360 -0.7385  1.6001
 2881TIP3   OH230057   2.346   1.144  11.589 -0.8306  0.5245 -0.0076
 2881TIP3    H130058   2.350   1.048  11.589 -0.5350  0.5086 -2.0872
 2881TIP3    H230059   2.427   1.171  11.545 -0.1315  1.8011  1.9885
 2882TIP3   OH230060   4.076   2.633   0.670 -0.2345  0.6300  0.3690
 2882TIP3    H130061   4.084   2.538   0.675  1.4482  0.8126  1.6870
 2882TIP3    H230062   4.039   2.649   0.583 -0.9688 -1.2359  0.2998
 2883TIP3   OH230063   6.613   3.017  16.304  0.5664 -0.0363  0.1479
 2883TIP3    H130064   6.584   3.101  16.339  0.2778  0.3644 -1.0290
 2883TIP3    H230065   6.698   3.001  16.346 -0.9547 -0.8674  3.0408
 2884TIP3   OH230066   4.122   5.989  14.816 -0.3713  0.5453 -0.1241
 2884TIP3    H130067   4.072   5.948  14.745  0.4183  0.1333 -0.4502
 2884TIP3    H230068   4.063   5.984  14.892 -0.0461 -1.8629  0.0236
 2885TIP3   OH230069   3.743   0.714   0.556  0.4085  0.4081 -0.2329
 2885TIP3    H130070   3.670   0.745   0.501 -1.4349  0.8541  2.3726
 2885TIP3    H230071   3.725   0.751   0.642  1.8499 -2.3539  1.3271
 2886TIP3   OH230072   4.613   1.017  16.621  0.5433 -0.3536  0.8902
 2886TIP3    H130073   4.520   1.006  16.643  0.5600 -0.5310  0.8738
 2886TIP3    H230074   4.641   0.930  16.592 -0.0485  0.3602 -1.9674
 2887TIP3   OH230075   0.717   4.181  11.757  0.3166  0.5927  0.2032
 2887TIP3    H130076   0.792   4.127  11.731 -0.1248  1.0197 -2.0533
 2887TIP3    H230077   0.673   4.130  11.825  1.0263 -0.9774 -0.4898
 2888TIP3   OH230078   6.396   3.601   4.221 -0.8020 -0.0839 -0.1422
 2888TIP3    H130079   6.476   3.602   4.170  0.4432 -0.8612  1.7316
 2888TIP3    H230080   6.343   3.532   4.182 -0.3014  0.0242 -1.0159
 2889TIP3   OH230081   0.281   5.006   5.510  0.4347  0.1070  0.1636
 2889TIP3    H130082   0.310   5.097   5.518  1.0799 -0.1602  0.8924
 2889TIP3    H230083   0.361   4.957   5.491  0.2330 -0.4371  0.7098
 2890TIP3   OH230084   2.021   4.734   3.062 -0.3014 -0.1132 -0.5428
 2890TIP3    H130085   1.939   4.730   3.111 -0.4484  1.4089 -0.6371
 2890TIP3    H230086   2.089   4.732   3.129 -0.5353  4.1422 -0.0619
 2891TIP3   OH230087   4.981   1.430  11.892  0.2074 -0.4051  0.2109
 2891TIP3    H130088   4.910   1.492  11.903  2.3831  2.4767 -1.4847
 2891TIP3    H230089   4.984   1.412  11.798  1.5807 -0.6404  0.2818
 2892TIP3   OH230090   5.390   5.365  15.653 -0.0117 -0.2647 -0.0830
 2892TIP3    H130091   5.406   5.300  15.585  0.7566  0.0475 -0.2018
 2892TIP3    H230092   5.397   5.317  15.735  0.3464 -0.3751 -0.1796
 2893TIP3   OH230093   3.708   6.260   2.958  0.2919 -0.2855 -0.1920
 2893TIP3    H130094   3.689   6.305   2.876  2.4545 -0.3964 -0.7939
 2893TIP3    H230095   3.635   6.199   2.970 -0.4152  0.2548 -1.6614
 2894TIP3   OH230096   2.545   0.046   1.048  0.4228 -0.4090 -0.5909
 2894TIP3    H130097   2.488   0.106   1.095  0.0789  0.5114 -2.1396
 2894TIP3    H230098   2.626   0.095   1.034  1.5428 -1.6412  1.4275
 2895TIP3   OH230099   6.008   0.926   6.759  0.0424 -0.2817  0.0179
 2895TIP3    H130100   6.023   0.894   6.670 -0.5613  0.9302 -0.5329
 2895TIP3    H230101   6.091   0.969   6.783  0.3458 -0.9670  0.2027
 2896TIP3   OH230102   3.665   4.219   4.944 -0.0248  0.1751 -0.7977
 2896TIP3    H130103   3.677   4.126   4.921 -0.3533  0.1530 -0.8842
 2896TIP3    H230104   3.667   4.221   5.039  1.6040  0.3007 -0.8201
 2897TIP3   OH230105   1.009   6.555   2.148 -0.0902 -0.2355 -0.3326
 2897TIP3    H130106   1.102   6.552   2.123 -0.3706 -1.9258 -1.2881
 2897TIP3    H230107   0.962   6.559   2.064 -0.9165 -0.9447  0.0937
 2898TIP3   OH230108   3.799   5.757   6.028 -0.9028  0.0059 -0.1661
 2898TIP3    H130109   3.733   5.755   5.959 -1.2920  0.1578  0.1960
 2898TIP3    H230110   3.870   5.810   5.991 -0.6977 -0.7021 -0.8010
 2899TIP3   OH230111   6.705   6.131  13.491 -0.6057  0.3332 -0.2681
 2899TIP3    H130112   6.670   6.137  13.579  1.3483 -2.0110  0.7200
 2899TIP3    H230113   6.733   6.221  13.470 -0.4249  0.7650  1.7571
 2900TIP3   OH230114   1.733   1.157  14.523  0.4292  0.3349 -0.2987
 2900TIP3    H130115   1.708   1.099  14.451 -0.9437  1.0697 -0.4390
 2900TIP3    H230116   1.828   1.154  14.524  0.3844 -1.9881 -0.2465
 2901TIP3   OH230117   3.644   5.924  16.543 -0.2477  0.0798 -0.3804
 2901TIP3    H130118   3.717   5.935  16.604  0.5185 -0.3042 -1.2062
 2901TIP3    H230119   3.596   6.006  16.548 -0.2588  0.0076  0.8175
 2902TIP3   OH230120   4.859   1.378   4.806  0.3277 -0.1450  0.0538
 2902TIP3    H130121   4.873   1.366   4.900 -0.6973 -2.2226 -0.0261
 2902TIP3    H230122   4.777   1.332   4.789  1.4297 -1.3129 -2.1853
 2903TIP3   OH230123   5.722   5.299  16.799 -0.0196 -0.2027  0.1409
 2903TIP3    H130124   5.813   5.298  16.828 -0.3440 -2.1789  1.1841
 2903TIP3    H230125   5.687   5.214  16.828 -1.9863  0.2408 -0.8730
 2904TIP3   OH230126   3.797   3.435   1.843  0.2607 -0.1225  0.1597
 2904TIP3    H130127   3.742   3.423   1.920 -0.2613 -1.7819 -0.4455
 2904TIP3    H230128   3.752   3.501   1.790 -0.3853 -0.4010  0.3635
 2905TIP3   OH230129   0.787   2.866   0.221 -0.1471 -0.2499 -0.0368
 2905TIP3    H130130   0.808   2.772   0.221  1.0138 -0.0029  0.6780
 2905TIP3    H230131   0.837   2.901   0.294 -0.3370  0.9826 -0.4936
 2906TIP3   OH230132   3.471   0.860  14.693  0.1395 -0.2006  0.3647
 2906TIP3    H130133   3.422   0.815  14.624 -0.8645 -1.1325  1.6701
 2906TIP3    H230134   3.529   0.920  14.646 -1.4404  0.0834 -1.2484
 2907TIP3   OH230135   0.014   4.462   2.519  0.0677 -0.1098 -0.6035
 2907TIP3    H130136   0.080   4.400   2.489  1.2828  1.2475 -0.8460
 2907TIP3    H230137  -0.065   4.439   2.471  0.2429 -2.0242 -0.0057
 2908TIP3   OH230138   1.586   4.130   0.580 -0.6935 -0.0124 -0.2626
 2908TIP3    H130139   1.666   4.086   0.608 -1.3021 -1.3516 -0.6029
 2908TIP3    H230140   1.520   4.104   0.644 -1.1489  0.1151 -0.6745
 2909TIP3   OH230141   2.008   3.276  14.884  0.1822 -0.8777  0.1707
 2909TIP3    H130142   2.081   3.258  14.944 -0.5833 -0.8742  1.1271
 2909TIP3    H230143   1.968   3.356  14.919 -1.1673 -1.6954  0.5387
 2910TIP3   OH230144   5.409   5.634  12.689  0.0693 -0.1044  0.2083
 2910TIP3    H130145   5.504   5.621  12.680 -0.1780 -1.1506 -1.1223
 2910TIP3    H230146   5.382   5.671  12.605 -0.8871 -0.9870  0.1174
 2911TIP3   OH230147   6.000   2.289  14.578 -0.1162  0.2753  0.2728
 2911TIP3    H130148   5.972   2.226  14.511 -1.9752  2.0141 -0.6618
 2911TIP3    H230149   6.011   2.237  14.657 -1.3817 -1.2619 -0.5248
 2912TIP3   OH230150   2.950   5.520  11.092  0.0442 -0.2631 -0.5310
 2912TIP3    H130151   2.886   5.510  11.021  0.5779  1.2352 -1.2525
 2912TIP3    H230152   3.028   5.475  11.061 -0.0183 -0.3943 -0.4983
 2913TIP3   OH230153   5.568   0.487   1.865  0.0788 -0.4578 -0.6805
 2913TIP3    H130154   5.561   0.475   1.770  0.6199  2.7310 -1.1916
 2913TIP3    H230155   5.576   0.582   1.876  1.1561 -0.8684  2.4811
 2914TIP3   OH230156   2.043   2.241   4.341 -0.5383  0.1072 -0.3478
 2914TIP3    H130157   2.003   2.185   4.407 -0.8304  0.7624  0.0382
 2914TIP3    H230158   1.996   2.220   4.260 -0.6289 -0.2226 -0.2089
 2915TIP3   OH230159   0.322   2.171  15.005  0.2482  0.1355  0.1477
 2915TIP3    H130160   0.372   2.171  15.086 -0.1277 -0.4201  0.3804
 2915TIP3    H230161   0.254   2.237  15.019 -0.4259 -0.6614  0.6676
 2916TIP3   OH230162   1.060   1.757   3.846  0.4168  0.4709  0.0567
 2916TIP3    H130163   1.035   1.787   3.758 -0.7483 -0.0787  0.1867
 2916TIP3    H230164   0.989   1.698   3.872  1.3335 -0.2735  0.9037
 2917TIP3   OH230165   6.592   5.821  14.656  0.0465 -0.2252  0.1929
 2917TIP3    H130166   6.643   5.741  14.666  0.7744  0.0979 -0.9148
 2917TIP3    H230167   6.517   5.808  14.714  0.5522 -1.3797  0.6059
 2918TIP3   OH230168   1.464   0.796  11.852 -0.8171  0.0089  0.2124
 2918TIP3    H130169   1.457   0.872  11.910 -1.9034 -0.1966  0.3564
 2918TIP3    H230170   1.428   0.825  11.769 -1.4961 -0.4410  0.3502
 2919TIP3   OH230171   5.699   5.201  17.232  0.2077  0.4138  0.3539
 2919TIP3    H130172   5.792   5.191  17.255 -0.1608 -0.7816  1.3520
 2919TIP3    H230173   5.653   5.147  17.296 -0.9475 -1.8515 -2.3195
 2920TIP3   OH230174   2.508   3.372  14.225  0.1140  0.4744  0.5525
 2920TIP3    H130175   2.546   3.433  14.288 -1.3516  0.7750  1.1620
 2920TIP3    H230176   2.574   3.302  14.216  1.6583  1.9603  0.0972
 2921TIP3   OH230177   3.618   3.623   1.737 -0.3617 -0.2386  0.1470
 2921TIP3    H130178   3.543   3.621   1.677 -0.2138 -4.0926 -0.0605
 2921TIP3    H230179   3.579   3.635   1.823 -1.1820 -1.2498 -0.0663
 2922TIP3   OH230180   4.888   0.213  12.363 -0.3199 -0.0603  0.3150
 2922TIP3    H130181   4.958   0.257  12.413  1.5744 -1.6209 -0.8820
 2922TIP3    H230182   4.921   0.211  12.273 -0.8051 -3.0147  0.1620
 2923TIP3   OH230183   6.501   2.952  12.306  0.4004  0.2013 -0.6541
 2923TIP3    H130184   6.491   2.961  12.401  0.1805  1.3086 -0.7861
 2923TIP3    H230185   6.568   2.884  12.296  1.1368  0.7815  0.3014
 2924TIP3   OH230186   3.312   4.095  13.357 -0.4361  0.1841  0.3069
 2924TIP3    H130187   3.324   4.069  13.266 -1.2163  1.9539 -0.3227
 2924TIP3    H230188   3.218   4.115  13.364 -0.4708 -0.4076  1.6180
 2925TIP3   OH230189   6.675   6.187   5.814  0.1315 -0.1049  0.2609
 2925TIP3    H130190   6.681   6.207   5.720  0.5872  1.6847  0.6539
 2925TIP3    H230191   6.668   6.272   5.856  1.1652 -0.8252  1.9443
 2926TIP3   OH230192   3.026   3.585   3.096  0.7379 -0.2879  0.2734
 2926TIP3    H130193   2.961   3.648   3.128  0.5560 -0.3210 -0.0288
 2926TIP3    H230194   3.060   3.625   3.016  0.4107 -0.7149 -0.0768
 2927TIP3   OH230195   5.964   2.248  13.552 -0.3001 -0.2417  0.5047
 2927TIP3    H130196   6.009   2.171  13.588 -1.3506 -0.8376  0.5594
 2927TIP3    H230197   5.924   2.290  13.628 -1.4148 -0.7664  0.2162
 2928TIP3   OH230198   2.617   0.822  13.629  0.4557 -0.0055  0.5045
 2928TIP3    H130199   2.560   0.835  13.554 -1.4959  1.0142  2.1188
 2928TIP3    H230200   2.685   0.763  13.597 -0.9139 -0.4298 -1.7571
 2929TIP3   OH230201   0.755   6.513  15.970  0.3380 -0.3597  0.0754
 2929TIP3    H130202   0.710   6.548  16.046 -0.0317 -1.1070  0.1991
 2929TIP3    H230203   0.841   6.556  15.971  1.1625 -1.9763  2.1557
 2930TIP3   OH230204   5.137   6.433   4.114  0.1123  0.1323 -0.0290
 2930TIP3    H130205   5.133   6.527   4.097 -0.7569  0.4306  1.7781
 2930TIP3    H230206   5.229   6.417   4.135  0.2729  0.5647 -0.3929
 2931TIP3   OH230207   0.402   1.648  12.988  0.3834  0.2718 -0.7356
 2931TIP3    H130208   0.419   1.728  12.938 -0.3379  0.7462 -0.2232
 2931TIP3    H230209   0.350   1.593  12.928 -1.3695  1.2661 -0.1346
 2932TIP3   OH230210   5.231   0.205   4.114  0.3550  0.0089 -0.3652
 2932TIP3    H130211   5.254   0.253   4.193  0.8183  0.5773 -0.8390
 2932TIP3    H230212   5.269   0.256   4.042 -1.7556  0.5965 -1.1211
 2933TIP3   OH230213   1.702   1.750  13.314  0.0396  0.2520  0.2114
 2933TIP3    H130214   1.670   1.660  13.312  0.5828  0.0805 -1.1101
 2933TIP3    H230215   1.653   1.795  13.244  1.9804  0.2093 -1.2353
 2934TIP3   OH230216   6.691   2.711   2.346 -0.0613  0.0298  0.4341
 2934TIP3    H130217   6.627   2.702   2.417 -0.2517 -0.3150  0.2147
 2934TIP3    H230218   6.639   2.721   2.267  0.1505 -1.3684  0.1030
 2935TIP3   OH230219   0.820   2.833   0.547 -0.3947 -0.1821  0.1273
 2935TIP3    H130220   0.739   2.844   0.498 -0.3184 -1.2705 -0.2566
 2935TIP3    H230221   0.802   2.762   0.607  1.4702 -3.1421 -2.6424
 2936TIP3   OH230222   6.437   0.680   1.032 -0.1980 -0.1896  0.0282
 2936TIP3    H130223   6.467   0.593   1.058  0.1443 -0.1623 -0.2600
 2936TIP3    H230224   6.443   0.732   1.111 -0.1384 -0.3599  0.1360
 2937TIP3   OH230225   0.195   4.432  11.194  0.4794  0.5061 -0.2923
 2937TIP3    H130226   0.253   4.361  11.222 -0.6185 -0.5350 -0.6045
 2937TIP3    H230227   0.170   4.477  11.275  0.0480 -0.3491  0.0510
 2938TIP3   OH230228   5.120   6.245  14.323  0.4429  0.1652  0.3236
 2938TIP3    H130229   5.132   6.233  14.228  1.1793 -0.9677  0.5471
 2938TIP3    H230230   5.107   6.156  14.356 -0.0789  0.5883  1.2584
 2939TIP3   OH230231   2.290   2.477  15.081 -0.2081  0.5115 -0.0248
 2939TIP3    H130232   2.309   2.511  14.994  0.4876  0.7221  0.2073
 2939TIP3    H230233   2.287   2.555  15.137 -1.6095  0.4629 -0.0333
 2940TIP3   OH230234   5.485   4.198   0.810 -0.5830 -0.1894  0.1168
 2940TIP3    H130235   5.525   4.223   0.893 -0.0625 -0.6608  0.0130
 2940TIP3    H230236   5.391   4.211   0.824 -0.2984  2.4344 -0.1453
 2941TIP3   OH230237   6.675   3.040   2.717  0.1898  0.6757 -0.2783
 2941TIP3    H130238   6.679   3.130   2.750  0.8645 -0.2991  2.4695
 2941TIP3    H230239   6.606   3.042   2.651 -1.7204  2.6650  1.6557
 2942TIP3   OH230240   3.269   1.275  15.141 -0.6927 -0.0993  0.2654
 2942TIP3    H130241   3.279   1.293  15.234 -0.5843  1.0424  0.0504
 2942TIP3    H230242   3.324   1.198  15.125  0.8777  0.8890  0.7718
 2943TIP3   OH230243   4.962   5.245  16.058  0.3321  0.3643 -0.0616
 2943TIP3    H130244   4.884   5.242  16.114 -0.3185 -1.4121 -1.0268
 2943TIP3    H230245   5.031   5.204  16.111 -0.6131 -2.5641 -1.0158
 2944TIP3   OH230246   1.459   6.347  15.519  0.1718 -0.7441 -0.1736
 2944TIP3    H130247   1.432   6.255  15.529 -1.0604 -0.5048 -1.1087
 2944TIP3    H230248   1.483   6.354  15.426 -0.8961  0.1500 -0.4045
 2945TIP3   OH230249   0.273   5.713   4.432 -0.0595  0.3598  0.9772
 2945TIP3    H130250   0.204   5.677   4.488 -2.3183  0.6597 -1.5584
 2945TIP3    H230251   0.256   5.807   4.431  0.0885  0.3721 -0.0800
 2946TIP3   OH230252   1.330   0.997  17.207 -0.1314  0.2145  0.4883
 2946TIP3    H130253   1.413   0.990  17.255  0.4685  1.3575 -0.3568
 2946TIP3    H230254   1.354   0.985  17.115 -1.5423 -3.8442  0.5668
 2947TIP3   OH230255   4.438   5.474   1.303 -0.2336  0.0385  0.4559
 2947TIP3    H130256   4.520   5.524   1.299 -0.6088  0.6657  0.4738
 2947TIP3    H230257   4.459   5.398   1.358 -0.1311  1.1201  1.9564
 2948TIP3   OH230258   3.356   4.351  12.595 -0.2732  0.4052  0.1175
 2948TIP3    H130259   3.384   4.352  12.686 -0.0294 -0.3721  0.0520
 2948TIP3    H230260   3.437   4.352  12.545 -0.4108  1.2755 -0.1002
 2949TIP3   OH230261   6.244   4.608   5.274  0.0196 -0.5186  0.1804
 2949TIP3    H130262   6.190   4.578   5.347 -1.1882 -1.6001 -1.1227
 2949TIP3    H230263   6.309   4.539   5.262 -0.7532 -1.1016 -0.7455
 2950TIP3   OH230264   0.491   0.482  10.645  0.1455  0.0993 -0.7156
 2950TIP3    H130265   0.405   0.440  10.642  0.1021  0.2232 -1.2632
 2950TIP3    H230266   0.490   0.532  10.726  0.0580 -0.6608 -0.2334
 2951TIP3   OH230267   2.665   1.591  15.872  0.3835  0.2318  0.2191
 2951TIP3    H130268   2.730   1.546  15.925  0.3879  1.2107  1.0571
 2951TIP3    H230269   2.666   1.544  15.788  1.4215 -0.3980  0.5720
 2952TIP3   OH230270   5.553   1.431  11.848 -0.7374  0.6750 -0.6631
 2952TIP3    H130271   5.570   1.498  11.781  0.0199 -0.6403 -1.8054
 2952TIP3    H230272   5.510   1.479  11.919 -2.1054  1.9970 -2.3371
 2953TIP3   OH230273   1.612   2.943  16.498  0.2423  0.2649 -0.2236
 2953TIP3    H130274   1.620   2.931  16.404  2.3674 -0.6336  0.0361
 2953TIP3    H230275   1.574   2.861  16.530 -3.0532  1.5752 -0.5604
 2954TIP3   OH230276   3.684   3.783  16.630 -0.3820  0.2329  0.4500
 2954TIP3    H130277   3.597   3.765  16.665 -0.0134 -0.2232  1.1551
 2954TIP3    H230278   3.688   3.879  16.624 -1.0042  0.2487  0.2052
 2955TIP3   OH230279   4.454   2.161  12.087 -0.1171 -0.1924  0.4623
 2955TIP3    H130280   4.404   2.242  12.097 -0.1509 -0.2487  0.7596
 2955TIP3    H230281   4.420   2.103  12.156 -1.0302 -0.9313 -0.5920
 2956TIP3   OH230282   4.536   3.619   5.673  0.0126  0.2567 -0.2059
 2956TIP3    H130283   4.574   3.612   5.585 -0.9241  0.4717 -0.6264
 2956TIP3    H230284   4.582   3.552   5.724 -1.2854 -1.6790 -1.5191
 2957TIP3   OH230285   3.528   0.645   1.076 -0.0078 -0.7260  0.1012
 2957TIP3    H130286   3.440   0.628   1.110  0.0959  0.0759  0.7683
 2957TIP3    H230287   3.516   0.720   1.017  0.5041  0.3673  1.3874
 2958TIP3   OH230288   3.261   0.702   0.204  0.6940  0.9790 -0.5528
 2958TIP3    H130289   3.331   0.722   0.266  2.5857 -0.3613 -2.1876
 2958TIP3    H230290   3.298   0.725   0.118 -1.3687  1.5088 -1.3244
 2959TIP3   OH230291   2.697   0.774  14.073  0.2106  0.0645 -0.0764
 2959TIP3    H130292   2.630   0.764  14.005  0.6892  1.9845 -0.8523
 2959TIP3    H230293   2.661   0.841  14.131  1.6828  1.5014 -0.8001
 2960TIP3   OH230294   5.290   4.590   3.146 -0.4539 -0.5051  0.8442
 2960TIP3    H130295   5.221   4.549   3.094  0.2301 -0.9850  0.2991
 2960TIP3    H230296   5.295   4.679   3.112  1.5063 -1.4422 -1.4973
 2961TIP3   OH230297   2.428   4.484   2.448  0.0688 -0.4324  0.1443
 2961TIP3    H130298   2.362   4.540   2.491  0.4688  0.3133 -0.1977
 2961TIP3    H230299   2.407   4.396   2.478 -1.4645 -0.2847 -0.4310
 2962TIP3   OH230300   4.362   0.583  15.438  0.3231 -0.5921  0.4150
 2962TIP3    H130301   4.309   0.528  15.380 -1.4055 -0.7013  2.0689
 2962TIP3    H230302   4.407   0.521  15.495  1.6913 -0.4606 -0.4815
 2963TIP3   OH230303   4.465   0.982   1.746 -0.6484  0.1078 -0.3152
 2963TIP3    H130304   4.533   1.001   1.682  0.1174  1.4066  0.8456
 2963TIP3    H230305   4.447   0.889   1.736  0.8941 -0.1212 -1.0380
 2964TIP3   OH230306   2.426   6.519   0.403 -0.0660 -0.7115  0.1037
 2964TIP3    H130307   2.411   6.558   0.489  1.7314 -0.5780  0.3746
 2964TIP3    H230308   2.522   6.521   0.392 -0.2018 -1.7661 -1.4019
 2965TIP3   OH230309   2.725   5.307   3.528  0.3774  0.0310 -0.3400
 2965TIP3    H130310   2.797   5.302   3.591  0.0386  0.9918  0.1351
 2965TIP3    H230311   2.665   5.371   3.565 -0.5774 -0.5335 -0.8934
 2966TIP3   OH230312   0.474   6.508  13.257  0.0563 -0.0684  0.7169
 2966TIP3    H130313   0.514   6.574  13.313  1.2925  1.2890 -1.6940
 2966TIP3    H230314   0.437   6.557  13.184 -1.9976 -1.7506  0.5509
 2967TIP3   OH230315   6.042   2.073   1.602  0.3914 -0.1698 -0.2824
 2967TIP3    H130316   6.004   2.145   1.652  2.9699  1.2222 -0.2306
 2967TIP3    H230317   6.130   2.104   1.579 -0.1095 -1.4209 -4.2868
 2968TIP3   OH230318   6.698   3.870   0.492 -0.3570  0.0543 -0.0139
 2968TIP3    H130319   6.766   3.875   0.559 -0.7722  0.0207  0.4050
 2968TIP3    H230320   6.687   3.776   0.475  1.9290  0.1491 -2.3395
 2969TIP3   OH230321   5.488   3.770   3.054 -0.0777 -0.3335  0.5634
 2969TIP3    H130322   5.403   3.813   3.043 -0.3717 -1.2259 -0.7812
 2969TIP3    H230323   5.538   3.830   3.109 -1.2565  0.6551  0.5822
 2970TIP3   OH230324   6.502   3.184  15.212 -0.2389  0.1257  0.1739
 2970TIP3    H130325   6.442   3.116  15.180 -0.0690 -0.6943  1.5450
 2970TIP3    H230326   6.588   3.143  15.211  0.0926  0.8316 -0.4315
 2971TIP3   OH230327   0.182   6.519  12.057  0.2253  0.0977 -0.0726
 2971TIP3    H130328   0.173   6.550  12.147  0.3903  0.6540 -0.2474
 2971TIP3    H230329   0.117   6.568  12.007 -0.7778 -1.1675 -0.0310
 2972TIP3   OH230330   6.665   0.981   3.026 -0.6298 -0.1036  0.2546
 2972TIP3    H130331   6.601   1.048   3.003  0.0289 -0.0490 -1.5413
 2972TIP3    H230332   6.614   0.911   3.067 -1.4981  0.9457  0.9569
 2973TIP3   OH230333   0.316   2.779  13.964  0.2234  0.3821  0.2208
 2973TIP3    H130334   0.291   2.799  14.054 -2.3459 -1.6649  0.0126
 2973TIP3    H230335   0.379   2.707  13.972 -0.0454  0.1654  0.3938
 2974TIP3   OH230336   4.770   0.420   0.532 -0.3613  0.0606 -0.6410
 2974TIP3    H130337   4.786   0.462   0.617 -0.8576 -1.7537  0.3646
 2974TIP3    H230338   4.732   0.489   0.478 -0.7776  1.0164  0.8506
 2975TIP3   OH230339   3.637   5.691  12.315  0.3559  0.2846  0.3179
 2975TIP3    H130340   3.556   5.669  12.268 -1.2786  0.9009  2.7609
 2975TIP3    H230341   3.659   5.611  12.364  1.8166 -0.2195 -1.1303
 2976TIP3   OH230342   4.281   4.873  14.716 -0.0505  0.1444 -0.0491
 2976TIP3    H130343   4.318   4.904  14.633  0.2424 -1.3382 -0.4911
 2976TIP3    H230344   4.241   4.789  14.693 -0.6966  0.1232  1.1466
 2977TIP3   OH230345   0.361   6.633  15.951 -0.0203 -0.1105  0.2057
 2977TIP3    H130346   0.329   6.694  15.885  0.2127 -1.5980 -1.3116
 2977TIP3    H230347   0.457   6.635  15.940  0.1491  1.0519  1.7822
 2978TIP3   OH230348   1.035   3.765  15.926  0.0984 -0.2284 -0.6557
 2978TIP3    H130349   1.031   3.769  15.830  1.9257  0.6120 -0.7247
 2978TIP3    H230350   0.980   3.837  15.955 -2.5092 -2.0233 -0.9948
 2979TIP3   OH230351   4.309   5.004  14.089 -0.1860 -0.3918  0.2581
 2979TIP3    H130352   4.352   5.043  14.013 -0.9761  0.4856  0.2561
 2979TIP3    H230353   4.321   5.068  14.159 -0.0908 -0.8756  0.6872
 2980TIP3   OH230354   2.515   2.357   1.012 -0.2495  0.3404  0.2012
 2980TIP3    H130355   2.584   2.424   1.008 -2.5554  2.7416 -1.1211
 2980TIP3    H230356   2.508   2.325   0.922 -0.7280 -0.0130  0.3611
 2981TIP3   OH230357   0.271   6.034  16.099 -0.0154 -0.6162 -0.0352
 2981TIP3    H130358   0.304   6.104  16.042  1.0770 -1.0330  0.0750
 2981TIP3    H230359   0.330   5.961  16.083  0.7484 -0.4989  2.1811
 2982TIP3   OH230360   2.003   3.973   4.811 -0.2421  0.6301  0.1441
 2982TIP3    H130361   1.933   3.972   4.745  0.5207  2.3559 -0.7037
 2982TIP3    H230362   2.021   3.880   4.827 -0.5085  0.1747 -2.0107
 2983TIP3   OH230363   4.965   4.416  14.826 -0.4613  0.0695 -0.3621
 2983TIP3    H130364   5.050   4.436  14.787 -0.1254  1.7910  1.1998
 2983TIP3    H230365   4.958   4.321  14.820  1.1169 -0.0024 -1.4404
 2984TIP3   OH230366   4.879   2.833  12.401 -0.3512 -0.1168  0.4276
 2984TIP3    H130367   4.915   2.800  12.484  1.4253  0.3937 -0.1044
 2984TIP3    H230368   4.833   2.913  12.425 -1.4872 -0.9875  1.1953
 2985TIP3   OH230369   1.744   6.725   0.705 -0.2571  0.1303 -0.0564
 2985TIP3    H130370   1.790   6.731   0.621  0.9536 -0.0897  0.5724
 2985TIP3    H230371   1.684   6.652   0.694  0.2245 -0.1933 -0.5770
 2986TIP3   OH230372   3.790   6.080   0.365 -0.0624  0.2524 -0.5704
 2986TIP3    H130373   3.872   6.031   0.363  0.3014  0.7896  0.5228
 2986TIP3    H230374   3.804   6.152   0.303  0.2353  0.2641 -0.4901
 2987TIP3   OH230375   4.624   3.931  15.170 -0.0028 -0.2790 -0.2758
 2987TIP3    H130376   4.545   3.918  15.117  0.2526  0.6516 -0.9015
 2987TIP3    H230377   4.694   3.890  15.119 -0.2174 -1.8593  0.6858
 2988TIP3   OH230378   1.458   6.305  15.246 -0.3319  0.5388 -0.4173
 2988TIP3    H130379   1.410   6.382  15.214 -0.8203  0.9274  1.2088
 2988TIP3    H230380   1.392   6.237  15.253 -0.3824  0.6670  0.4428
 2989TIP3   OH230381   1.876   5.092   1.928  0.3438  0.1080 -0.5473
 2989TIP3    H130382   1.788   5.129   1.926  0.4621  0.3130 -2.3172
 2989TIP3    H230383   1.934   5.168   1.939  0.4274  0.2002 -1.5894
 2990TIP3   OH230384   0.793   2.624  12.343 -0.5873 -0.1127  0.2286
 2990TIP3    H130385   0.801   2.528  12.334  2.9585  0.2451 -1.6355
 2990TIP3    H230386   0.808   2.640  12.436 -0.9077 -1.3761  0.5127
 2991TIP3   OH230387   4.450   5.707  16.432 -0.5308  0.1586 -0.2104
 2991TIP3    H130388   4.457   5.727  16.338 -2.4910  0.2930 -0.3387
 2991TIP3    H230389   4.419   5.788  16.471 -0.2821 -0.0816  0.4950
 2992TIP3   OH230390   2.485   5.447   0.133  0.2808  0.2103  1.2129
 2992TIP3    H130391   2.436   5.457   0.052  1.8035  0.6618  0.3295
 2992TIP3    H230392   2.488   5.353   0.148 -0.1196  0.1352  0.8298
 2993TIP3   OH230393   4.397   2.577   0.463 -0.0131  0.2453 -0.6412
 2993TIP3    H130394   4.324   2.639   0.460  0.9411  1.4731  0.4881
 2993TIP3    H230395   4.356   2.491   0.472 -1.3177  1.0487  1.5905
 2994TIP3   OH230396   4.146   1.080  13.866 -0.0362 -0.0497  0.1025
 2994TIP3    H130397   4.152   1.153  13.928  1.5625  0.6863 -0.9018
 2994TIP3    H230398   4.208   1.101  13.797 -0.8314 -1.5185 -1.1020
 2995TIP3   OH230399   5.668   1.496  16.441 -0.4687  0.3441 -0.1546
 2995TIP3    H130400   5.763   1.486  16.440 -0.5280 -0.1683 -0.8943
 2995TIP3    H230401   5.635   1.422  16.390 -1.2233  0.9204 -0.5202
 2996TIP3   OH230402   1.057   5.122  13.434  0.0925  0.1891 -0.5301
 2996TIP3    H130403   1.010   5.047  13.470  0.7715 -0.5287 -1.1236
 2996TIP3    H230404   1.146   5.091  13.419  0.6411  1.3946  0.1148
 2997TIP3   OH230405   2.549   3.623  13.748 -0.2870  0.1118 -0.1811
 2997TIP3    H130406   2.564   3.666  13.832 -0.1408  2.7437 -1.5167
 2997TIP3    H230407   2.611   3.550  13.748  1.5397  1.6180  0.9276
 2998TIP3   OH230408   6.413   5.077   5.397  0.0746  0.2379  0.1649
 2998TIP3    H130409   6.327   5.120   5.394  1.3676  2.8322 -0.9528
 2998TIP3    H230410   6.470   5.141   5.439  2.0173 -0.4915 -1.2953
 2999TIP3   OH230411   6.024   6.243  12.068  0.2359  0.5495  0.0244
 2999TIP3    H130412   6.088   6.197  12.121 -0.1343  0.0609  0.0573
 2999TIP3    H230413   5.997   6.317  12.122 -1.9921 -1.3341  1.6119
 3000TIP3   OH230414   5.625   2.506   4.447  0.0804 -0.1966  0.1019
 3000TIP3    H130415   5.626   2.529   4.354  0.3729 -2.5951 -0.5039
 3000TIP3    H230416   5.554   2.444   4.456 -1.4521  1.7526  1.9596
 3001TIP3   OH230417   5.676   2.748  12.157  0.7447 -0.0916 -0.1880
 3001TIP3    H130418   5.615   2.721  12.225  1.1046 -1.6720 -0.4829
 3001TIP3    H230419   5.623   2.754  12.078  0.5775  0.5128 -0.0338
 3002TIP3   OH230420   3.586   2.476  13.732 -0.3976 -0.5590  0.1619
 3002TIP3    H130421   3.664   2.480  13.676 -1.3417  0.2151 -1.1486
 3002TIP3    H230422   3.619   2.485  13.821  0.8286  2.1862 -0.5186
 3003TIP3   OH230423   6.267   4.448   5.882 -0.2267 -0.0600  0.0487
 3003TIP3    H130424   6.189   4.435   5.828 -1.5014 -1.0143  2.0770
 3003TIP3    H230425   6.303   4.360   5.895  1.0637  0.3444 -0.6704
 3004TIP3   OH230426   4.108   3.615  16.077  0.0053  0.3095 -0.4514
 3004TIP3    H130427   4.124   3.709  16.074  0.1559  0.2551 -2.1821
 3004TIP3    H230428   4.081   3.593  15.988 -1.2513 -1.0723  0.2485
 3005TIP3   OH230429   3.349   6.235   4.089 -0.7178  0.3807 -0.2138
 3005TIP3    H130430   3.367   6.215   3.997  0.6192  0.1369  0.0966
 3005TIP3    H230431   3.343   6.149   4.131 -3.1363  0.4166 -0.3808
 3006TIP3   OH230432   0.532   1.278  14.770 -0.4363 -0.7174 -0.0262
 3006TIP3    H130433   0.622   1.287  14.736 -0.2598  0.8461  0.8195
 3006TIP3    H230434   0.488   1.224  14.705  0.6959 -0.1610 -1.2928
 3007TIP3   OH230435   4.655   6.338   0.467  0.0246 -0.2900  0.0777
 3007TIP3    H130436   4.612   6.397   0.405 -2.0762 -0.7742  1.0244
 3007TIP3    H230437   4.688   6.395   0.536 -0.2521 -0.0302 -0.0022
 3008TIP3   OH230438   5.610   0.004  13.237  0.6943  0.4917 -0.2472
 3008TIP3    H130439   5.677   0.065  13.206  0.3064  1.5597  0.9731
 3008TIP3    H230440   5.545   0.002  13.167  0.6815  1.5338 -0.2744
 3009TIP3   OH230441   3.350   2.997   1.906  0.3457  0.2580 -0.0676
 3009TIP3    H130442   3.390   3.012   1.992  0.2814 -0.4963  0.0965
 3009TIP3    H230443   3.312   2.909   1.912  1.8605 -0.5314 -1.4540
 3010TIP3   OH230444   6.371   6.149   4.383 -0.6296 -0.1270  0.3000
 3010TIP3    H130445   6.441   6.214   4.377 -0.4318 -0.4553 -1.1216
 3010TIP3    H230446   6.301   6.194   4.431 -0.6641  1.2733 -1.0345
 3011TIP3   OH230447   2.308   1.524  14.190 -0.0837 -0.2149  0.5883
 3011TIP3    H130448   2.224   1.563  14.166  0.6484  1.0109 -0.0403
 3011TIP3    H230449   2.291   1.430  14.193 -0.9835 -0.1283 -1.4947
 3012TIP3   OH230450   1.469   0.069  15.231  0.6854 -0.4153 -0.0556
 3012TIP3    H130451   1.512   0.015  15.298  0.2585  1.1372  1.5191
 3012TIP3    H230452   1.532   0.073  15.159  1.9516 -0.5559  1.0232
 3013TIP3   OH230453   4.381   1.270   5.431 -0.2596 -0.1265 -0.1830
 3013TIP3    H130454   4.458   1.276   5.488 -0.2183  0.2834 -0.2749
 3013TIP3    H230455   4.308   1.301   5.484 -0.3919 -0.6731 -0.0437
 3014TIP3   OH230456   1.204   2.593  10.906 -0.2347 -0.2211 -0.0426
 3014TIP3    H130457   1.209   2.616  10.999 -0.8164  0.0206 -0.0694
 3014TIP3    H230458   1.121   2.545  10.897 -0.9157  1.0520 -0.7131
 3015TIP3   OH230459   3.603   2.179   1.232 -0.1298 -0.2920  0.4567
 3015TIP3    H130460   3.667   2.123   1.275 -0.5723  0.6658  2.3975
 3015TIP3    H230461   3.650   2.262   1.218  0.7526 -1.2762 -3.0333
 3016TIP3   OH230462   0.050   3.620   3.348 -0.1099  0.1677 -0.2633
 3016TIP3    H130463   0.004   3.544   3.314  0.6786 -0.2590 -0.3900
 3016TIP3    H230464   0.026   3.692   3.289 -0.1137 -0.1925 -0.7008
 3017TIP3   OH230465   1.848   3.904   2.920 -0.1430  0.0025  0.1501
 3017TIP3    H130466   1.761   3.916   2.883 -0.2700  1.1212  0.7657
 3017TIP3    H230467   1.833   3.899   3.015  0.5903  1.8741  0.3977
 3018TIP3   OH230468   0.559   3.061   3.243 -0.0074  0.0586 -0.4444
 3018TIP3    H130469   0.575   3.072   3.336  1.7130 -0.5412 -0.6550
 3018TIP3    H230470   0.533   2.969   3.233  0.1755  0.0228 -0.6052
 3019TIP3   OH230471   5.246   0.238   0.231  0.2150 -0.0219  0.4597
 3019TIP3    H130472   5.281   0.153   0.205 -0.9391 -0.3041 -0.1954
 3019TIP3    H230473   5.174   0.254   0.170 -0.3706  0.8606  1.3708
 3020TIP3   OH230474   0.793   0.087  11.305 -0.1642  0.1606 -0.4419
 3020TIP3    H130475   0.722   0.028  11.332  0.1207  0.2792  0.5767
 3020TIP3    H230476   0.753   0.174  11.306 -0.3808  0.0720 -1.2177
 3021TIP3   OH230477   2.623   3.493   5.355 -0.1602  0.4603 -0.1521
 3021TIP3    H130478   2.555   3.486   5.423 -0.0296 -5.5171 -0.3733
 3021TIP3    H230479   2.576   3.523   5.277 -1.5196  1.4347  1.0238
 3022TIP3   OH230480   1.421   1.665   0.122 -0.4432 -0.2154 -0.1633
 3022TIP3    H130481   1.445   1.686   0.031  0.8235  1.0202  0.4413
 3022TIP3    H230482   1.505   1.655   0.167 -1.0578  1.1595  1.3227
 3023TIP3   OH230483   1.459   0.951   4.265  0.1187  0.1532 -0.1684
 3023TIP3    H130484   1.501   0.878   4.310 -0.5751 -1.0337 -1.4043
 3023TIP3    H230485   1.521   0.975   4.196  1.0515  1.7860  1.1738
 3024TIP3   OH230486   3.927   5.106   2.651  0.0241 -0.3522 -0.2344
 3024TIP3    H130487   3.926   5.010   2.644  2.1793 -0.4489  0.4228
 3024TIP3    H230488   3.898   5.124   2.740 -2.4358 -0.2613 -1.0053
 3025TIP3   OH230489   5.016   5.015  12.333 -0.0890 -0.1883  0.1387
 3025TIP3    H130490   5.066   4.997  12.254  0.4805  0.7432  0.2776
 3025TIP3    H230491   5.081   5.044  12.397 -0.6148 -0.4013  0.7769
 3026TIP3   OH230492   4.655   3.319  15.606 -0.1872 -0.2813 -0.3980
 3026TIP3    H130493   4.725   3.335  15.670 -0.7417  0.3349  0.0551
 3026TIP3    H230494   4.578   3.299  15.660 -0.3946 -0.8469 -0.8970
 3027TIP3   OH230495   5.956   6.219   0.978  0.4633 -0.2001  0.2687
 3027TIP3    H130496   5.981   6.127   0.965  1.6064  0.1796 -0.3343
 3027TIP3    H230497   6.031   6.257   1.023  0.7944  0.8831 -1.1946
 3028TIP3   OH230498   3.449   2.696   2.471 -0.3024  0.2352  0.3411
 3028TIP3    H130499   3.504   2.688   2.549 -0.2507 -3.1292  0.0179
 3028TIP3    H230500   3.427   2.606   2.448 -2.5081  1.3237 -1.9967
 3029TIP3   OH230501   5.388   1.957   4.933 -0.0725 -0.1833  0.1519
 3029TIP3    H130502   5.404   1.926   4.844 -0.4493  1.6065 -0.5458
 3029TIP3    H230503   5.324   1.895   4.968  0.6339 -1.3383 -0.5425
 3030TIP3   OH230504   5.698   4.816   3.378 -0.1889  0.3357 -0.1140
 3030TIP3    H130505   5.758   4.767   3.322  1.4057 -0.4029  2.1524
 3030TIP3    H230506   5.736   4.903   3.385  0.2865  0.0570  0.8125
 3031TIP3   OH230507   0.412   1.932  12.964 -0.5890  0.1839 -0.4678
 3031TIP3    H130508   0.416   1.998  13.033  0.5232 -0.3207 -0.0230
 3031TIP3    H230509   0.502   1.927  12.931 -0.5057 -1.5751 -0.0357
 3032TIP3   OH230510   2.348   1.246  14.168 -0.1738 -0.1264 -0.2994
 3032TIP3    H130511   2.322   1.222  14.079 -0.5381 -0.2356 -0.1666
 3032TIP3    H230512   2.284   1.201  14.224  0.7788 -1.0395  0.0738
 3033TIP3   OH230513   0.591   2.043   4.979  0.1647 -0.0942  0.3813
 3033TIP3    H130514   0.527   1.989   4.933  0.3010  0.1918 -0.1483
 3033TIP3    H230515   0.629   1.986   5.045  1.5151 -1.1359 -1.2617
 3034TIP3   OH230516   5.909   0.249  16.835 -0.2549 -0.1239 -0.3829
 3034TIP3    H130517   5.978   0.184  16.848  2.2029  2.2876 -0.7888
 3034TIP3    H230518   5.896   0.288  16.922 -1.4591 -0.8869 -0.2111
 3035TIP3   OH230519   3.112   0.907   2.198 -0.0690 -0.2327  0.0542
 3035TIP3    H130520   3.047   0.908   2.128  0.5360 -0.8121 -0.5271
 3035TIP3    H230521   3.074   0.851   2.266  0.0899 -1.0936 -0.5536
 3036TIP3   OH230522   4.646   0.109  11.919 -0.2389  0.2031 -0.1816
 3036TIP3    H130523   4.698   0.182  11.884  0.6405 -0.8541 -1.0814
 3036TIP3    H230524   4.590   0.083  11.847  1.0367 -1.4828 -0.5790
 3037TIP3   OH230525   0.247   3.816  15.242 -0.2319 -0.3735 -0.0831
 3037TIP3    H130526   0.302   3.762  15.299 -1.4698 -1.9488 -0.3681
 3037TIP3    H230527   0.275   3.795  15.153  0.5468  0.8478 -0.1444
 3038TIP3   OH230528   1.808   4.607  12.361 -0.1233 -0.3265  0.3235
 3038TIP3    H130529   1.762   4.532  12.324  0.4379  0.5057 -2.1544
 3038TIP3    H230530   1.743   4.650  12.418 -2.4320  0.7468 -2.9667
 3039TIP3   OH230531   5.558   2.490   1.096  0.1631  0.1732  0.4006
 3039TIP3    H130532   5.639   2.441   1.109  0.3794  0.4785  0.2096
 3039TIP3    H230533   5.516   2.489   1.182 -0.8796 -2.1838 -0.0827
 3040TIP3   OH230534   1.294   0.500  12.474  0.1305 -0.0785  0.0699
 3040TIP3    H130535   1.348   0.579  12.465 -0.1784  0.3285  1.6191
 3040TIP3    H230536   1.339   0.448  12.540  0.4513 -1.3278 -1.0983
 3041TIP3   OH230537   3.704   5.573  14.578 -0.0542 -0.5056 -0.6095
 3041TIP3    H130538   3.776   5.541  14.522 -1.5100 -1.5260 -1.9504
 3041TIP3    H230539   3.667   5.494  14.617 -0.7290 -0.0301 -0.2815
 3042TIP3   OH230540   3.304   1.906   4.074 -0.2224  0.9092  0.2817
 3042TIP3    H130541   3.271   1.986   4.033 -1.0553  0.4487  0.0482
 3042TIP3    H230542   3.226   1.851   4.086  0.3476  0.1195  0.4153
 3043TIP3   OH230543   1.612   0.483  14.590  0.2728  0.2026 -0.2834
 3043TIP3    H130544   1.628   0.550  14.523  1.8769  0.5539  0.4316
 3043TIP3    H230545   1.574   0.531  14.664  1.4764  0.3560  0.2509
 3044TIP3   OH230546   0.626   0.100  16.642  0.0633  0.4443 -0.3935
 3044TIP3    H130547   0.577   0.024  16.672  2.1146 -0.1787  1.4667
 3044TIP3    H230548   0.639   0.154  16.720  0.0777  1.9006 -1.3655
 3045TIP3   OH230549   1.257   2.690  14.213 -0.2756 -0.2339 -0.3278
 3045TIP3    H130550   1.212   2.713  14.131  2.0845 -2.0286 -2.2103
 3045TIP3    H230551   1.259   2.594  14.213 -1.0600 -0.2976  2.3502
 3046TIP3   OH230552   0.348   1.840  15.599  0.7733 -0.2447 -0.5570
 3046TIP3    H130553   0.428   1.815  15.644 -0.7948 -1.2136  1.7697
 3046TIP3    H230554   0.280   1.786  15.639 -1.7866  3.6247  0.5705
 3047TIP3   OH230555   4.964   4.569   0.122 -0.1460  1.1576  0.5505
 3047TIP3    H130556   5.040   4.628   0.121  0.4241  0.4257 -0.5584
 3047TIP3    H230557   4.999   4.485   0.092 -0.8377  0.1087  2.5463
 3048TIP3   OH230558   4.540   4.693  12.508 -0.0732 -0.0905 -0.3497
 3048TIP3    H130559   4.533   4.677  12.602  0.7742 -1.2384 -0.4736
 3048TIP3    H230560   4.540   4.606  12.468 -0.9784  0.4077 -1.4546
 3049TIP3   OH230561   0.837   2.076  14.629 -0.4038 -0.3278  0.7421
 3049TIP3    H130562   0.873   2.157  14.665  0.9342 -1.1097  1.2075
 3049TIP3    H230563   0.750   2.100  14.598  0.0187  1.3038  0.7873
 3050TIP3   OH230564   6.205   3.075  14.339  0.3266  0.1644  0.1927
 3050TIP3    H130565   6.150   2.997  14.330 -0.5602  0.8825 -0.7834
 3050TIP3    H230566   6.204   3.094  14.433 -0.2338 -0.4489  0.3125
 3051TIP3   OH230567   3.904   0.979   5.814 -0.5823 -0.6761 -0.0661
 3051TIP3    H130568   3.993   1.009   5.832 -0.3918 -0.0878 -1.8929
 3051TIP3    H230569   3.849   1.027   5.876  0.3738 -1.1720  1.1851
 3052TIP3   OH230570   0.011   4.275   0.608  0.4301  0.2771  0.4087
 3052TIP3    H130571   0.081   4.212   0.629  1.1705  1.1073  0.4320
 3052TIP3    H230572  -0.014   4.253   0.518 -0.2531 -0.9280  0.8721
 3053TIP3   OH230573   1.884   0.371  12.306  0.1412 -0.0315 -0.5687
 3053TIP3    H130574   1.875   0.460  12.273  0.5312 -0.0336 -0.6753
 3053TIP3    H230575   1.936   0.326  12.240  0.9231 -0.0384  0.0495
 3054TIP3   OH230576   5.999   5.232   2.656  0.4988 -0.2596  0.6004
 3054TIP3    H130577   6.026   5.298   2.721  1.1972 -0.7042  0.7674
 3054TIP3    H230578   5.948   5.282   2.592 -2.7136 -0.3234  3.0053
 3055TIP3   OH230579   4.741   0.304  16.345  0.0139 -0.0828 -0.0862
 3055TIP3    H130580   4.828   0.272  16.323 -0.3557 -0.8324 -0.4941
 3055TIP3    H230581   4.731   0.287  16.439 -0.8211 -2.7794 -0.6260
 3056TIP3   OH230582   6.002   2.543  12.691 -0.1790 -0.2975 -0.3307
 3056TIP3    H130583   6.006   2.631  12.654  0.2145 -0.5538 -0.9185
 3056TIP3    H230584   6.046   2.550  12.776  1.6140 -0.3316 -1.2218
 3057TIP3   OH230585   4.679   5.533  12.025 -0.9014  0.0137  0.6082
 3057TIP3    H130586   4.627   5.612  12.040  0.6857  1.7331 -2.4796
 3057TIP3    H230587   4.644   5.496  11.944 -0.4232 -1.4374  1.0508
 3058TIP3   OH230588   4.525   3.827   1.995  0.0308 -0.7604 -0.1128
 3058TIP3    H130589   4.527   3.869   2.081  1.7849 -0.5430 -0.2543
 3058TIP3    H230590   4.438   3.786   1.991 -0.0909 -0.7276  1.7329
 3059TIP3   OH230591   5.008   0.877  11.831 -0.3126  0.0988  0.0889
 3059TIP3    H130592   4.921   0.918  11.828 -0.8574 -0.6432  3.3982
 3059TIP3    H230593   5.066   0.947  11.860 -0.1605  0.1129 -0.2575
 3060TIP3   OH230594   1.503   4.647  16.461  0.0937  0.4432 -0.1665
 3060TIP3    H130595   1.478   4.638  16.370 -1.0130 -1.4144  0.2996
 3060TIP3    H230596   1.433   4.699  16.501 -0.3815 -0.3035 -0.0017
 3061TIP3   OH230597   2.194   3.409  13.444 -0.0511  0.1598  0.0993
 3061TIP3    H130598   2.145   3.345  13.496  1.9444 -0.5241  1.2043
 3061TIP3    H230599   2.237   3.356  13.377  2.5528  0.0937  1.7243
 3062TIP3   OH230600   3.091   3.580  15.337  0.3480 -0.5325 -0.2293
 3062TIP3    H130601   3.051   3.571  15.250  1.4798 -0.2261 -0.7927
 3062TIP3    H230602   3.123   3.670  15.339  0.9470 -0.7504  0.2348
 3063TIP3   OH230603   0.981   3.149   1.296  0.0156 -0.2943  0.1201
 3063TIP3    H130604   0.967   3.155   1.202 -0.3607  0.3260  0.2172
 3063TIP3    H230605   1.020   3.233   1.320  0.6326 -0.6629  0.4307
 3064TIP3   OH230606   4.155   6.733  15.441  0.2560  0.1365 -0.2334
 3064TIP3    H130607   4.125   6.803  15.500  2.7653  1.4244 -0.4156
 3064TIP3    H230608   4.113   6.754  15.357  1.5657  1.8946 -0.4835
 3065TIP3   OH230609   5.515   3.335   1.631 -0.3372  0.1155  0.0058
 3065TIP3    H130610   5.600   3.379   1.628 -0.1231 -0.2715  0.4250
 3065TIP3    H230611   5.457   3.398   1.674 -0.5224  0.8074 -1.2279
 3066TIP3   OH230612   4.058   1.465  13.763  0.3492 -1.0316 -0.9407
 3066TIP3    H130613   4.092   1.421  13.685  0.8146 -2.8463  0.2702
 3066TIP3    H230614   3.973   1.499  13.735  0.4730 -1.7246 -2.2230
 3067TIP3   OH230615   0.267   4.686  12.484 -0.5397 -0.4276  0.2815
 3067TIP3    H130616   0.269   4.708  12.577 -1.3346 -1.5027  0.5627
 3067TIP3    H230617   0.183   4.719  12.453  0.7919  2.2069 -0.6585
 3068TIP3   OH230618   2.082   4.379   2.074  0.4357  0.2506 -0.0958
 3068TIP3    H130619   2.133   4.365   1.995 -0.9816 -3.0012 -0.4900
 3068TIP3    H230620   2.131   4.335   2.143  0.2080  0.6342  0.3189
 3069TIP3   OH230621   3.543   0.931  13.127 -0.3008 -0.0114 -0.1335
 3069TIP3    H130622   3.519   0.838  13.128  3.2512 -0.9867  1.9661
 3069TIP3    H230623   3.599   0.940  13.050 -2.0937  0.8605 -1.3816
 3070TIP3   OH230624   1.461   4.451   4.079  0.3862  0.0039  0.1377
 3070TIP3    H130625   1.419   4.422   4.160 -0.9078  0.7435 -0.2566
 3070TIP3    H230626   1.443   4.380   4.017 -2.1846  1.2636 -0.6334
 3071TIP3   OH230627   2.616   2.700  17.136 -0.0007 -0.1092 -0.0507
 3071TIP3    H130628   2.657   2.613  17.136 -2.1572 -1.1672 -0.7968
 3071TIP3    H230629   2.681   2.757  17.175  1.3670 -2.1202  0.6979
 3072TIP3   OH230630   5.750   3.802  15.960  0.1139  0.3210 -0.1801
 3072TIP3    H130631   5.767   3.711  15.985 -3.2952 -0.1702  0.5574
 3072TIP3    H230632   5.783   3.854  16.033  0.5645 -0.4458  0.1653
 3073TIP3   OH230633   5.030   5.119  15.833 -0.5552 -0.5947  0.0118
 3073TIP3    H130634   4.970   5.143  15.763 -0.3430  0.6868  0.2552
 3073TIP3    H230635   5.003   5.172  15.908 -0.9579 -2.1522  0.9965
 3074TIP3   OH230636   1.174   2.900  11.514  0.4811  0.2667 -0.7245
 3074TIP3    H130637   1.114   2.841  11.560 -0.2774  0.9822 -0.7964
 3074TIP3    H230638   1.191   2.970  11.577 -0.3967  1.1416 -1.4519
 3075TIP3   OH230639   2.085   1.832  13.432 -0.5611  0.1798 -1.1564
 3075TIP3    H130640   2.017   1.825  13.499 -0.1540  0.9349 -0.6601
 3075TIP3    H230641   2.151   1.767  13.458  0.4415  1.6807  0.1932
 3076TIP3   OH230642   1.873   5.275  10.750 -0.1205 -0.0607  0.0250
 3076TIP3    H130643   1.831   5.191  10.764 -1.1475  0.5754  0.8486
 3076TIP3    H230644   1.803   5.339  10.759  0.7434  0.9144 -0.0777
 3077TIP3   OH230645   4.037   1.643   5.882 -0.3586  0.7928  0.6383
 3077TIP3    H130646   4.040   1.693   5.963  1.6216  0.7702  0.6081
 3077TIP3    H230647   4.118   1.668   5.836 -0.0308 -1.3728  0.0022
 3078TIP3   OH230648   3.138   5.514  16.329  0.5080  0.7478 -0.6397
 3078TIP3    H130649   3.206   5.554  16.383  1.7736  1.3276 -2.5932
 3078TIP3    H230650   3.071   5.582  16.320  1.1356  1.3046 -1.2469
 3079TIP3   OH230651   5.394   3.349   3.143 -0.1000  0.9137  0.3632
 3079TIP3    H130652   5.411   3.299   3.063 -0.6810  0.4763  0.5119
 3079TIP3    H230653   5.478   3.388   3.165  0.4018 -0.1585  0.3534
 3080TIP3   OH230654   2.892   1.671   0.735 -0.0462 -0.5908  0.3571
 3080TIP3    H130655   2.987   1.664   0.729 -0.0203  0.0973 -0.1217
 3080TIP3    H230656   2.867   1.721   0.657 -0.7262 -0.1550  0.8479
 3081TIP3   OH230657   5.532   5.873   5.930  0.5015  0.2248 -0.3868
 3081TIP3    H130658   5.539   5.784   5.964 -2.5673 -0.2330 -0.7411
 3081TIP3    H230659   5.557   5.929   6.003 -0.6826 -0.8643  0.8854
 3082TIP3   OH230660   3.945   3.594  15.217  0.0636 -0.1431  0.1306
 3082TIP3    H130661   3.885   3.591  15.291 -1.6287 -0.5383 -1.2038
 3082TIP3    H230662   3.893   3.560  15.143  1.3443  1.2603 -1.4675
 3083TIP3   OH230663   6.492   5.223  15.134 -0.3271 -0.5461 -0.4135
 3083TIP3    H130664   6.561   5.289  15.129  0.1725 -1.0498 -0.3148
 3083TIP3    H230665   6.494   5.194  15.225 -1.6601  0.4720 -0.0501
 3084TIP3   OH230666   5.128   0.450   4.754  0.0202  0.0745 -0.2903
 3084TIP3    H130667   5.114   0.507   4.830  0.7583 -1.1204  0.7458
 3084TIP3    H230668   5.136   0.362   4.790  1.6874 -0.3539 -1.6143
 3085TIP3   OH230669   0.575   4.684   2.691  0.7224  0.6343  0.5185
 3085TIP3    H130670   0.509   4.710   2.756 -0.8305  1.0936 -1.1942
 3085TIP3    H230671   0.557   4.591   2.674  0.1949  0.8841 -0.3075
 3086TIP3   OH230672   3.563   3.737  12.253  0.3875  0.4222 -0.2773
 3086TIP3    H130673   3.655   3.762  12.250  0.4156  0.3676  0.1489
 3086TIP3    H230674   3.564   3.642  12.242  0.3766  0.4256 -0.3105
 3087TIP3   OH230675   3.684   0.445   0.743  0.3270  0.5732 -0.2984
 3087TIP3    H130676   3.620   0.485   0.684 -0.3295  1.1128  0.7628
 3087TIP3    H230677   3.726   0.519   0.786  0.3196  0.1690  0.4055
 3088TIP3   OH230678   3.765   4.308   5.620  0.7285  0.6248  0.1361
 3088TIP3    H130679   3.727   4.355   5.694  1.1448  0.0741  0.6991
 3088TIP3    H230680   3.689   4.282   5.567  0.3875  0.4459  0.7062
 3089TIP3   OH230681   6.526   5.108   4.750 -1.1236  0.3317  0.5132
 3089TIP3    H130682   6.588   5.091   4.821 -0.1018  1.3554 -0.1106
 3089TIP3    H230683   6.440   5.101   4.790 -0.5475  1.9974  2.1054
 3090TIP3   OH230684   1.219   0.683   1.102 -0.6542  0.3613 -0.7842
 3090TIP3    H130685   1.283   0.650   1.165 -0.0617  0.7719 -1.1718
 3090TIP3    H230686   1.242   0.639   1.020  0.8748  2.6002 -1.5970
 3091TIP3   OH230687   5.491   4.902   0.927  0.0133  0.3283 -0.2153
 3091TIP3    H130688   5.397   4.900   0.908 -0.6332 -1.5352  2.8224
 3091TIP3    H230689   5.505   4.985   0.972 -0.4051  0.0283  0.4619
 3092TIP3   OH230690   3.434   3.323   2.503  0.2265  0.5106 -0.0449
 3092TIP3    H130691   3.484   3.243   2.486  0.3835  0.7059 -0.5265
 3092TIP3    H230692   3.495   3.394   2.481 -0.4016  0.7434 -1.0707
 3093TIP3   OH230693   5.006   0.075   5.090  0.0071  0.3078  0.1301
 3093TIP3    H130694   4.980   0.076   4.998  2.2617 -0.1858 -0.5637
 3093TIP3    H230695   5.017   0.167   5.112 -1.2583  0.4609  0.1171
 3094TIP3   OH230696   3.916   6.058  10.858 -0.4644 -0.5501 -0.5993
 3094TIP3    H130697   3.858   6.037  10.784  0.0492  0.1515 -1.2124
 3094TIP3    H230698   4.004   6.048  10.822 -0.2024 -1.8751  0.4062
 3095TIP3   OH230699   1.729   5.062  12.757 -0.4903 -0.7019  0.1464
 3095TIP3    H130700   1.819   5.091  12.749 -0.3754 -1.2703 -0.7630
 3095TIP3    H230701   1.696   5.061  12.667 -1.5277 -0.1225  0.4982
 3096TIP3   OH230702   3.187   3.935   6.177 -0.2793  0.0789 -0.5382
 3096TIP3    H130703   3.161   3.846   6.153  2.7520 -1.1384  0.4241
 3096TIP3    H230704   3.131   3.958   6.251  0.0334 -1.6748  0.2468
 3097TIP3   OH230705   0.719   4.369   4.325 -0.8714 -0.6631  0.6965
 3097TIP3    H130706   0.756   4.408   4.404  0.5212  0.2436 -0.3788
 3097TIP3    H230707   0.690   4.444   4.273  1.1626 -1.0419 -1.0680
 3098TIP3   OH230708   0.125   2.809   5.604  0.1926 -0.2172  0.2514
 3098TIP3    H130709   0.180   2.749   5.655 -0.5958 -0.3819  0.9224
 3098TIP3    H230710   0.161   2.896   5.623  1.7788 -0.5205 -1.2790
 3099TIP3   OH230711   1.821   4.275   0.294  0.1366  0.5219  0.1252
 3099TIP3    H130712   1.852   4.264   0.384 -2.1634 -0.2123  0.8743
 3099TIP3    H230713   1.899   4.297   0.244  1.8602 -1.4463  1.8744
 3100TIP3   OH230714   2.457   5.568   2.151  0.8528  0.1262 -0.2508
 3100TIP3    H130715   2.373   5.615   2.152  0.3350 -0.7837  1.2490
 3100TIP3    H230716   2.513   5.619   2.210  0.9258 -0.0214 -0.1928
 3101TIP3   OH230717   2.151   3.462  16.960  0.1550  0.0950  0.2496
 3101TIP3    H130718   2.110   3.398  16.901 -0.8125 -0.4778  1.5086
 3101TIP3    H230719   2.088   3.472  17.032  0.5772  2.0225  0.3723
 3102TIP3   OH230720   2.629   4.310  13.182  0.3269  0.1074 -0.2546
 3102TIP3    H130721   2.667   4.303  13.094  1.0393 -0.6993  0.1183
 3102TIP3    H230722   2.685   4.375  13.226 -1.0510  1.7941 -0.9257
 3103TIP3   OH230723   5.216   4.751   5.671 -0.4375 -0.4143 -0.2246
 3103TIP3    H130724   5.127   4.777   5.648 -0.9786  0.3222  2.5199
 3103TIP3    H230725   5.220   4.657   5.653 -2.2696 -0.7625  1.0486
 3104TIP3   OH230726   1.362   3.141   4.651  0.2355  0.0679  0.0216
 3104TIP3    H130727   1.291   3.201   4.631  0.7197  0.4501 -0.5698
 3104TIP3    H230728   1.417   3.189   4.713  0.0218 -0.1981  0.4186
 3105TIP3   OH230729   6.554   6.580  13.817  0.1851 -0.6830 -0.9061
 3105TIP3    H130730   6.474   6.571  13.870  0.7046 -0.5184 -0.0946
 3105TIP3    H230731   6.597   6.495  13.824  0.6534 -0.4039 -0.4214
 3106TIP3   OH230732   2.595   5.147   2.299 -0.0416  0.4192 -0.4118
 3106TIP3    H130733   2.586   5.133   2.205 -0.6713 -1.3177 -0.1117
 3106TIP3    H230734   2.506   5.138   2.333  0.2831  0.4150  0.4362
 3107TIP3   OH230735   1.563   4.715   3.319  0.2695 -0.1137 -0.1591
 3107TIP3    H130736   1.573   4.808   3.340  1.1705 -0.5081  1.1899
 3107TIP3    H230737   1.499   4.683   3.382 -2.4901  0.2692 -2.6627
 3108TIP3   OH230738   5.755   5.865   3.620 -0.4986  0.2366 -0.6421
 3108TIP3    H130739   5.782   5.917   3.544 -1.3375  0.2220 -0.9515
 3108TIP3    H230740   5.673   5.904   3.648  0.8371  1.5666  1.5651
 3109TIP3   OH230741   0.851   6.142  15.721 -0.2971  0.6234 -0.0689
 3109TIP3    H130742   0.781   6.207  15.717 -0.0640  0.8269 -0.6832
 3109TIP3    H230743   0.922   6.178  15.669 -0.3690 -0.3598 -0.8614
 3110TIP3   OH230744   1.352   5.922   2.482 -0.2121 -0.2975  0.3992
 3110TIP3    H130745   1.416   5.895   2.416 -0.8593  0.2649 -0.4621
 3110TIP3    H230746   1.343   5.845   2.539  0.6739 -0.6335  0.0915
 3111TIP3   OH230747   6.259   6.280   2.508  0.0758 -0.0131 -0.2181
 3111TIP3    H130748   6.354   6.278   2.499  0.2308 -0.0297  1.2884
 3111TIP3    H230749   6.226   6.238   2.429  1.3570 -1.1861 -0.1432
 3112TIP3   OH230750   6.740   5.052   1.014 -0.8408  0.9514  0.0116
 3112TIP3    H130751   6.677   5.049   0.942 -0.0177 -1.2878 -0.6339
 3112TIP3    H230752   6.717   5.132   1.062 -3.0148  1.1240 -1.2507
 3113TIP3   OH230753   0.487   4.493  15.408 -0.2759 -0.4588  0.1294
 3113TIP3    H130754   0.501   4.417  15.351 -1.2163  1.6325 -2.9678
 3113TIP3    H230755   0.392   4.507  15.406  0.1561  2.4335 -1.5125
 3114TIP3   OH230756   5.396   3.560   1.397  0.4889  0.3676  0.1327
 3114TIP3    H130757   5.384   3.617   1.473  0.7326  0.0280  0.4226
 3114TIP3    H230758   5.463   3.604   1.344  0.0086  0.8270 -0.1080
 3115TIP3   OH230759   4.374   4.746  14.121  0.4686 -0.0112 -0.2830
 3115TIP3    H130760   4.323   4.692  14.060 -1.3522  1.6067 -0.2509
 3115TIP3    H230761   4.344   4.836  14.104  1.8574  0.7470  1.1657
 3116TIP3   OH230762   5.220   5.514   0.869 -0.7029  0.2696 -0.5659
 3116TIP3    H130763   5.176   5.593   0.898  0.8303  1.4307 -1.2864
 3116TIP3    H230764   5.170   5.484   0.793 -1.3271  0.5232 -0.2497
 3117TIP3   OH230765   2.594   4.760  11.281  0.3227  0.0597 -0.2805
 3117TIP3    H130766   2.611   4.804  11.364  0.4551 -0.5832  0.0359
 3117TIP3    H230767   2.656   4.687  11.279 -1.0709 -1.1455 -0.0143
 3118TIP3   OH230768   1.192   4.963   1.649 -0.0241  0.6422  0.2741
 3118TIP3    H130769   1.260   4.899   1.669  0.0571  0.4976 -0.4528
 3118TIP3    H230770   1.183   5.014   1.729  1.2804  0.9829  0.2049
 3119TIP3   OH230771   3.763   4.397  12.709  0.8638  0.1235 -0.1934
 3119TIP3    H130772   3.743   4.314  12.666 -1.6107  0.5370  0.0848
 3119TIP3    H230773   3.749   4.379  12.802  1.4606  0.5340 -0.0253
 3120TIP3   OH230774   3.616   0.517  12.093  0.8673 -0.1522  0.3685
 3120TIP3    H130775   3.666   0.598  12.097 -0.4610  0.7358 -0.7260
 3120TIP3    H230776   3.542   0.530  12.152  0.2431 -0.2636 -0.3735
 3121TIP3   OH230777   0.637   0.586   6.594 -0.1965 -0.0346 -0.5123
 3121TIP3    H130778   0.694   0.557   6.522 -0.0771 -0.5491 -0.2097
 3121TIP3    H230779   0.566   0.633   6.550  1.2853  1.9834 -0.7930
 3122TIP3   OH230780   1.500   0.975   2.924  0.2174  0.0817 -0.4084
 3122TIP3    H130781   1.485   0.927   3.005  0.5794 -1.2005 -1.0904
 3122TIP3    H230782   1.560   1.046   2.949  1.4281 -1.1336  0.1750
 3123TIP3   OH230783   1.940   3.357  16.792 -0.1621  0.4929 -0.1057
 3123TIP3    H130784   1.956   3.269  16.760 -1.5099 -0.3397  1.4450
 3123TIP3    H230785   1.893   3.345  16.875 -1.9315  2.6692 -0.7274
 3124TIP3   OH230786   3.616   1.573   3.048 -0.3282 -0.3439 -0.3539
 3124TIP3    H130787   3.691   1.615   3.006  0.3580 -0.0062  1.1844
 3124TIP3    H230788   3.643   1.561   3.139 -2.1796 -0.1622  0.2332
 3125TIP3   OH230789   6.546   3.766  13.834 -0.1252  0.0274  0.2954
 3125TIP3    H130790   6.518   3.857  13.819 -0.4882 -0.3221 -1.3066
 3125TIP3    H230791   6.464   3.718  13.848 -0.0218 -0.2595 -0.0811
 3126TIP3   OH230792   1.229   6.157   5.491  0.2309 -0.0301 -0.0925
 3126TIP3    H130793   1.193   6.214   5.559  0.1626  0.2465 -0.3555
 3126TIP3    H230794   1.314   6.195   5.469  0.8347 -0.8798  0.7630
 3127TIP3   OH230795   5.275   2.071  11.250 -0.2418  0.2971 -0.0493
 3127TIP3    H130796   5.242   1.997  11.201 -0.7190  0.2095  0.4008
 3127TIP3    H230797   5.201   2.101  11.302 -0.1295  1.2595 -0.4378
 3128TIP3   OH230798   1.777   4.658   3.602 -0.4412 -0.4364 -0.1476
 3128TIP3    H130799   1.764   4.622   3.690 -2.2390  1.7851  0.5507
 3128TIP3    H230800   1.778   4.752   3.615 -1.5040 -0.0535 -2.5848
 3129TIP3   OH230801   1.091   2.238   3.267  0.1152 -0.2533  0.1977
 3129TIP3    H130802   1.107   2.192   3.184 -0.6628 -1.5704  0.7676
 3129TIP3    H230803   1.026   2.184   3.312 -2.2120  2.3645  0.1042
 3130TIP3   OH230804   3.249   2.332   2.168  0.0326 -0.2670 -0.0766
 3130TIP3    H130805   3.282   2.413   2.131 -1.7212  0.5788  0.1566
 3130TIP3    H230806   3.257   2.268   2.097  1.1620  0.1666 -0.3455
 3131TIP3   OH230807   5.982   0.070   2.712  0.4973  0.2404 -0.2265
 3131TIP3    H130808   5.960  -0.011   2.757  0.6115  0.2381 -0.1751
 3131TIP3    H230809   5.902   0.122   2.717 -0.3097 -0.7563 -2.2282
 3132TIP3   OH230810   2.956   4.437   2.639 -0.5289 -0.2850 -0.1254
 3132TIP3    H130811   2.931   4.511   2.584  1.5388 -0.3628 -1.2296
 3132TIP3    H230812   3.016   4.475   2.704 -1.6471 -0.5046  1.0627
 3133TIP3   OH230813   6.525   6.758  16.158  0.9328  0.4797 -0.8335
 3133TIP3    H130814   6.617   6.783  16.167  1.4804 -1.8400  0.3890
 3133TIP3    H230815   6.490   6.762  16.247  0.4528 -0.8739 -0.9564
 3134TIP3   OH230816   6.524   6.610   6.246 -0.4220  0.4252 -0.0117
 3134TIP3    H130817   6.565   6.573   6.168 -0.7711 -1.1333  0.5205
 3134TIP3    H230818   6.591   6.601   6.314 -1.1686 -0.9794  0.5628
 3135TIP3   OH230819   0.960   3.361   3.922 -0.1971  0.0401 -0.0430
 3135TIP3    H130820   1.008   3.397   3.847  0.2439  2.0298  1.1926
 3135TIP3    H230821   0.898   3.429   3.946 -1.7473 -1.4024  0.1634
 3136TIP3   OH230822   6.599   4.759  15.543 -0.6874  0.2472  0.3384
 3136TIP3    H130823   6.634   4.806  15.618 -1.6828  0.7659  0.4740
 3136TIP3    H230824   6.505   4.778  15.543 -0.7467  0.0158 -0.8596
 3137TIP3   OH230825   2.540   0.013   5.609 -0.6198 -0.4755  0.1794
 3137TIP3    H130826   2.510  -0.078   5.609 -0.1577 -0.6308 -0.0049
 3137TIP3    H230827   2.566   0.031   5.699 -2.0518 -0.0766  0.5176
 3138TIP3   OH230828   2.830   5.566  15.702  0.0282  0.3201 -0.2593
 3138TIP3    H130829   2.905   5.601  15.655  0.5887  1.0479  1.1712
 3138TIP3    H230830   2.867   5.507  15.767 -0.7321 -0.3917 -0.4438
 3139TIP3   OH230831   4.059   2.578   4.396  0.5576 -0.1873 -0.0667
 3139TIP3    H130832   4.135   2.608   4.346 -0.9812  0.1297 -2.2834
 3139TIP3    H230833   4.037   2.493   4.358 -0.7272  0.1134 -0.0205
 3140TIP3   OH230834   1.236   6.117  15.269 -0.0952 -0.6119  0.0264
 3140TIP3    H130835   1.201   6.059  15.200  0.1362 -0.9937  0.2300
 3140TIP3    H230836   1.216   6.071  15.351 -2.2142  0.7962  0.3429
 3141TIP3   OH230837   0.703   2.224   5.750  0.6895  0.3426 -0.2118
 3141TIP3    H130838   0.693   2.291   5.818 -1.0243 -0.5426  0.4431
 3141TIP3    H230839   0.652   2.259   5.676  0.1991 -0.0060 -0.0399
 3142TIP3   OH230840   2.867   0.592   2.924 -0.5228 -0.1980  0.2415
 3142TIP3    H130841   2.869   0.618   3.016 -0.7259 -0.3970  0.3035
 3142TIP3    H230842   2.828   0.666   2.878 -1.1586 -0.4152  0.4266
 3143TIP3   OH230843   2.577   4.715   1.702 -0.4449 -0.1698 -0.0320
 3143TIP3    H130844   2.607   4.751   1.618  0.9488 -2.1836 -0.4294
 3143TIP3    H230845   2.657   4.700   1.752 -1.1640 -0.5485  1.0373
 3144TIP3   OH230846   1.461   0.813   0.492 -0.1292 -0.1272  0.0713
 3144TIP3    H130847   1.406   0.735   0.501  1.4049 -1.2800 -0.2787
 3144TIP3    H230848   1.502   0.802   0.406 -0.6472  1.5821 -0.4145
 3145TIP3   OH230849   2.966   3.961  12.842 -0.1989  0.8961  0.5423
 3145TIP3    H130850   3.059   3.956  12.818 -0.5083  0.4380 -0.6027
 3145TIP3    H230851   2.920   3.921  12.768 -1.3530  1.6905  0.8177
 3146TIP3   OH230852   2.168   1.351   0.662 -0.1665  0.2082 -0.5552
 3146TIP3    H130853   2.137   1.417   0.724  0.2636 -0.7389  0.6629
 3146TIP3    H230854   2.255   1.383   0.635  0.8710 -0.8298  1.4944
 3147TIP3   OH230855   6.407   4.311  16.025 -0.5300  0.3191  0.2776
 3147TIP3    H130856   6.452   4.388  16.059  0.1950  0.6416 -1.3583
 3147TIP3    H230857   6.441   4.301  15.936 -2.3341 -0.5129 -0.3369
 3148TIP3   OH230858   1.018   2.189  15.974  0.2398  0.0791  0.0487
 3148TIP3    H130859   0.970   2.262  16.014  0.8287  1.0070 -0.8868
 3148TIP3    H230860   1.058   2.142  16.047 -0.3173  0.5864  0.6744
 3149TIP3   OH230861   6.342   6.619  15.336  0.6858  0.2545  0.3301
 3149TIP3    H130862   6.355   6.656  15.248  0.0054 -0.1731  0.0442
 3149TIP3    H230863   6.348   6.694  15.395 -0.3133  0.7678 -0.2076
 3150TIP3   OH230864   0.440   0.506  13.817  0.3089  0.4251 -0.0891
 3150TIP3    H130865   0.430   0.524  13.911  1.5333 -1.3002  0.4039
 3150TIP3    H230866   0.506   0.437  13.813 -0.5674 -0.3300 -2.1702
 3151TIP3   OH230867   2.563   2.607   4.754  0.6258  0.0518 -0.0460
 3151TIP3    H130868   2.511   2.548   4.700  0.5854 -0.1211  0.1806
 3151TIP3    H230869   2.579   2.683   4.699 -1.3818  0.8873  0.4733
 3152TIP3   OH230870   4.640   3.791   3.608  0.2527 -0.1676  0.7490
 3152TIP3    H130871   4.641   3.697   3.629  0.5806 -0.9405 -2.3817
 3152TIP3    H230872   4.732   3.812   3.591 -0.0442  0.2180 -0.4466
 3153TIP3   OH230873   2.167   2.455   2.533  0.6588 -0.2484  0.0377
 3153TIP3    H130874   2.237   2.491   2.587  0.6081  1.3961 -0.9544
 3153TIP3    H230875   2.186   2.486   2.445 -1.7703  0.9202 -0.1176
 3154TIP3   OH230876   0.183   4.126   3.385  0.2872  0.0052 -0.2934
 3154TIP3    H130877   0.164   4.189   3.315  0.6457 -0.8448 -1.1741
 3154TIP3    H230878   0.253   4.168   3.436 -0.6444  1.0559  0.1534
 3155TIP3   OH230879   6.142   3.173  14.588 -0.2676 -0.3117 -1.1594
 3155TIP3    H130880   6.123   3.082  14.611 -1.9896 -0.4367 -2.9199
 3155TIP3    H230881   6.146   3.219  14.672 -0.9711 -1.7187 -0.3340
 3156TIP3   OH230882   3.825   5.661  11.506  0.2568 -0.3360  0.3139
 3156TIP3    H130883   3.906   5.612  11.494  0.7321  0.3987  0.5337
 3156TIP3    H230884   3.828   5.730  11.440  0.0308 -0.0175  0.6311
 3157TIP3   OH230885   6.567   3.628  10.990 -0.1792  0.0290 -0.1610
 3157TIP3    H130886   6.616   3.617  11.071 -1.0003 -0.9304  0.2132
 3157TIP3    H230887   6.589   3.551  10.938  0.4974  0.7345 -0.9364
 3158TIP3   OH230888   1.535   1.746   6.715  0.1356 -0.3605  0.0372
 3158TIP3    H130889   1.485   1.721   6.637  0.5323 -2.0255  0.2889
 3158TIP3    H230890   1.495   1.696   6.786  3.1365 -3.0274 -0.0460
 3159TIP3   OH230891   0.821   3.675  13.645 -0.3453  0.2351 -1.0774
 3159TIP3    H130892   0.735   3.706  13.673 -1.0714 -2.7307  0.2319
 3159TIP3    H230893   0.811   3.658  13.551 -0.4958  2.0031 -1.3982
 3160TIP3   OH230894   3.379   6.532  13.744 -0.2012  0.9078  0.2032
 3160TIP3    H130895   3.393   6.555  13.836 -1.0905  2.5346 -0.0476
 3160TIP3    H230896   3.284   6.529  13.735 -0.1050 -0.7551 -0.3097
 3161TIP3   OH230897   5.099   5.552   1.554  0.5871 -0.2824  0.5129
 3161TIP3    H130898   5.008   5.534   1.534  0.5306  0.4947  0.0428
 3161TIP3    H230899   5.113   5.513   1.640 -0.3802  0.2066  0.9026
 3162TIP3   OH230900   0.537   1.692   5.284 -0.2886 -0.2171 -0.0363
 3162TIP3    H130901   0.543   1.645   5.367  0.6240  1.5538  0.9231
 3162TIP3    H230902   0.445   1.684   5.259 -0.9032  0.4871  1.9099
 3163TIP3   OH230903   3.034   1.593  16.948  0.2051  0.3406  0.3238
 3163TIP3    H130904   2.983   1.516  16.970  1.6494 -0.4455  1.0026
 3163TIP3    H230905   3.031   1.648  17.027 -0.6203  0.8704 -0.0720
 3164TIP3   OH230906   5.885   6.320  17.075  0.7826 -0.4591  0.0903
 3164TIP3    H130907   5.880   6.241  17.127 -0.0471  0.4948  1.4666
 3164TIP3    H230908   5.799   6.329  17.035  0.3388  0.6455  1.2702
 3165TIP3   OH230909   3.967   4.907   0.482  0.2932 -0.7697  0.3662
 3165TIP3    H130910   3.974   4.819   0.521  0.5977 -1.0650 -0.3547
 3165TIP3    H230911   3.952   4.965   0.557  0.4004 -1.3971  0.8785
 3166TIP3   OH230912   1.340   4.798  15.084 -0.2447  0.1913 -0.7179
 3166TIP3    H130913   1.369   4.776  15.173  0.1063 -1.0545 -1.1189
 3166TIP3    H230914   1.287   4.877  15.095 -2.9475 -1.7606  1.0683
 3167TIP3   OH230915   0.319   3.908   3.293  0.1692  0.0282 -0.1512
 3167TIP3    H130916   0.258   3.973   3.329  1.3158  0.3618  1.2743
 3167TIP3    H230917   0.359   3.952   3.218  0.4587  0.7298  0.4052
 3168TIP3   OH230918   0.629   0.535   6.080  0.2535 -0.3227  0.4178
 3168TIP3    H130919   0.676   0.599   6.133  1.4633 -2.9216  2.5801
 3168TIP3    H230920   0.698   0.490   6.031 -0.3515 -1.5175  0.6521
 3169TIP3   OH230921   3.284   6.032   4.293  0.2401  0.2679 -0.1481
 3169TIP3    H130922   3.217   5.995   4.351  1.1242  1.2808  1.5739
 3169TIP3    H230923   3.356   6.054   4.352  2.0682 -0.7526 -1.9714
 3170TIP3   OH230924   0.595   6.388   5.229  0.6018  0.0403  0.1746
 3170TIP3    H130925   0.549   6.465   5.264  1.7919  1.3650 -1.1057
 3170TIP3    H230926   0.533   6.349   5.167  0.5748  0.8612 -0.3204
 3171TIP3   OH230927   3.107   2.832  10.650 -0.0869  0.2053 -0.6478
 3171TIP3    H130928   3.086   2.924  10.665  2.7104  1.0825 -1.6981
 3171TIP3    H230929   3.179   2.814  10.710 -0.5508 -1.2869 -0.5240
 3172TIP3   OH230930   2.316   2.872  16.207 -0.0956  0.3612  0.1834
 3172TIP3    H130931   2.345   2.841  16.121  2.4409  0.1010  1.0694
 3172TIP3    H230932   2.276   2.957  16.189  0.2105  0.2099 -1.2926
 3173TIP3   OH230933   1.868   1.052   0.287 -0.2034 -0.3951  0.3694
 3173TIP3    H130934   1.806   0.989   0.326  1.7307 -1.6132  1.5499
 3173TIP3    H230935   1.897   1.105   0.361  2.1329 -1.5567  0.3412
 3174TIP3   OH230936   2.375   5.548  11.276  0.3216 -0.1958  0.2703
 3174TIP3    H130937   2.445   5.604  11.310 -0.2850 -1.0229  2.9917
 3174TIP3    H230938   2.338   5.507  11.354 -1.3744 -1.8965 -1.4046
 3175TIP3   OH230939   0.779   4.802   5.185 -0.0600  0.0280  0.5522
 3175TIP3    H130940   0.725   4.800   5.105  1.3637 -0.7687 -0.4148
 3175TIP3    H230941   0.798   4.710   5.202  1.6968  0.3584  0.4047
 3176TIP3   OH230942   0.940   4.854  13.862  0.0531  0.0126  0.1063
 3176TIP3    H130943   0.873   4.922  13.863  0.8257  0.7688  0.6236
 3176TIP3    H230944   0.943   4.821  13.951  0.1404 -0.2444  0.0105
 3177TIP3   OH230945   0.697   0.861  12.715 -0.1920  0.3160 -0.2846
 3177TIP3    H130946   0.702   0.766  12.706  3.8308  0.4348 -0.0419
 3177TIP3    H230947   0.700   0.877  12.810 -0.4044  0.7234 -0.3413
 3178TIP3   OH230948   5.948   1.716  17.114 -0.7604  0.8915  0.1429
 3178TIP3    H130949   5.910   1.631  17.137 -0.1502  0.1907 -1.3409
 3178TIP3    H230950   5.885   1.780  17.146 -2.0064 -0.1692 -0.1235
 3179TIP3   OH230951   0.816   0.984  15.750  0.2082  0.4080 -0.0670
 3179TIP3    H130952   0.735   1.033  15.762 -0.3855 -0.6370  0.1700
 3179TIP3    H230953   0.876   1.021  15.815  0.3402  2.0566 -1.0994
 3180TIP3   OH230954   4.626   2.233  14.532 -0.1142  0.0378  0.0600
 3180TIP3    H130955   4.702   2.175  14.542 -0.8574 -0.8500  0.6579
 3180TIP3    H230956   4.661   2.311  14.489  0.7903 -1.0733 -1.2633
 3181TIP3   OH230957   4.903   1.833   2.765 -0.0169 -0.1784 -0.3492
 3181TIP3    H130958   4.826   1.846   2.820 -0.6085 -0.3726 -1.1225
 3181TIP3    H230959   4.896   1.899   2.696  1.2939  0.7824  0.4259
 3182TIP3   OH230960   6.298   3.311   1.783  0.5169 -0.4750 -0.3188
 3182TIP3    H130961   6.321   3.359   1.863  0.2291  0.1838 -0.6318
 3182TIP3    H230962   6.379   3.270   1.755  0.9297  0.4384 -0.4633
 3183TIP3   OH230963   3.933   5.348  14.442 -0.7802 -0.0021  0.1686
 3183TIP3    H130964   3.987   5.346  14.521  0.8074 -1.0933 -0.9161
 3183TIP3    H230965   3.869   5.278  14.455 -0.6779 -0.0173  0.5970
 3184TIP3   OH230966   1.903   1.820  16.566 -0.3655 -0.3079 -0.0952
 3184TIP3    H130967   1.823   1.826  16.513  0.0650 -0.1041 -0.7323
 3184TIP3    H230968   1.925   1.727  16.565  0.1817 -0.1764 -1.0947
 3185TIP3   OH230969   6.568   2.277   2.789  0.6573 -0.1787 -0.3755
 3185TIP3    H130970   6.583   2.289   2.695 -0.2588  0.0702 -0.4976
 3185TIP3    H230971   6.579   2.183   2.803  1.3169 -0.1392 -0.6423
 3186TIP3   OH230972   2.825   0.383  13.844  0.1649 -0.1866  0.1304
 3186TIP3    H130973   2.871   0.443  13.785  1.2421 -1.0515  0.0799
 3186TIP3    H230974   2.880   0.305  13.847 -0.5453 -0.6579  1.2581
 3187TIP3   OH230975   6.360   3.005   0.190  0.1693 -0.8159 -0.5172
 3187TIP3    H130976   6.382   3.017   0.098 -0.5706  0.3695 -0.5543
 3187TIP3    H230977   6.290   2.940   0.190 -0.4054 -0.2076 -0.8675
 3188TIP3   OH230978   1.753   5.920   2.210  0.1936  0.3429 -0.4149
 3188TIP3    H130979   1.774   5.906   2.118  0.7231 -2.3001  0.0689
 3188TIP3    H230980   1.660   5.898   2.218  0.3881 -0.4238 -0.1570
 3189TIP3   OH230981   0.190   0.030   0.974 -0.3945 -0.2099 -0.1642
 3189TIP3    H130982   0.231   0.113   0.999 -0.2589 -0.1222 -0.6694
 3189TIP3    H230983   0.184  -0.019   1.056 -1.2004  0.6061  0.2802
 3190TIP3   OH230984   2.586   4.994   5.882  0.7241 -0.2784 -0.7856
 3190TIP3    H130985   2.553   4.952   5.803  0.9819 -1.0443 -0.4930
 3190TIP3    H230986   2.661   5.046   5.853  1.4390 -1.3512 -0.8932
 3191TIP3   OH230987   1.843   3.601  14.133  0.3456  0.0914  0.2407
 3191TIP3    H130988   1.861   3.611  14.226 -0.0943 -1.9588  0.5774
 3191TIP3    H230989   1.757   3.558  14.130  0.4293 -0.0069 -1.1200
 3192TIP3   OH230990   1.453   5.737   5.656  0.4657 -0.3193 -0.6047
 3192TIP3    H130991   1.420   5.685   5.729 -1.8000  0.9226 -0.6811
 3192TIP3    H230992   1.540   5.767   5.684 -0.0703 -0.4693  1.2830
 3193TIP3   OH230993   3.266   1.156  16.384  0.1560 -0.4054 -0.1371
 3193TIP3    H130994   3.260   1.126  16.294 -1.5101  0.8613 -0.4919
 3193TIP3    H230995   3.346   1.209  16.387 -0.2377  0.2654 -1.1125
 3194TIP3   OH230996   2.718   2.347   3.619 -0.3913 -0.3240 -0.0142
 3194TIP3    H130997   2.707   2.253   3.612 -0.7947 -0.2147 -0.9754
 3194TIP3    H230998   2.634   2.383   3.588 -0.0574  0.3573 -0.1330
 3195TIP3   OH230999   3.938   0.860   0.071 -0.3566  0.1596 -0.1456
 3195TIP3    H131000   3.941   0.935   0.130  0.7095 -1.0374  1.3559
 3195TIP3    H231001   4.029   0.839   0.054 -0.6159 -1.8137  0.7883
 3196TIP3   OH231002   5.437   0.959  17.159  0.0474 -0.4177 -0.1999
 3196TIP3    H131003   5.400   0.877  17.193 -1.0673 -0.4237 -1.3861
 3196TIP3    H231004   5.531   0.943  17.156 -0.0271 -1.1505  0.8972
 3197TIP3   OH231005   2.063   1.769  15.148  0.1943 -0.9617 -0.6362
 3197TIP3    H131006   1.995   1.792  15.211  2.3490 -1.1519  1.8777
 3197TIP3    H231007   2.115   1.848  15.138  1.1157 -1.5421 -0.5384
 3198TIP3   OH231008   3.150   6.153  14.441  0.2417  0.2953  0.0184
 3198TIP3    H131009   3.216   6.177  14.375  0.5060 -1.0872 -0.2237
 3198TIP3    H231010   3.181   6.071  14.478 -1.7942 -0.8550 -0.7428
 3199TIP3   OH231011   5.380   1.803   4.695 -0.7086  0.1709  0.1784
 3199TIP3    H131012   5.294   1.844   4.706  0.8187  3.7577 -0.5030
 3199TIP3    H231013   5.387   1.786   4.601  0.1043  1.8151 -0.0817
 3200TIP3   OH231014   0.206   4.120   6.961 -0.0572 -0.1064  0.4068
 3200TIP3    H131015   0.291   4.078   6.948  0.1891  0.5368 -0.1365
 3200TIP3    H231016   0.227   4.211   6.985 -0.5809  0.0263  0.3819
 3201TIP3   OH231017   5.028   0.542   1.485 -0.7556  0.1404  0.1895
 3201TIP3    H131018   5.122   0.547   1.503 -0.8146  1.4429  0.1811
 3201TIP3    H231019   5.018   0.465   1.429  0.6119  1.4275 -1.8559
 3202TIP3   OH231020   3.966   6.317  17.194 -0.0730 -0.1462  0.0194
 3202TIP3    H131021   3.930   6.240  17.149  2.6445 -2.4032  1.5819
 3202TIP3    H231022   3.913   6.324  17.274 -2.3833  1.5611 -1.5979
 3203TIP3   OH231023   3.456   5.960  14.921  0.3086 -0.2455 -1.0555
 3203TIP3    H131024   3.484   5.949  15.012 -0.0116 -0.6133 -1.0003
 3203TIP3    H231025   3.385   5.898  14.910 -0.1805  0.3575 -1.3298
 3204TIP3   OH231026   4.944   6.346   2.800 -0.0802 -0.2624  0.3712
 3204TIP3    H131027   4.895   6.265   2.816 -0.4406 -0.0032  0.5730
 3204TIP3    H231028   4.914   6.406   2.868 -1.2206  0.6731 -0.9592
 3205TIP3   OH231029   6.238   6.396   4.234  0.8824  0.7899 -0.5711
 3205TIP3    H131030   6.210   6.317   4.186  0.4615  1.3647 -1.2964
 3205TIP3    H231031   6.234   6.371   4.326 -0.1259  0.2283 -0.7528
 3206TIP3   OH231032   1.180   2.407  16.418  0.5327 -0.4872  0.2023
 3206TIP3    H131033   1.123   2.482  16.402  0.1267 -1.2369 -2.0087
 3206TIP3    H231034   1.154   2.375  16.504 -1.9338 -0.3982 -0.4852
 3207TIP3   OH231035   2.138   6.585  13.482 -0.1320  0.4120  0.1395
 3207TIP3    H131036   2.047   6.611  13.495 -0.1650 -0.2901  1.4881
 3207TIP3    H231037   2.165   6.629  13.402 -1.7484  0.3995 -0.4361
 3208TIP3   OH231038   5.963   5.307  15.560 -0.3893  0.3736  0.7882
 3208TIP3    H131039   5.873   5.338  15.550 -0.7947 -0.6067  1.2553
 3208TIP3    H231040   5.960   5.250  15.638  0.6920  0.5604  0.9749
 3209TIP3   OH231041   6.310   3.187   1.155 -0.6232 -0.1946 -0.1190
 3209TIP3    H131042   6.392   3.178   1.108 -0.0224 -1.1458  1.0879
 3209TIP3    H231043   6.287   3.098   1.182 -1.0782  0.2948  1.1711
 3210TIP3   OH231044   0.897   3.998  17.181  0.8429  0.7677 -0.0316
 3210TIP3    H131045   0.986   3.982  17.212  1.0288  1.4711 -0.1919
 3210TIP3    H231046   0.846   4.013  17.261  0.6809 -0.5459  0.1142
 3211TIP3   OH231047   3.752   2.556   0.735 -0.2842 -0.2511 -0.8546
 3211TIP3    H131048   3.668   2.520   0.706 -0.6383  0.3009 -0.5262
 3211TIP3    H231049   3.766   2.632   0.679 -0.2646 -0.0262 -0.5431
 3212TIP3   OH231050   4.116   3.427   5.753 -0.0148 -0.0759 -0.2029
 3212TIP3    H131051   4.075   3.493   5.810  0.5001  1.0232 -1.0871
 3212TIP3    H231052   4.165   3.478   5.689 -0.5844 -1.3041 -1.6427
 3213TIP3   OH231053   0.922   4.059   4.570 -0.0375 -0.3352  0.2641
 3213TIP3    H131054   0.840   4.088   4.529 -1.0972 -0.1740  2.4222
 3213TIP3    H231055   0.985   4.128   4.548 -0.5084 -0.4070 -1.3265
 3214TIP3   OH231056   2.054   1.534   0.068 -0.7325  0.4845  0.1497
 3214TIP3    H131057   2.109   1.459   0.093 -0.6719  0.8727  1.2287
 3214TIP3    H231058   2.112   1.591   0.017  0.0629  1.1903  1.8143
 3215TIP3   OH231059   3.043   2.282  16.043  0.3677  0.3236 -0.2997
 3215TIP3    H131060   3.112   2.229  16.082  0.3169  1.6165  1.6039
 3215TIP3    H231061   2.981   2.218  16.008  1.1382 -0.8710  0.4618
 3216TIP3   OH231062   1.491   5.847   2.182 -0.8670  0.1187 -0.4195
 3216TIP3    H131063   1.420   5.893   2.138 -0.7649  0.9231  0.2215
 3216TIP3    H231064   1.493   5.760   2.143  0.4435  1.4179 -3.3510
 3217TIP3   OH231065   4.690   6.233   5.318  0.8412 -0.3157  0.0328
 3217TIP3    H131066   4.774   6.258   5.356  1.3252 -1.9796  0.0826
 3217TIP3    H231067   4.666   6.308   5.263  0.5282  1.7903  2.9051
 3218TIP3   OH231068   5.456   1.292   2.113 -0.4350 -0.3698 -0.6233
 3218TIP3    H131069   5.473   1.201   2.092 -0.0515  0.0319 -2.0781
 3218TIP3    H231070   5.363   1.306   2.091  0.2449  0.3343 -3.1168
 3219TIP3   OH231071   3.035   6.581   3.698  0.2073 -0.1667 -0.4709
 3219TIP3    H131072   3.104   6.517   3.680 -0.1873 -0.9116  0.6326
 3219TIP3    H231073   2.963   6.555   3.641 -0.0214 -0.8167  0.1182
 3220TIP3   OH231074   5.661   3.232  13.697 -0.0367  0.0428  0.0395
 3220TIP3    H131075   5.736   3.247  13.640  1.2977 -1.5429  1.3145
 3220TIP3    H231076   5.662   3.306  13.758  1.1004 -0.4947  0.6807
 3221TIP3   OH231077   4.743   0.544  15.967 -0.0832 -0.5070 -0.2701
 3221TIP3    H131078   4.688   0.592  15.905  0.1227 -0.2867 -0.2836
 3221TIP3    H231079   4.681   0.509  16.031 -0.2747 -0.5598 -0.4847
 3222TIP3   OH231080   3.382   0.029   5.106  0.2546  0.1781  0.1599
 3222TIP3    H131081   3.315   0.096   5.090 -0.3487 -0.1575  1.2103
 3222TIP3    H231082   3.379  -0.026   5.028 -0.3075  0.4949 -0.0520
 3223TIP3   OH231083   5.226   3.463   3.567  0.0041  0.4205  0.2413
 3223TIP3    H131084   5.220   3.414   3.486  0.6279  0.7401 -0.0037
 3223TIP3    H231085   5.265   3.402   3.630 -0.8200  0.0541  0.4097
 3224TIP3   OH231086   2.822   5.978  13.333 -0.2444  0.0373  0.5826
 3224TIP3    H131087   2.830   5.882  13.338 -0.8076 -0.1025 -0.9443
 3224TIP3    H231088   2.737   5.993  13.293 -0.6305  1.2189  1.8009
 3225TIP3   OH231089   5.511   4.714   1.967 -0.3449  0.1337 -0.6580
 3225TIP3    H131090   5.466   4.784   2.015  2.1245  0.3916  1.4206
 3225TIP3    H231091   5.456   4.637   1.980 -0.6896  0.6392  1.0524
 3226TIP3   OH231092   4.534   5.072   2.114  0.2168  0.6493  0.1315
 3226TIP3    H131093   4.510   5.147   2.059 -1.5918  0.9378  1.2574
 3226TIP3    H231094   4.475   5.002   2.085 -1.6970  1.1979  2.5770
 3227TIP3   OH231095   3.673   5.678   1.339  0.0730 -0.2241 -0.1378
 3227TIP3    H131096   3.695   5.586   1.324 -1.9350 -0.7087 -0.1667
 3227TIP3    H231097   3.632   5.679   1.425  1.2756  0.8639  0.4432
 3228TIP3   OH231098   4.198   3.597  13.598 -0.0182  0.4553  0.9250
 3228TIP3    H131099   4.223   3.589  13.690  3.5600  0.7072  0.0502
 3228TIP3    H231100   4.185   3.507  13.568  2.1008  0.1551  0.8565
 3229TIP3   OH231101   0.231   6.585   1.121 -0.3191 -0.3271  0.3767
 3229TIP3    H131102   0.316   6.586   1.164 -0.0894 -0.0345 -0.0911
 3229TIP3    H231103   0.189   6.505   1.154 -0.0121 -0.2790  0.8872
 3230TIP3   OH231104   2.155   3.848   1.361 -0.0688  0.1539  0.2692
 3230TIP3    H131105   2.176   3.876   1.450  0.3110  2.5665 -0.5229
 3230TIP3    H231106   2.060   3.858   1.354  0.2174  2.7213 -0.4394
 3231TIP3   OH231107   0.940   1.943  11.410 -0.5821  0.5881  0.3379
 3231TIP3    H131108   1.029   1.911  11.399 -0.6307 -0.0038  1.4972
 3231TIP3    H231109   0.918   1.986  11.328 -0.4074 -2.1381 -1.1956
 3232TIP3   OH231110   6.718   3.799   1.341  0.3563  0.3793  0.0539
 3232TIP3    H131111   6.689   3.708   1.346  1.0075  0.1614 -0.1036
 3232TIP3    H231112   6.740   3.823   1.432 -0.5052  0.6079  0.2022
 3233TIP3   OH231113   3.801   0.903   4.883 -0.4646 -0.1115  0.0426
 3233TIP3    H131114   3.798   0.943   4.969 -1.7861  0.5835 -0.3051
 3233TIP3    H231115   3.709   0.899   4.855 -0.1397 -1.1899 -0.9314
 3234TIP3   OH231116   2.919   4.329   4.557 -0.6843 -0.1209  0.0316
 3234TIP3    H131117   2.920   4.345   4.652 -1.3183  0.4470 -0.0530
 3234TIP3    H231118   2.986   4.387   4.522  0.0168 -0.8206  0.2031
 3235TIP3   OH231119   0.896   4.080   0.375  0.9934 -0.1749 -0.1929
 3235TIP3    H131120   0.892   4.103   0.282  0.8759  0.4858 -0.0235
 3235TIP3    H231121   0.846   4.148   0.419 -0.9012 -1.7607  0.1391
 3236TIP3   OH231122   2.773   1.304   0.722 -0.1019 -0.0248  0.0565
 3236TIP3    H131123   2.718   1.369   0.765 -1.0847 -1.2658  0.6980
 3236TIP3    H231124   2.785   1.235   0.788  1.7127 -0.0476 -0.2836
 3237TIP3   OH231125   4.069   4.210   0.372 -0.5325  0.2690  0.0345
 3237TIP3    H131126   4.000   4.155   0.335 -1.0723  1.8706 -1.4535
 3237TIP3    H231127   4.150   4.173   0.337 -0.8340 -0.0416 -0.3509
 3238TIP3   OH231128   5.455   5.221  11.331  0.0792 -0.2705  0.2250
 3238TIP3    H131129   5.527   5.173  11.371 -0.7833 -0.9842  0.9469
 3238TIP3    H231130   5.430   5.167  11.256 -0.5685 -0.7061  0.7499
 3239TIP3   OH231131   6.242   5.045  15.352 -0.3317  0.7192 -0.0143
 3239TIP3    H131132   6.210   4.956  15.372  1.8945 -0.5356 -1.8331
 3239TIP3    H231133   6.163   5.094  15.330 -1.4939 -1.0967  0.0030
 3240TIP3   OH231134   5.428   4.915  15.194  0.2306  0.0336 -0.1292
 3240TIP3    H131135   5.368   4.988  15.208  0.2895 -0.0547  0.5998
 3240TIP3    H231136   5.488   4.918  15.269  0.2236 -0.7666 -0.0843
 3241TIP3   OH231137   0.611   0.449  17.032  0.1935 -0.4334 -0.0208
 3241TIP3    H131138   0.666   0.522  17.061  0.5333 -0.7828  0.2117
 3241TIP3    H231139   0.568   0.482  16.953 -0.0108  0.1814  0.3503
 3242TIP3   OH231140   2.315   4.406  16.185  0.1807  0.4659 -0.0857
 3242TIP3    H131141   2.343   4.352  16.111  0.8686  0.1052  0.4296
 3242TIP3    H231142   2.236   4.364  16.217  0.7297 -0.2486  0.3294
 3243TIP3   OH231143   2.766   4.989   2.895 -0.3382 -0.0415  0.0304
 3243TIP3    H131144   2.817   5.066   2.874 -0.5236 -0.0631 -0.4970
 3243TIP3    H231145   2.715   4.971   2.816  0.2566 -1.1374 -0.1208
 3244TIP3   OH231146   3.102   2.132   1.622 -0.3917  0.2194  0.7358
 3244TIP3    H131147   3.106   2.226   1.637 -1.5349  0.3161  0.4945
 3244TIP3    H231148   3.012   2.108   1.647 -0.4024 -0.6411 -0.1189
 3245TIP3   OH231149   3.840   4.927   5.968 -0.3648  0.2508 -0.4840
 3245TIP3    H131150   3.853   4.953   6.059  0.9192 -0.7941 -0.3574
 3245TIP3    H231151   3.757   4.969   5.943  0.3281  2.2519  0.4935
 3246TIP3   OH231152   0.819   4.089  11.348  0.6824 -0.4003 -0.1044
 3246TIP3    H131153   0.825   4.154  11.419 -2.0748 -0.7784  0.5088
 3246TIP3    H231154   0.877   4.124  11.280 -0.1312  2.3199  0.5176
 3247TIP3   OH231155   3.870   1.682  12.702 -0.2630 -0.1945  0.1379
 3247TIP3    H131156   3.932   1.722  12.762  0.3437 -1.8453  0.6617
 3247TIP3    H231157   3.786   1.688  12.747 -0.4648  1.9178 -0.5092
 3248TIP3   OH231158   3.132   1.263   0.826  0.1496 -0.2846 -0.5888
 3248TIP3    H131159   3.104   1.211   0.750 -0.8332  0.5056 -0.7890
 3248TIP3    H231160   3.203   1.317   0.793 -0.3225  0.1070 -0.9783
 3249TIP3   OH231161   3.384   2.118  15.512 -0.3810 -0.0273  0.8139
 3249TIP3    H131162   3.347   2.132  15.425  0.7187 -1.1907  0.1396
 3249TIP3    H231163   3.417   2.204  15.538 -0.7904  0.3473  0.1219
 3250TIP3   OH231164   3.762   1.792  12.455 -0.4397  0.0718  0.6523
 3250TIP3    H131165   3.797   1.743  12.529  0.1296 -0.3623  0.1004
 3250TIP3    H231166   3.794   1.745  12.378  2.9889  3.2119  0.0149
 3251TIP3   OH231167   4.647   0.696   4.292 -0.2232  0.4000 -0.5449
 3251TIP3    H131168   4.580   0.756   4.326  1.0098  0.7862  1.2761
 3251TIP3    H231169   4.598   0.630   4.244 -1.6403  2.7779 -2.4760
 3252TIP3   OH231170   2.227   5.288   0.803 -0.1089  0.5485  0.0576
 3252TIP3    H131171   2.168   5.315   0.733  1.1087  2.5106 -0.2558
 3252TIP3    H231172   2.275   5.214   0.767  0.6408  1.6679 -1.2723
 3253TIP3   OH231173   4.557   3.747  11.667  0.0649  0.1499  0.1343
 3253TIP3    H131174   4.557   3.833  11.708  0.8340 -0.4670  1.4676
 3253TIP3    H231175   4.645   3.712  11.684 -0.4429 -1.1465  0.1865
 3254TIP3   OH231176   3.074   2.001  12.609 -0.4613 -0.2355 -0.2478
 3254TIP3    H131177   3.010   2.002  12.538  1.0111  0.2888 -1.5977
 3254TIP3    H231178   3.147   2.054  12.577  1.6578 -2.7106  0.3021
 3255TIP3   OH231179   6.698   5.293   4.646  0.1951  0.2427  0.0682
 3255TIP3    H131180   6.632   5.235   4.683  0.8894 -1.0242 -0.6726
 3255TIP3    H231181   6.656   5.379   4.646 -0.6325 -0.1280  1.7018
 3256TIP3   OH231182   6.304   0.247  15.806 -0.0957  0.4396  0.3020
 3256TIP3    H131183   6.290   0.246  15.900  0.1733  1.9834  0.3668
 3256TIP3    H231184   6.224   0.283  15.769 -0.0623  0.1745 -0.0363
 3257TIP3   OH231185   3.594   0.571  13.822 -0.9260 -0.2938 -0.3527
 3257TIP3    H131186   3.612   0.498  13.882 -1.2704 -0.5558 -0.5668
 3257TIP3    H231187   3.550   0.637  13.877  1.5994  0.7952  0.4320
 3258TIP3   OH231188   3.774   5.006  15.306  0.4751  0.3894 -0.1017
 3258TIP3    H131189   3.691   4.985  15.262  0.7556 -0.4851 -0.2334
 3258TIP3    H231190   3.791   5.097  15.283 -1.5709  1.2844  1.7116
 3259TIP3   OH231191   6.491   3.554  13.043  0.6437  0.2909 -0.4386
 3259TIP3    H131192   6.486   3.459  13.052  0.4545  0.3402 -0.0094
 3259TIP3    H231193   6.406   3.579  13.008  0.3110  0.4115  0.4446
 3260TIP3   OH231194   4.783   3.289  16.213  0.6365 -0.1480  0.4482
 3260TIP3    H131195   4.704   3.277  16.266 -0.5296  0.9012 -1.0281
 3260TIP3    H231196   4.771   3.374  16.171  1.1171 -1.3837 -2.2518
 3261TIP3   OH231197   2.509   1.760   0.544  0.7334  0.4961 -0.5456
 3261TIP3    H131198   2.585   1.772   0.488  1.5494  0.6261  0.5757
 3261TIP3    H231199   2.517   1.828   0.611 -0.1805  0.2985 -0.2201
 3262TIP3   OH231200   3.115   0.919   3.883  0.3454  0.5803  0.8512
 3262TIP3    H131201   3.097   0.923   3.789  0.5893 -0.2650  0.7676
 3262TIP3    H231202   3.064   0.991   3.920 -0.2527  0.5215  0.1537
 3263TIP3   OH231203   2.112   0.739   3.605 -0.1096  0.9688  0.0899
 3263TIP3    H131204   2.116   0.644   3.597  0.9752  1.0180  0.0529
 3263TIP3    H231205   2.167   0.759   3.681 -0.1064  1.5886 -0.0729
 3264TIP3   OH231206   5.835   5.798  17.146  0.5263 -0.0973  0.5800
 3264TIP3    H131207   5.904   5.835  17.091 -0.2109  1.2048  0.4991
 3264TIP3    H231208   5.839   5.849  17.227 -1.1884  0.8986  0.0676
 3265TIP3   OH231209   4.662   0.459   5.796 -0.6779 -0.6279 -0.4491
 3265TIP3    H131210   4.644   0.546   5.833 -1.1951 -0.2659 -1.5124
 3265TIP3    H231211   4.733   0.425   5.849 -0.9375  0.1594  0.4332
 3266TIP3   OH231212   6.025   2.767  15.808  0.3925  0.3254 -0.0690
 3266TIP3    H131213   6.052   2.791  15.897 -0.4117 -0.9090  0.5228
 3266TIP3    H231214   6.089   2.702  15.780  1.4007  1.6349 -0.9118
 3267TIP3   OH231215   2.821   5.236   0.032 -0.0297 -0.0997  0.3058
 3267TIP3    H131216   2.898   5.186   0.058  0.9968 -0.0370 -2.5561
 3267TIP3    H231217   2.848   5.328   0.041 -0.6386 -0.0509  1.7811
 3268TIP3   OH231218   2.529   2.614  14.493 -0.0669  0.3118  0.0411
 3268TIP3    H131219   2.599   2.621  14.428 -0.1104 -1.0156 -0.1658
 3268TIP3    H231220   2.539   2.691  14.547  0.2371  1.2233 -1.2879
 3269TIP3   OH231221   5.847   5.396   2.991 -0.4355 -0.0026 -0.5251
 3269TIP3    H131222   5.927   5.389   2.939  0.3681 -0.6185  0.7701
 3269TIP3    H231223   5.873   5.368   3.079 -2.0259 -0.0158 -0.0431
 3270TIP3   OH231224   3.445   1.437   6.623 -0.1376  0.6696  0.1349
 3270TIP3    H131225   3.519   1.497   6.624  0.4521 -0.0409  1.4610
 3270TIP3    H231226   3.389   1.468   6.552  0.6284  2.1904  0.1776
 3271TIP3   OH231227   5.085   4.486  10.628 -0.6926 -0.0809 -0.5283
 3271TIP3    H131228   5.038   4.433  10.564 -0.5787 -0.8548  0.0205
 3271TIP3    H231229   5.168   4.440  10.642  0.0741  1.0811 -1.2127
 3272TIP3   OH231230   5.528   3.749  14.083  0.2348 -0.3468 -0.2909
 3272TIP3    H131231   5.575   3.754  14.166  0.6974  0.4418 -0.5928
 3272TIP3    H231232   5.576   3.808  14.025 -0.8365  0.0817 -0.7507
 3273TIP3   OH231233   0.559   3.861  15.021  0.1661  0.3571  0.3935
 3273TIP3    H131234   0.475   3.895  15.054  0.2534  0.8912  0.0798
 3273TIP3    H231235   0.571   3.906  14.938  0.9490  0.5502  0.6140
 3274TIP3   OH231236   0.649   0.320  13.762  0.6331 -0.3403 -0.0237
 3274TIP3    H131237   0.691   0.273  13.691  0.5223  0.5777 -0.7122
 3274TIP3    H231238   0.587   0.258  13.800 -0.3411 -0.3865 -1.6459
 3275TIP3   OH231239   6.127   1.071  12.556  0.0336 -0.3636 -0.0756
 3275TIP3    H131240   6.193   1.108  12.615 -0.7221  0.8322  0.0408
 3275TIP3    H231241   6.161   1.087  12.468  0.0459 -0.0164 -0.0080
 3276TIP3   OH231242   0.513   2.115  15.989  0.6301  0.4024  0.0095
 3276TIP3    H131243   0.546   2.083  15.905 -3.9112  0.1771 -1.8444
 3276TIP3    H231244   0.421   2.088  15.991  0.2865  1.4044  4.5744
 3277TIP3   OH231245   4.751   5.612  14.249 -0.7187  0.2208 -0.1152
 3277TIP3    H131246   4.690   5.686  14.247 -1.8467 -0.6485  1.7422
 3277TIP3    H231247   4.797   5.618  14.165 -3.2847  0.9362 -1.5221
 3278TIP3   OH231248   2.156   6.612   0.467  0.2293 -0.0670  0.3559
 3278TIP3    H131249   2.126   6.573   0.549  2.1142 -0.5989  0.8206
 3278TIP3    H231250   2.189   6.537   0.416 -0.3850  0.3379 -0.6549
 3279TIP3   OH231251   2.266   5.067   4.705 -0.0805  0.1577  0.0681
 3279TIP3    H131252   2.256   5.056   4.800 -0.0329 -1.1284 -0.0651
 3279TIP3    H231253   2.177   5.069   4.671 -0.1291  1.5649  0.2197
 3280TIP3   OH231254   2.520   1.760  11.718  0.5471  0.6468 -0.4425
 3280TIP3    H131255   2.510   1.677  11.765  0.9799  0.2364 -1.0685
 3280TIP3    H231256   2.543   1.823  11.787  0.0793  0.2784  0.0563
 3281TIP3   OH231257   1.348   1.498   2.309  0.3063 -0.4388 -0.4603
 3281TIP3    H131258   1.344   1.415   2.262 -1.8045 -0.6645  0.0617
 3281TIP3    H231259   1.260   1.535   2.301  0.5275  0.5835  1.3813
 3282TIP3   OH231260   2.061   1.348   3.830 -0.3062 -0.1666  0.0079
 3282TIP3    H131261   2.109   1.422   3.793 -0.7703  0.7344  1.1905
 3282TIP3    H231262   2.101   1.333   3.916 -0.9468 -0.5712  0.2425
 3283TIP3   OH231263   1.940   5.582   3.382  0.5259  0.4498 -0.6728
 3283TIP3    H131264   1.861   5.528   3.377  0.4888  0.5347 -1.0887
 3283TIP3    H231265   1.984   5.554   3.462  1.0253 -0.9191 -1.4099
 3284TIP3   OH231266   1.716   3.995   0.967  0.2879 -0.2154  0.8892
 3284TIP3    H131267   1.730   4.089   0.981  0.4294 -0.2404  0.9125
 3284TIP3    H231268   1.622   3.988   0.948  0.4512  0.0328 -0.0330
 3285TIP3   OH231269   4.843   5.090  13.351 -0.1319 -0.2085  0.2905
 3285TIP3    H131270   4.832   5.036  13.430 -0.5095  1.8189  1.6822
 3285TIP3    H231271   4.931   5.128  13.361 -0.6273  0.9446  0.3198
 3286TIP3   OH231272   3.969   1.111   5.153  0.0280  0.3347  0.1770
 3286TIP3    H131273   4.051   1.159   5.162  0.6177 -0.1592 -2.1374
 3286TIP3    H231274   3.992   1.020   5.172  0.3017  0.0141 -1.5771
 3287TIP3   OH231275   1.438   4.976   0.031 -0.1289  0.1532 -0.3233
 3287TIP3    H131276   1.355   4.990   0.075 -0.6392 -2.3166 -0.4402
 3287TIP3    H231277   1.415   4.937  -0.053  1.0690  1.1099 -1.1304
 3288TIP3   OH231278   5.351   4.269  15.287  0.4383  0.5023 -0.5214
 3288TIP3    H131279   5.354   4.323  15.208 -1.0929  0.7186 -0.4470
 3288TIP3    H231280   5.307   4.325  15.352 -1.6284 -1.0254 -0.5860
 3289TIP3   OH231281   0.243   5.075   1.048 -0.0017 -0.0623 -0.3279
 3289TIP3    H131282   0.235   5.038   1.136 -0.0894  0.5002 -0.1009
 3289TIP3    H231283   0.152   5.082   1.017 -0.0282  0.6028 -0.1056
 3290TIP3   OH231284   3.841   1.972  14.805  0.2936 -0.8225  0.2501
 3290TIP3    H131285   3.815   1.989  14.715 -1.7194 -0.0603  0.9374
 3290TIP3    H231286   3.855   2.059  14.843  0.8934 -1.1258  0.7350
 3291TIP3   OH231287   1.576   1.265   3.370  0.2758 -0.2316 -0.0937
 3291TIP3    H131288   1.562   1.175   3.400 -1.1124 -0.7307 -2.1414
 3291TIP3    H231289   1.537   1.267   3.282  1.3237  2.0581 -0.5263
 3292TIP3   OH231290   4.389   6.437  14.072 -0.1902 -0.2223  0.1435
 3292TIP3    H131291   4.415   6.346  14.084 -2.0255 -0.7497  0.2494
 3292TIP3    H231292   4.402   6.477  14.158  0.9630 -0.2788  0.0066
 3293TIP3   OH231293   2.871   2.620  16.697 -0.0246 -0.2314 -0.6391
 3293TIP3    H131294   2.820   2.621  16.778  0.9750  1.2542 -0.0011
 3293TIP3    H231295   2.807   2.602  16.628 -1.0842 -0.3037  0.3506
 3294TIP3   OH231296   6.477   5.294  14.734  0.2058  0.4195  0.0233
 3294TIP3    H131297   6.569   5.271  14.742  0.6184  2.2676  0.6842
 3294TIP3    H231298   6.467   5.374  14.785 -1.4620  1.0425 -1.2245
 3295TIP3   OH231299   2.323   5.565  12.602  0.4243 -0.4639 -0.4479
 3295TIP3    H131300   2.282   5.646  12.630  0.2434 -1.8897  3.7149
 3295TIP3    H231301   2.255   5.521  12.551 -0.3631  0.8289 -0.5323
 3296TIP3   OH231302   2.896   0.283  13.534  0.0190 -0.3778  0.3589
 3296TIP3    H131303   2.947   0.325  13.603 -0.5300  1.1046 -0.1259
 3296TIP3    H231304   2.873   0.197  13.571 -0.1022  0.3211  1.9479
 3297TIP3   OH231305   1.280   4.736   2.874  0.4824  0.2186  0.0593
 3297TIP3    H131306   1.343   4.702   2.936  1.3566  1.1912 -0.2826
 3297TIP3    H231307   1.247   4.817   2.914 -0.8613 -0.4980  0.4295
 3298TIP3   OH231308   0.477   2.358   1.160 -0.1900  0.0304  0.1479
 3298TIP3    H131309   0.457   2.286   1.220 -0.0762  0.0693  0.2326
 3298TIP3    H231310   0.394   2.406   1.151  0.0818  0.7033  1.1823
 3299TIP3   OH231311   2.262   5.521  16.367  0.2808  0.0860  0.4792
 3299TIP3    H131312   2.201   5.451  16.393 -2.7457  2.3857 -0.1060
 3299TIP3    H231313   2.272   5.509  16.273 -1.0417  0.9747  0.2021
 3300TIP3   OH231314   2.912   1.952  11.822 -0.6201 -0.0218  0.0730
 3300TIP3    H131315   2.998   1.924  11.854 -1.0611  0.8185  2.1042
 3300TIP3    H231316   2.871   1.872  11.790 -0.6459 -1.2186  2.9221
 3301TIP3   OH231317   0.204   6.257  12.016 -0.0734 -0.3102 -0.0988
 3301TIP3    H131318   0.200   6.345  12.052  2.1555  0.4322 -1.5626
 3301TIP3    H231319   0.285   6.220  12.053  0.8829 -0.4522 -2.2803
 3302TIP3   OH231320   1.381   5.431   4.903 -0.1049  0.2052  0.3045
 3302TIP3    H131321   1.398   5.469   4.989  0.7212  0.2260  0.1301
 3302TIP3    H231322   1.422   5.491   4.841 -2.9885  1.6497 -0.3119
 3303TIP3   OH231323   2.032   3.710  13.173 -0.3410 -0.2098  0.1815
 3303TIP3    H131324   2.097   3.737  13.108 -0.3595  0.3056  0.3765
 3303TIP3    H231325   2.076   3.721  13.257 -1.0227  1.1362  0.3700
 3304TIP3   OH231326   0.468   2.277  11.244  0.3435 -0.7812 -0.2072
 3304TIP3    H131327   0.541   2.259  11.184  1.2070  0.3424  0.4961
 3304TIP3    H231328   0.412   2.338  11.196 -0.2949 -1.8652 -0.8602
 3305TIP3   OH231329   3.304   4.547  10.541  0.3196  0.3012  0.0125
 3305TIP3    H131330   3.299   4.627  10.487 -2.2654 -1.2565 -2.1743
 3305TIP3    H231331   3.313   4.580  10.631 -0.5253  3.0629 -0.8478
 3306TIP3   OH231332   6.510   5.039   3.529  0.8346 -0.0662  0.7394
 3306TIP3    H131333   6.588   4.984   3.534  0.3574 -0.6614  1.8910
 3306TIP3    H231334   6.532   5.107   3.466  1.9717 -0.7290  0.4127
 3307TIP3   OH231335   6.265   1.707  15.055 -0.1971 -0.5217 -0.3131
 3307TIP3    H131336   6.264   1.723  15.150 -1.2557  0.8447 -0.5314
 3307TIP3    H231337   6.322   1.631  15.044 -0.0003 -0.6498  1.4162
 3308TIP3   OH231338   5.316   5.170  15.830 -0.3798 -0.8620  0.0455
 3308TIP3    H131339   5.225   5.166  15.859 -0.6654  1.3274 -0.4052
 3308TIP3    H231340   5.320   5.112  15.754 -2.4165  1.9499 -2.3535
 3309TIP3   OH231341   4.859   0.896  15.542  0.8751 -0.3797  0.3039
 3309TIP3    H131342   4.842   0.933  15.628  3.3151 -1.2905  1.2127
 3309TIP3    H231343   4.806   0.949  15.482  0.9013  1.7289  2.0955
 3310TIP3   OH231344   4.616   0.166  10.860 -0.2603  0.7336 -0.1653
 3310TIP3    H131345   4.634   0.076  10.888  0.1578  0.8540 -0.0422
 3310TIP3    H231346   4.523   0.178  10.878 -0.6364 -0.1300 -1.4703
 3311TIP3   OH231347   2.435   0.508   0.498 -0.2485  0.1204 -0.6432
 3311TIP3    H131348   2.369   0.544   0.438 -0.1815  1.5986  0.1510
 3311TIP3    H231349   2.395   0.428   0.533 -1.4989  0.8316 -0.4146
 3312TIP3   OH231350   1.854   2.137  15.150 -0.0179  0.4646 -0.4063
 3312TIP3    H131351   1.945   2.156  15.173  0.1303 -0.3267 -0.3490
 3312TIP3    H231352   1.805   2.212  15.184  0.7464  1.4744 -1.4683
 3313TIP3   OH231353   2.950   2.054   1.934 -0.8192  0.5210 -0.1466
 3313TIP3    H131354   2.905   1.975   1.963 -1.1817  0.6456 -0.3648
 3313TIP3    H231355   2.880   2.117   1.918 -0.5676  0.7110 -0.5046
 3314TIP3   OH231356   3.941   4.172  14.896  0.2415  0.2381  0.4143
 3314TIP3    H131357   3.917   4.152  14.806  0.2628 -2.5986  0.9992
 3314TIP3    H231358   3.960   4.266  14.895 -1.6105  0.6410 -2.0992
 3315TIP3   OH231359   2.926   5.191   3.680  0.1930  0.2772 -0.7771
 3315TIP3    H131360   2.889   5.113   3.721 -0.2063  0.6135 -0.5004
 3315TIP3    H231361   3.019   5.169   3.666 -0.1166 -0.5930 -1.5443
 3316TIP3   OH231362   2.467   0.403  12.848 -0.6161 -0.5101 -0.5278
 3316TIP3    H131363   2.474   0.386  12.754  0.5871 -0.8305 -0.3840
 3316TIP3    H231364   2.555   0.430  12.874 -1.2178  0.6513  0.2953
 3317TIP3   OH231365   2.460   3.710   2.967 -0.2006  0.1927  0.3297
 3317TIP3    H131366   2.404   3.677   3.037  1.4974 -0.3903  1.4389
 3317TIP3    H231367   2.472   3.634   2.910  1.0220 -0.2237  1.1267
 3318TIP3   OH231368   0.203   5.089  13.326  0.3357 -0.0249 -0.3663
 3318TIP3    H131369   0.112   5.069  13.350  0.4582  1.9270  1.8265
 3318TIP3    H231370   0.201   5.179  13.295  1.5785  0.1376 -0.0035
 3319TIP3   OH231371   5.309   2.448  14.295  0.6080 -0.0040 -0.1475
 3319TIP3    H131372   5.283   2.438  14.387 -0.9757  0.4855 -0.5209
 3319TIP3    H231373   5.397   2.485  14.298 -0.2048  1.8853  1.1706
 3320TIP3   OH231374   6.244   5.322  16.886  0.0938  0.5896  0.0120
 3320TIP3    H131375   6.305   5.392  16.861  2.1577 -1.0778  0.2462
 3320TIP3    H231376   6.215   5.285  16.803 -0.3710  1.1978 -0.0961
 3321TIP3   OH231377   2.480   6.352   1.166 -0.7860 -0.6271 -0.2145
 3321TIP3    H131378   2.480   6.257   1.178  0.9263 -0.3089  2.8417
 3321TIP3    H231379   2.455   6.387   1.252 -2.1853  1.7099 -1.5013
 3322TIP3   OH231380   1.702   2.118   4.041 -0.0787 -0.0361  0.4296
 3322TIP3    H131381   1.623   2.092   3.994 -0.6134  1.5397  0.4260
 3322TIP3    H231382   1.671   2.179   4.108  0.8212 -1.4026  2.1259
 3323TIP3   OH231383   4.618   5.574  12.342  0.3273 -0.4492 -0.2933
 3323TIP3    H131384   4.671   5.553  12.265 -0.0888  0.3548 -0.8024
 3323TIP3    H231385   4.672   5.636  12.392  0.0253  0.0960 -0.6350
 3324TIP3   OH231386   1.254   3.244   2.067  0.1544 -0.2116  0.5493
 3324TIP3    H131387   1.266   3.257   1.973  0.1287  0.1035  0.5899
 3324TIP3    H231388   1.285   3.155   2.083  0.7709 -0.0343  0.3510
 3325TIP3   OH231389   4.995   0.260   6.423 -0.2791  0.1980  1.0948
 3325TIP3    H131390   5.054   0.310   6.479  1.4302  0.1446 -0.6356
 3325TIP3    H231391   4.998   0.171   6.460  0.2885  0.3153  1.3433
 3326TIP3   OH231392   1.641   4.193   5.099 -0.4614 -0.0703 -0.4341
 3326TIP3    H131393   1.727   4.180   5.059  1.3681  0.2510  3.1127
 3326TIP3    H231394   1.645   4.281   5.136 -1.1548 -1.1213  2.3010
 3327TIP3   OH231395   1.109   2.631  13.888  0.0461  0.0516 -0.4983
 3327TIP3    H131396   1.106   2.555  13.830 -0.6012 -1.1867  1.1026
 3327TIP3    H231397   1.080   2.597  13.973  0.9477  1.8253  0.5404
 3328TIP3   OH231398   6.294   2.214  12.550  0.2688 -0.0129 -0.2066
 3328TIP3    H131399   6.231   2.144  12.568 -0.7247  0.6163 -1.1887
 3328TIP3    H231400   6.325   2.241  12.636 -0.9965 -0.1581  0.3055
 3329TIP3   OH231401   6.598   0.612  13.322 -0.4217 -0.6636 -0.1323
 3329TIP3    H131402   6.601   0.586  13.230  0.5587  0.4911 -0.4441
 3329TIP3    H231403   6.521   0.669  13.327  0.2001  0.2201 -0.5066
 3330TIP3   OH231404   1.457   3.293   1.451  0.1641  0.5084  0.1040
 3330TIP3    H131405   1.527   3.270   1.512 -0.1336  0.0954  0.2987
 3330TIP3    H231406   1.450   3.388   1.456 -0.2245  0.4369  1.1389
 3331TIP3   OH231407   0.700   4.990   1.689 -0.1602 -0.2193  0.0893
 3331TIP3    H131408   0.743   4.956   1.767 -1.2587  0.1738  0.8633
 3331TIP3    H231409   0.738   5.077   1.676 -0.5865  0.0507  0.6627
 3332TIP3   OH231410   1.862   3.319   2.917  0.0152  0.5225  0.0169
 3332TIP3    H131411   1.858   3.405   2.874  2.1920  0.0245 -1.2297
 3332TIP3    H231412   1.946   3.320   2.964  0.6765 -1.4166 -1.0886
 3333TIP3   OH231413   2.703   3.289   0.438 -0.3239  0.2384 -0.5646
 3333TIP3    H131414   2.711   3.276   0.344 -1.6985  0.0782 -0.6647
 3333TIP3    H231415   2.730   3.380   0.453 -1.8474  0.8169 -1.3401
 3334TIP3   OH231416   6.239   1.242   3.824  0.1986  0.3908  0.0368
 3334TIP3    H131417   6.323   1.198   3.832  0.4443  0.7060 -0.7972
 3334TIP3    H231418   6.232   1.296   3.902 -0.7322 -2.1957  1.8010
 3335TIP3   OH231419   1.027   5.316   2.589  0.7201 -0.2165  0.0168
 3335TIP3    H131420   0.960   5.359   2.643  1.6111  0.5916  0.4848
 3335TIP3    H231421   0.999   5.224   2.584 -0.5831  0.1748 -0.0433
 3336TIP3   OH231422   0.140   2.223   0.271  0.5201 -1.1565 -0.4530
 3336TIP3    H131423   0.085   2.179   0.336  0.7712 -0.7330  0.0521
 3336TIP3    H231424   0.207   2.159   0.249  0.7736 -1.1005  0.1419
 3337TIP3   OH231425   0.729   4.586  15.786 -0.3997  0.0293  0.0676
 3337TIP3    H131426   0.677   4.664  15.802 -1.2516 -0.3403 -0.8328
 3337TIP3    H231427   0.669   4.513  15.803  0.2800 -0.4350  0.5480
 3338TIP3   OH231428   4.251   4.176   4.284  0.4608 -0.2862  0.2806
 3338TIP3    H131429   4.245   4.245   4.350  2.3014  0.3104 -0.1642
 3338TIP3    H231430   4.169   4.182   4.236  0.5226  1.4745  0.3679
 3339TIP3   OH231431   6.679   2.752   4.489 -0.2448 -0.0939 -0.1474
 3339TIP3    H131432   6.590   2.763   4.454 -0.5109  2.3642  1.2293
 3339TIP3    H231433   6.728   2.826   4.455  1.1028 -1.0344 -0.2741
 3340TIP3   OH231434   2.423   6.011   2.240  0.1784 -0.2675  0.3626
 3340TIP3    H131435   2.484   6.072   2.281 -1.8970  3.2457 -1.5734
 3340TIP3    H231436   2.477   5.961   2.179  1.7008  0.5267  1.0281
 3341TIP3   OH231437   4.455   5.064   5.438  0.3673  0.3085 -0.5493
 3341TIP3    H131438   4.508   5.067   5.359  0.2456 -2.0040 -0.7663
 3341TIP3    H231439   4.370   5.100   5.412  0.2850 -0.5815 -1.5206
 3342TIP3   OH231440   2.926   5.173   4.576  0.4715 -0.2245 -0.1945
 3342TIP3    H131441   2.997   5.141   4.631 -1.0511 -0.9180  1.4221
 3342TIP3    H231442   2.855   5.109   4.587 -1.2371  1.6402  0.0700
 3343TIP3   OH231443   3.433   1.787   5.484  0.3246 -0.1327 -0.8291
 3343TIP3    H131444   3.435   1.703   5.529  2.9227  0.2893 -0.0581
 3343TIP3    H231445   3.407   1.765   5.394 -4.2321 -1.0554  0.6077
 3344TIP3   OH231446   0.085   2.122  11.242  0.1939 -0.3285  0.1399
 3344TIP3    H131447   0.098   2.057  11.311 -1.0097 -0.2957  0.4070
 3344TIP3    H231448   0.082   2.206  11.288 -0.0045 -0.2485 -0.0186
 3345TIP3   OH231449   3.745   3.927  10.503  0.0600 -0.2470  0.1112
 3345TIP3    H131450   3.809   3.998  10.498 -0.6487  0.3572 -0.4450
 3345TIP3    H231451   3.761   3.873  10.426  0.3370 -0.4739  0.3262
 3346TIP3   OH231452   0.113   6.065   2.649  0.2769  0.0852 -0.0138
 3346TIP3    H131453   0.186   6.092   2.704  1.8559 -0.8892 -1.5539
 3346TIP3    H231454   0.041   6.123   2.674  0.8172 -0.5740  3.2718
 3347TIP3   OH231455   4.344   3.520   2.372  0.1035 -0.2592  0.3066
 3347TIP3    H131456   4.314   3.610   2.361  0.7671  0.2889  2.6434
 3347TIP3    H231457   4.270   3.466   2.346 -0.7345  0.9700  0.1035
 3348TIP3   OH231458   6.113   1.513   1.219 -0.3343  0.3854  0.1598
 3348TIP3    H131459   6.069   1.597   1.230  0.4926  0.8363  0.0424
 3348TIP3    H231460   6.204   1.529   1.245  0.6623  0.4335 -3.1162
 3349TIP3   OH231461   4.115   3.045   5.499  0.1345  0.5670 -0.6073
 3349TIP3    H131462   4.186   2.982   5.506  1.4909  2.2950  1.9429
 3349TIP3    H231463   4.158   3.127   5.476 -1.0629  1.5333  0.4818
 3350TIP3   OH231464   6.785   1.712  10.790  0.2934  0.1543 -0.1239
 3350TIP3    H131465   6.726   1.772  10.745 -1.6337 -0.7547  1.1181
 3350TIP3    H231466   6.764   1.626  10.753  0.3472 -0.2640  0.8055
 3351TIP3   OH231467   1.395   2.278   2.331  0.2434 -0.6122 -0.1088
 3351TIP3    H131468   1.454   2.256   2.258 -1.3901 -2.5019 -0.9236
 3351TIP3    H231469   1.393   2.199   2.385 -1.8692 -0.7950 -0.3754
 3352TIP3   OH231470   3.849   0.681  17.115 -0.4566 -0.0233 -0.1630
 3352TIP3    H131471   3.878   0.590  17.121 -1.4146 -0.3592 -0.5482
 3352TIP3    H231472   3.878   0.721  17.197 -1.6322 -1.1543  0.8420
 3353TIP3   OH231473   4.158   5.935   1.041 -0.2937  0.1336 -0.4727
 3353TIP3    H131474   4.100   5.862   1.020  0.5223 -0.8828  0.7163
 3353TIP3    H231475   4.147   5.949   1.135  1.0867  0.1715 -0.3007
 3354TIP3   OH231476   4.962   3.412   5.897  0.2893 -0.1798 -0.2278
 3354TIP3    H131477   5.031   3.385   5.836 -1.2241 -4.4760 -0.2006
 3354TIP3    H231478   4.996   3.392   5.984  0.5242  1.3946  0.0589
 3355TIP3   OH231479   1.771   0.562   0.523  0.4436 -0.5056  0.2416
 3355TIP3    H131480   1.857   0.529   0.549 -0.1206 -1.8043  0.5218
 3355TIP3    H231481   1.766   0.547   0.429  1.4845  1.8562 -0.2207
 3356TIP3   OH231482   1.570   3.707   4.744 -0.6745 -0.0047  0.6247
 3356TIP3    H131483   1.570   3.797   4.714 -1.6431 -0.3214 -0.3565
 3356TIP3    H231484   1.608   3.711   4.832 -2.3921  1.5910  1.3134
 3357TIP3   OH231485   3.354   2.602   2.068 -0.0991  0.5925  0.2645
 3357TIP3    H131486   3.310   2.674   2.025  0.8218  1.7833  1.2675
 3357TIP3    H231487   3.405   2.643   2.138  3.0316 -0.6506 -1.2004
 3358TIP3   OH231488   0.048   6.485   0.900  0.0928  0.7493  0.1624
 3358TIP3    H131489   0.094   6.547   0.958 -0.8028  0.1496  1.5165
 3358TIP3    H231490  -0.030   6.460   0.949 -0.9643  0.6597 -1.5488
 3359TIP3   OH231491   0.662   3.700  17.182  0.0368  0.1896 -0.6504
 3359TIP3    H131492   0.665   3.626  17.242 -0.0359 -1.3094 -2.4344
 3359TIP3    H231493   0.577   3.741  17.200 -0.0992 -0.3935  0.0986
 3360TIP3   OH231494   3.653   4.612  14.876 -0.0538  0.1375 -0.0754
 3360TIP3    H131495   3.696   4.559  14.943  0.8791  1.1724  0.1428
 3360TIP3    H231496   3.561   4.585  14.880 -0.2101  0.9081  2.3205
 3361TIP3   OH231497   2.746   1.524   0.293 -0.1578 -0.0148 -0.0097
 3361TIP3    H131498   2.818   1.507   0.233  1.0145  1.1576  1.0526
 3361TIP3    H231499   2.761   1.465   0.367 -1.3728 -1.1588 -0.6390
 3362TIP3   OH231500   6.235   0.336   4.233 -0.2037 -0.0845 -0.0579
 3362TIP3    H131501   6.326   0.314   4.214 -0.2530 -0.9699  0.6916
 3362TIP3    H231502   6.220   0.305   4.322 -0.8936  1.1421  0.2674
 3363TIP3   OH231503   4.916   3.690  15.968 -0.4498 -0.4661  0.0046
 3363TIP3    H131504   4.977   3.701  16.041 -0.3614 -1.2140  0.0403
 3363TIP3    H231505   4.972   3.682  15.891 -0.5023 -1.1997  0.0429
 3364TIP3   OH231506   3.055   5.348   1.497 -0.1833  0.2864 -0.4396
 3364TIP3    H131507   3.067   5.343   1.402 -1.6329  0.1134 -0.6233
 3364TIP3    H231508   3.018   5.263   1.521  1.8309 -0.3416  0.5513
 3365TIP3   OH231509   4.388   3.076  10.682  0.1860 -0.9278 -0.0976
 3365TIP3    H131510   4.324   3.134  10.640 -0.9131 -3.1225 -1.5432
 3365TIP3    H231511   4.454   3.060  10.614 -1.3997 -4.1915 -0.9641
 3366TIP3   OH231512   0.569   3.465   4.402  0.0231  0.2398  0.2597
 3366TIP3    H131513   0.626   3.507   4.467  0.3733  0.5331 -0.2375
 3366TIP3    H231514   0.628   3.417   4.345 -0.3761 -0.9679  0.8393
 3367TIP3   OH231515   4.876   2.734   3.050  0.0795 -0.5540 -0.2125
 3367TIP3    H131516   4.898   2.641   3.052 -1.0572 -0.8747 -1.8099
 3367TIP3    H231517   4.898   2.762   2.961  0.5406  0.7374  0.3050
 3368TIP3   OH231518   0.268   1.185  11.853 -0.2108  0.0443  0.0843
 3368TIP3    H131519   0.262   1.246  11.779  0.6125  0.2336  0.1727
 3368TIP3    H231520   0.315   1.110  11.818 -1.6531 -0.7685 -0.1629
 3369TIP3   OH231521   2.776   0.351   0.031  0.3574  0.1273 -0.0185
 3369TIP3    H131522   2.810   0.262   0.022 -0.1999 -0.0642 -0.2666
 3369TIP3    H231523   2.758   0.361   0.125 -0.7679 -0.4699 -0.1616
 3370TIP3   OH231524   0.849   0.312   5.708  0.5071 -0.0244 -0.3260
 3370TIP3    H131525   0.861   0.241   5.772  0.7457  1.8848  1.8260
 3370TIP3    H231526   0.755   0.319   5.698  0.3931  0.6077  0.9829
 3371TIP3   OH231527   1.361   4.662   4.500  0.0443  0.6359  0.2052
 3371TIP3    H131528   1.356   4.677   4.406 -0.4104  0.5319  0.2103
 3371TIP3    H231529   1.280   4.700   4.535  0.2205  0.6958  0.5540
 3372TIP3   OH231530   3.426   4.305   1.383  0.0883  0.0639  0.1255
 3372TIP3    H131531   3.503   4.328   1.436  0.1825 -0.2372  0.1215
 3372TIP3    H231532   3.439   4.213   1.362 -1.0764 -0.4218  1.4774
 3373TIP3   OH231533   4.488   1.822   1.530 -0.3838 -0.2090  0.4193
 3373TIP3    H131534   4.509   1.881   1.602  0.7071  1.3083 -1.1064
 3373TIP3    H231535   4.538   1.856   1.456  0.9324 -3.5331 -0.2924
 3374TIP3   OH231536   4.158   0.399   1.007 -0.1916 -0.3069 -0.1159
 3374TIP3    H131537   4.077   0.440   0.975  0.0248  0.6001  0.4885
 3374TIP3    H231538   4.211   0.387   0.928  0.2879  1.8022 -0.1462
 3375TIP3   OH231539   4.169   5.082   4.455  0.2253 -0.7584  0.0026
 3375TIP3    H131540   4.201   5.037   4.376  1.6899 -0.2870  0.3060
 3375TIP3    H231541   4.156   5.172   4.427 -0.0891 -0.7776  0.0862
 3376TIP3   OH231542   5.658   4.779  14.179 -0.3145 -0.3434  0.1287
 3376TIP3    H131543   5.623   4.860  14.217 -2.1921 -1.1959  0.2710
 3376TIP3    H231544   5.710   4.808  14.104  2.1179  1.2423  2.3722
 3377TIP3   OH231545   1.753   0.945   4.228  0.0494 -0.0120 -0.7293
 3377TIP3    H131546   1.739   0.890   4.150 -1.8961 -0.6551  0.0474
 3377TIP3    H231547   1.795   1.024   4.194 -1.1738 -0.0960 -2.5145
 3378TIP3   OH231548   4.318   6.270   1.909 -0.3069 -0.0239 -0.3762
 3378TIP3    H131549   4.297   6.199   1.849 -1.5584 -1.5185  1.7750
 3378TIP3    H231550   4.386   6.235   1.966  2.7292  2.2271 -2.3923
 3379TIP3   OH231551   1.475   0.064   0.424  0.5456 -0.8035  0.3046
 3379TIP3    H131552   1.423   0.018   0.358  1.4886 -2.6852  0.8214
 3379TIP3    H231553   1.453   0.020   0.506  0.1857  0.8211  1.0987
 3380TIP3   OH231554   0.659   3.890  13.814  0.0899 -0.8328 -0.1843
 3380TIP3    H131555   0.691   3.826  13.878 -1.4693 -1.3310  0.0954
 3380TIP3    H231556   0.616   3.838  13.747 -0.3886 -0.1448 -0.4196
 3381TIP3   OH231557   3.285   1.522  13.787  0.4650  0.1675  0.3903
 3381TIP3    H131558   3.253   1.555  13.871 -0.5153 -0.1044  0.1301
 3381TIP3    H231559   3.206   1.492  13.742  1.0686 -0.3009 -0.3555
 3382TIP3   OH231560   0.870   4.431   5.905  0.0989  0.0454  0.0534
 3382TIP3    H131561   0.833   4.357   5.856 -1.4004 -0.0733  1.3267
 3382TIP3    H231562   0.862   4.505   5.845 -0.9696 -0.2510 -0.1759
 3383TIP3   OH231563   6.325   3.460  11.927 -0.4781 -0.0481 -0.0989
 3383TIP3    H131564   6.343   3.422  12.013  0.3674 -0.3860 -0.4196
 3383TIP3    H231565   6.297   3.550  11.946 -2.2150 -0.7157  0.6407
 3384TIP3   OH231566   2.290   5.458   0.449  0.2939 -0.0875 -0.0173
 3384TIP3    H131567   2.213   5.460   0.392  1.9922 -0.4552 -2.4045
 3384TIP3    H231568   2.313   5.550   0.461  0.3378 -0.0292 -0.5209
 3385TIP3   OH231569   2.964   5.258  12.935  0.3337 -0.1039  0.2690
 3385TIP3    H131570   2.970   5.256  12.840  0.4071 -0.0745  0.2732
 3385TIP3    H231571   2.922   5.341  12.954  0.2775 -0.1294  0.2599
 3386TIP3   OH231572   2.217   3.941  16.289  0.6871  0.4667  0.3561
 3386TIP3    H131573   2.240   4.001  16.217  0.0019  0.4735  0.1337
 3386TIP3    H231574   2.145   3.985  16.333  1.0045  0.3836  0.9561
 3387TIP3   OH231575   1.232   1.573   6.582  0.0380  0.3654  0.4823
 3387TIP3    H131576   1.179   1.509   6.534  1.7986  0.7498 -2.0997
 3387TIP3    H231577   1.276   1.523   6.650 -2.1327 -0.2940  1.4336
 3388TIP3   OH231578   3.234   3.991  14.887  0.1379  0.3139  0.1450
 3388TIP3    H131579   3.196   3.974  14.801  0.4585  2.6934 -0.5036
 3388TIP3    H231580   3.174   4.053  14.928 -0.4270 -1.3959  1.9808
 3389TIP3   OH231581   5.723   6.063  13.310 -0.3281 -0.4051  0.6011
 3389TIP3    H131582   5.660   6.101  13.371 -1.1981  0.6512 -0.9207
 3389TIP3    H231583   5.809   6.082  13.350 -0.5455  5.3397 -1.1198
 3390TIP3   OH231584   4.643   4.215   3.348 -0.7352  0.3285 -0.4208
 3390TIP3    H131585   4.640   4.239   3.441 -0.8402  0.3193 -0.4220
 3390TIP3    H231586   4.728   4.246   3.318 -1.5721  2.2436 -0.8553
 3391TIP3   OH231587   0.577   2.394  16.788  0.5660  0.1669 -0.1162
 3391TIP3    H131588   0.631   2.361  16.860  0.8751 -0.8164 -0.7936
 3391TIP3    H231589   0.492   2.353  16.801  0.1470  1.2409  0.5972
 3392TIP3   OH231590   3.603   0.845  17.107 -0.7172  0.0479  0.4998
 3392TIP3    H131591   3.614   0.923  17.161 -0.7474  0.1920  0.2996
 3392TIP3    H231592   3.689   0.804  17.105 -0.7147  0.0436  0.6535
 3393TIP3   OH231593   5.871   6.747   5.858  0.2191 -0.0794 -0.7713
 3393TIP3    H131594   5.963   6.768   5.875 -0.2394  2.0949 -0.8354
 3393TIP3    H231595   5.866   6.737   5.763  0.6476 -1.5234 -0.6457
 3394TIP3   OH231596   1.481   0.835   5.846 -0.3954  0.3320 -0.2378
 3394TIP3    H131597   1.456   0.743   5.858  0.7913 -0.3536 -2.6239
 3394TIP3    H231598   1.572   0.831   5.815 -0.0491  2.3616  0.4616
 3395TIP3   OH231599   2.055   3.969  15.531 -0.2974  0.2490  0.7035
 3395TIP3    H131600   2.037   3.965  15.625 -2.8013  2.6620  0.4006
 3395TIP3    H231601   2.128   4.031  15.523  0.9841 -1.1794  1.1442
 3396TIP3   OH231602   1.155   5.437  15.057 -0.4257  0.6047 -0.2805
 3396TIP3    H131603   1.182   5.370  14.994 -2.1860  1.1768 -1.7178
 3396TIP3    H231604   1.236   5.470  15.094  0.6721  0.3033 -2.3434
 3397TIP3   OH231605   5.580   5.836   5.087 -0.3229 -0.3939 -0.3733
 3397TIP3    H131606   5.616   5.860   5.172  0.4995 -0.4722 -0.6928
 3397TIP3    H231607   5.503   5.782   5.107 -0.8350  0.5869  0.3190
 3398TIP3   OH231608   2.301   3.627   2.694  0.3242  0.6086 -0.2768
 3398TIP3    H131609   2.229   3.565   2.683  0.0397  0.9947 -0.6056
 3398TIP3    H231610   2.261   3.713   2.680  0.9151  0.8052 -0.7710
 3399TIP3   OH231611   4.092   5.391  12.107  0.1966  0.5588  0.1946
 3399TIP3    H131612   4.100   5.486  12.099  0.2752  0.5370 -0.0103
 3399TIP3    H231613   4.149   5.368  12.179 -1.2213  0.8741  1.4502
 3400TIP3   OH231614   5.493   6.489   1.752  0.0899  0.4037 -0.4498
 3400TIP3    H131615   5.555   6.560   1.766  0.9592 -0.1429 -1.4423
 3400TIP3    H231616   5.515   6.454   1.665  0.6218 -1.9880  0.5934
 3401TIP3   OH231617   5.689   4.478   4.283 -0.0716  0.4526 -0.5439
 3401TIP3    H131618   5.599   4.491   4.314 -0.3655  0.9860 -1.6234
 3401TIP3    H231619   5.680   4.450   4.192  0.8237 -0.4618 -0.3655
 3402TIP3   OH231620   5.037   5.139   1.782 -0.2015  0.8564 -0.4041
 3402TIP3    H131621   4.951   5.125   1.742 -0.1488 -0.9527  0.1029
 3402TIP3    H231622   5.063   5.053   1.813  1.3300  1.6060  0.3997
 3403TIP3   OH231623   3.382   2.670  15.065 -0.1135 -0.2911  0.2803
 3403TIP3    H131624   3.359   2.709  14.981  0.6757 -1.8045 -0.6731
 3403TIP3    H231625   3.364   2.738  15.129  0.3751  1.3135 -1.2388
 3404TIP3   OH231626   1.386   2.048  11.195  0.1327 -0.1591 -0.1584
 3404TIP3    H131627   1.410   1.963  11.157 -2.2927 -1.0376  0.1716
 3404TIP3    H231628   1.392   2.109  11.121 -2.4486 -1.4632 -1.5375
 3405TIP3   OH231629   6.748   2.193   2.197 -0.2319 -0.4180  1.1060
 3405TIP3    H131630   6.792   2.267   2.157  0.9099 -0.9330  1.3773
 3405TIP3    H231631   6.819   2.140   2.234 -1.0045 -1.8014  0.6418
 3406TIP3   OH231632   0.645   6.196   3.374  0.3739 -1.1533 -0.0880
 3406TIP3    H131633   0.641   6.102   3.395  1.6692 -0.9603  1.0677
 3406TIP3    H231634   0.714   6.202   3.308  0.6778 -0.9499  0.2464
 3407TIP3   OH231635   5.967   2.568  14.594 -0.1415 -0.4123  0.0954
 3407TIP3    H131636   5.885   2.557  14.642  0.7795 -0.7023  1.6014
 3407TIP3    H231637   5.995   2.478  14.574  0.3423 -0.3446  0.4762
 3408TIP3   OH231638   4.766   5.041   0.145 -0.1401  0.2195 -0.2199
 3408TIP3    H131639   4.817   5.102   0.198  0.0612  0.9521 -1.2417
 3408TIP3    H231640   4.675   5.067   0.159 -0.1564 -0.2471  0.5679
 3409TIP3   OH231641   5.823   0.762  10.596 -0.0469  0.0495  0.3374
 3409TIP3    H131642   5.736   0.781  10.561  0.0513  0.5709  0.3839
 3409TIP3    H231643   5.840   0.831  10.659 -0.0248 -0.6260  1.0864
 3410TIP3   OH231644   3.740   5.792   1.807 -0.0007  0.2111 -0.4233
 3410TIP3    H131645   3.653   5.811   1.844  0.1151 -1.1854  0.5945
 3410TIP3    H231646   3.723   5.730   1.737  0.0611  0.8422 -1.0018
 3411TIP3   OH231647   4.303   6.601  16.193 -0.0048  0.9129  0.4998
 3411TIP3    H131648   4.337   6.543  16.261  1.2491  3.5260  2.2121
 3411TIP3    H231649   4.381   6.628  16.145 -0.4863  1.7119  0.1654
 3412TIP3   OH231650   1.868   5.465  11.668  0.0393  0.4052 -0.3058
 3412TIP3    H131651   1.961   5.485  11.661 -0.1359  1.1747 -0.5460
 3412TIP3    H231652   1.849   5.471  11.761 -0.0170  1.4350 -0.3779
 3413TIP3   OH231653   4.798   2.665   4.947  0.2230 -0.4749 -0.0946
 3413TIP3    H131654   4.752   2.744   4.977  3.1696  1.4312 -0.3409
 3413TIP3    H231655   4.817   2.616   5.027 -1.2284 -0.7323  0.1050
 3414TIP3   OH231656   2.154   1.563  15.564 -0.2642 -0.9594 -0.1675
 3414TIP3    H131657   2.231   1.579  15.510 -0.2278 -1.6530 -0.3185
 3414TIP3    H231658   2.096   1.637  15.544  0.1598 -0.6875 -0.4065
 3415TIP3   OH231659   0.867   2.104  16.793  0.3219  0.5044 -0.0452
 3415TIP3    H131660   0.886   2.049  16.868  1.3781  1.7809  0.6472
 3415TIP3    H231661   0.803   2.167  16.825 -0.8928 -0.3106 -0.8346
 3416TIP3   OH231662   6.585   3.135  15.858 -0.2605 -0.0176  0.8544
 3416TIP3    H131663   6.647   3.115  15.788  0.3960  2.9536  0.5208
 3416TIP3    H231664   6.499   3.121  15.820  0.1214  0.1853 -0.0832
 3417TIP3   OH231665   5.515   4.301   4.870 -0.0143  0.0794  0.2744
 3417TIP3    H131666   5.549   4.391   4.870 -2.5222  1.0602 -0.2154
 3417TIP3    H231667   5.579   4.251   4.819 -0.2080  2.2334 -2.1818
 3418TIP3   OH231668   2.079   0.773   3.132  0.5046  0.3151 -0.2564
 3418TIP3    H131669   2.041   0.686   3.125 -1.8950  1.0678  2.5184
 3418TIP3    H231670   2.041   0.822   3.059 -0.8818  0.0095  0.2548
 3419TIP3   OH231671   4.347   1.781  10.972  0.4305  0.2519 -0.4095
 3419TIP3    H131672   4.408   1.814  11.037 -0.2022 -1.1276  0.9230
 3419TIP3    H231673   4.399   1.770  10.893  1.6983 -0.0256  0.4555
 3420TIP3   OH231674   3.117   6.143  11.195 -0.1963  0.4201 -0.3806
 3420TIP3    H131675   3.195   6.115  11.148 -0.1947 -0.6202  0.2313
 3420TIP3    H231676   3.063   6.064  11.202 -0.8655  0.9049  0.0519
 3421TIP3   OH231677   3.406   1.189  17.061  0.4800  0.1190 -0.5541
 3421TIP3    H131678   3.387   1.248  16.989  1.3359  0.0800 -0.8142
 3421TIP3    H231679   3.459   1.241  17.121 -2.8287  1.1801  1.6032
 3422TIP3   OH231680   1.120   5.962  15.695  0.7007  0.6072 -0.2326
 3422TIP3    H131681   1.067   5.954  15.775 -0.3529  1.0850 -0.8643
 3422TIP3    H231682   1.068   5.920  15.627  2.1573 -0.9007 -0.4392
 3423TIP3   OH231683   1.988   4.079   5.816  0.1183 -0.6894  0.7193
 3423TIP3    H131684   2.019   4.146   5.878 -2.0637  0.7193  0.3562
 3423TIP3    H231685   1.945   4.014   5.872 -0.0484 -0.4555  0.8672
 3424TIP3   OH231686   5.348   3.881  16.037  0.3883 -0.1107  0.4466
 3424TIP3    H131687   5.355   3.947  15.968  0.4866  1.1635  1.6491
 3424TIP3    H231688   5.340   3.798  15.990  2.3342  0.5220 -1.0999
 3425TIP3   OH231689   2.730   0.514   6.032 -0.3188  0.2496 -0.0078
 3425TIP3    H131690   2.740   0.448   5.964  1.2316  0.8162 -0.3658
 3425TIP3    H231691   2.639   0.542   6.027 -0.4310 -0.3450 -1.2605
 3426TIP3   OH231692   4.908   4.030  15.186  0.1727 -0.0361 -0.1028
 3426TIP3    H131693   4.830   3.980  15.211  0.9217 -1.2827 -0.1940
 3426TIP3    H231694   4.882   4.079  15.108 -0.6821 -0.0178  0.1973
 3427TIP3   OH231695   6.303   3.934  13.537 -0.4731  0.4126  0.6007
 3427TIP3    H131696   6.386   3.957  13.580 -0.5576  2.0017 -0.0413
 3427TIP3    H231697   6.327   3.914  13.447 -0.6548 -0.1431  0.6744
 3428TIP3   OH231698   4.714   4.001   5.235 -0.7325  0.1239 -0.2513
 3428TIP3    H131699   4.776   4.056   5.283  1.8436 -0.0898 -3.2073
 3428TIP3    H231700   4.762   3.919   5.220 -1.6501  0.0210 -2.7390
 3429TIP3   OH231701   2.106   6.049   0.498 -0.0285  0.2132 -0.2378
 3429TIP3    H131702   2.177   6.030   0.560 -0.2444 -0.0811 -0.0810
 3429TIP3    H231703   2.129   6.135   0.463  1.3171 -0.6149 -1.4603
 3430TIP3   OH231704   0.605   6.666   2.244 -0.2260 -0.0175  0.2853
 3430TIP3    H131705   0.567   6.636   2.161 -0.3309 -2.3132  1.1365
 3430TIP3    H231706   0.538   6.725   2.280 -1.9613 -2.0948  0.5812
 3431TIP3   OH231707   4.715   1.393  14.404  0.5864  0.3700 -0.1901
 3431TIP3    H131708   4.796   1.390  14.354  0.2615  0.5587 -0.7374
 3431TIP3    H231709   4.649   1.420  14.340  0.0923  0.1971  0.2457
 3432TIP3   OH231710   6.614   6.692  11.493  0.1559 -0.0489 -0.0463
 3432TIP3    H131711   6.643   6.605  11.522 -0.8113 -0.4735 -0.3188
 3432TIP3    H231712   6.649   6.700  11.404  0.4555 -0.0498  0.0689
 3433TIP3   OH231713   3.717   4.474   5.253 -0.2050 -0.0191  0.5692
 3433TIP3    H131714   3.709   4.545   5.190 -1.7526 -0.1278  0.6224
 3433TIP3    H231715   3.656   4.496   5.323  2.3043  0.6670  2.6037
 3434TIP3   OH231716   1.260   3.519   0.635  0.0018  0.0195 -0.1514
 3434TIP3    H131717   1.261   3.437   0.586 -0.2809  0.0325 -0.1800
 3434TIP3    H231718   1.261   3.493   0.727 -0.4505 -0.0203 -0.1598
 3435TIP3   OH231719   4.887   5.363   4.758 -0.4583 -0.2256  0.0158
 3435TIP3    H131720   4.916   5.359   4.849 -0.8950  0.5676  0.1913
 3435TIP3    H231721   4.928   5.442   4.723 -3.0469  1.4121  0.5141
 3436TIP3   OH231722   5.871   6.161   6.265  0.2438  0.5739 -0.1102
 3436TIP3    H131723   5.838   6.219   6.196  2.2380  1.2878 -0.5033
 3436TIP3    H231724   5.952   6.202   6.293  0.1238 -0.4297  1.7574
 3437TIP3   OH231725   2.146   2.348  11.149 -0.5685  0.1690 -0.1781
 3437TIP3    H131726   2.192   2.399  11.083  0.0658 -0.0470  0.0924
 3437TIP3    H231727   2.173   2.387  11.233 -1.8993  0.8860 -0.0684
 3438TIP3   OH231728   4.729   0.858  12.214  0.0208  0.5755 -0.4754
 3438TIP3    H131729   4.638   0.844  12.239  0.6297  2.0825  2.9346
 3438TIP3    H231730   4.728   0.863  12.118 -3.2699 -0.6381 -0.5486
 3439TIP3   OH231731   3.499   0.718   0.346  0.6436  0.5491 -0.0156
 3439TIP3    H131732   3.589   0.733   0.317  0.5006  0.7603 -0.3562
 3439TIP3    H231733   3.499   0.629   0.381  1.1560  0.8212  0.6698
 3440TIP3   OH231734   3.823   3.594  11.136 -0.3204  0.1714  0.2156
 3440TIP3    H131735   3.749   3.623  11.190  0.4888 -0.5425  1.7537
 3440TIP3    H231736   3.838   3.666  11.075 -1.7903  0.6480  0.3910
 3441TIP3   OH231737   1.597   2.056   5.241  0.0256  0.0526  0.7406
 3441TIP3    H131738   1.556   2.132   5.281 -2.5511 -1.1977  0.5535
 3441TIP3    H231739   1.594   1.988   5.309 -0.9610 -0.9580 -0.2957
 3442TIP3   OH231740   4.464   2.758  14.355 -0.5092 -0.5554 -0.3402
 3442TIP3    H131741   4.389   2.736  14.409 -0.9770  0.3781 -0.5884
 3442TIP3    H231742   4.519   2.814  14.411 -1.7521  1.6999 -1.2911
 3443TIP3   OH231743   3.697   0.728   5.130 -0.3353  0.4674 -0.2516
 3443TIP3    H131744   3.699   0.651   5.073  1.9574  0.5621 -0.3778
 3443TIP3    H231745   3.673   0.694   5.216 -0.1760 -0.2665 -0.4926
 3444TIP3   OH231746   5.323   4.919  14.280 -0.1279 -0.0038  0.3141
 3444TIP3    H131747   5.348   4.827  14.278  0.3776  0.1186  1.0982
 3444TIP3    H231748   5.286   4.932  14.367 -0.8658  0.3598 -0.0489
 3445TIP3   OH231749   0.174   3.170   1.987 -0.0981  0.1166 -0.5961
 3445TIP3    H131750   0.196   3.077   1.995  0.0147  0.1969  0.0272
 3445TIP3    H231751   0.237   3.204   1.923 -0.4519 -0.3383 -1.1891
 3446TIP3   OH231752   4.767   4.479   2.979  0.5595  0.2279  0.0118
 3446TIP3    H131753   4.698   4.490   3.045 -1.3809 -0.0657 -1.9294
 3446TIP3    H231754   4.774   4.385   2.968  1.4297  0.2522  0.3456
 3447TIP3   OH231755   0.019   3.474   4.222 -0.5305  0.3464  0.5716
 3447TIP3    H131756   0.111   3.498   4.232 -0.9060  2.0773  0.0349
 3447TIP3    H231757  -0.013   3.467   4.312  0.3510 -1.2360  0.7800
 3448TIP3   OH231758   4.679   0.147   4.915 -0.4805  0.0525  0.0323
 3448TIP3    H131759   4.586   0.145   4.891 -0.3795  0.4779 -0.4018
 3448TIP3    H231760   4.681   0.195   4.997 -0.5994  0.4372 -0.1854
 3449TIP3   OH231761   1.510   5.636  17.122  0.2873  0.0957  0.1997
 3449TIP3    H131762   1.500   5.621  17.028  2.1400  0.5042 -0.0900
 3449TIP3    H231763   1.434   5.689  17.147 -0.3566 -0.2577 -1.0006
 3450TIP3   OH231764   3.867   0.642  12.031  0.4492  0.0293  0.0459
 3450TIP3    H131765   3.885   0.663  11.939  2.6040  1.7467  0.8042
 3450TIP3    H231766   3.906   0.555  12.044  0.4874 -0.0472 -0.5810
 3451TIP3   OH231767   1.377   4.403  10.656 -0.1066 -0.2349 -0.3585
 3451TIP3    H131768   1.330   4.470  10.705  0.3192  0.0912 -0.3955
 3451TIP3    H231769   1.340   4.320  10.687 -1.7258  0.0587 -1.4421
 3452TIP3   OH231770   0.678   5.616   5.667  0.6637  0.2877 -0.5740
 3452TIP3    H131771   0.754   5.673   5.661 -0.3426  1.9144  1.3667
 3452TIP3    H231772   0.607   5.667   5.628 -0.5875  1.0916  2.5527
 3453TIP3   OH231773   0.157   6.170   5.355  0.0846  0.9161  0.0732
 3453TIP3    H131774   0.075   6.127   5.329 -0.4326  1.9234  0.0064
 3453TIP3    H231775   0.157   6.252   5.307  0.7625  1.2780  0.6816
 3454TIP3   OH231776   6.583   0.767   4.154 -0.0761 -0.3283  0.1918
 3454TIP3    H131777   6.489   0.750   4.151 -0.0621 -0.2994 -0.5251
 3454TIP3    H231778   6.591   0.852   4.197 -0.4210  0.0268 -0.4437
 3455TIP3   OH231779   3.916   3.851  11.044  0.3535  0.2260 -0.2469
 3455TIP3    H131780   3.863   3.913  11.094 -0.5823 -1.4860  0.8996
 3455TIP3    H231781   3.990   3.831  11.102  0.6974  0.3202 -0.6502
 3456TIP3   OH231782   2.967   4.224   5.363  0.4568 -0.4748  0.0335
 3456TIP3    H131783   3.022   4.148   5.382  0.0420 -1.0143 -0.8946
 3456TIP3    H231784   2.986   4.285   5.434  1.2173 -1.2137  0.4812
 3457TIP3   OH231785   1.311   3.312  13.767 -0.0434 -0.0284 -0.0806
 3457TIP3    H131786   1.387   3.260  13.743 -0.7093 -1.0744  0.0382
 3457TIP3    H231787   1.258   3.316  13.688 -0.6707 -0.7291  0.2946
 3458TIP3   OH231788   5.784   3.067  14.477  0.4529 -0.8077  0.2655
 3458TIP3    H131789   5.828   3.028  14.401  0.9796 -0.6540  0.4888
 3458TIP3    H231790   5.789   3.000  14.545  2.0869 -0.0592  0.9100
 3459TIP3   OH231791   2.839   5.735  13.566 -0.4998  0.2176  0.1626
 3459TIP3    H131792   2.932   5.720  13.547 -0.5641  0.5149 -0.3940
 3459TIP3    H231793   2.835   5.828  13.589 -0.4742 -0.0644  1.3320
 3460TIP3   OH231794   1.612   3.524  11.424 -0.3192  0.0828 -0.9757
 3460TIP3    H131795   1.654   3.605  11.453  1.1199 -1.3778  1.1155
 3460TIP3    H231796   1.560   3.550  11.347 -0.4936  3.1110  0.1154
 3461TIP3   OH231797   2.407   3.796   5.426  0.7772  0.7228 -0.0455
 3461TIP3    H131798   2.492   3.788   5.382 -0.4043 -1.6769 -2.0063
 3461TIP3    H231799   2.364   3.869   5.382  0.4022 -0.3929 -1.5830
 3462TIP3   OH231800   1.044   4.453   4.920  0.3414 -0.2116  0.1081
 3462TIP3    H131801   1.092   4.536   4.916  1.4687 -0.7734  1.3665
 3462TIP3    H231802   0.953   4.479   4.937  0.2463  0.8431 -1.8468
 3463TIP3   OH231803   6.709   5.474  13.312 -0.4518  0.0104 -0.4641
 3463TIP3    H131804   6.791   5.466  13.359  0.0205  1.6716 -0.9611
 3463TIP3    H231805   6.642   5.474  13.380 -0.0033 -0.6641 -0.0119
 3464TIP3   OH231806   2.815   2.201  11.775  0.1655 -0.3533  0.1640
 3464TIP3    H131807   2.832   2.110  11.801 -2.2369 -0.2869  2.1270
 3464TIP3    H231808   2.792   2.195  11.683 -1.1990 -1.9240  0.5713
 3465TIP3   OH231809   0.882   1.216  12.677  0.1612 -0.3572 -0.2491
 3465TIP3    H131810   0.912   1.268  12.751  0.3096 -0.3773 -0.2960
 3465TIP3    H231811   0.897   1.125  12.703 -0.3609 -0.3911 -0.0548
 3466TIP3   OH231812   4.127   2.684  15.462 -0.3539 -0.3635  1.0015
 3466TIP3    H131813   4.094   2.594  15.461 -0.5802 -0.2712 -0.2697
 3466TIP3    H231814   4.051   2.736  15.489 -0.2518 -0.5406  1.6354
 3467TIP3   OH231815   2.814   3.515  15.288 -0.1001 -0.0316 -0.4970
 3467TIP3    H131816   2.788   3.603  15.316  0.4267  0.5057 -1.6663
 3467TIP3    H231817   2.890   3.494  15.343 -0.5940 -0.0130  0.2047
 3468TIP3   OH231818   2.735   3.913  13.780  0.2420  0.2626  0.0237
 3468TIP3    H131819   2.647   3.951  13.777 -0.1293 -0.6547 -1.0933
 3468TIP3    H231820   2.730   3.847  13.849  1.2987  3.1589  2.9994
 3469TIP3   OH231821   0.682   5.770  13.870 -0.5359 -0.5359 -0.4735
 3469TIP3    H131822   0.668   5.863  13.855 -0.5522 -0.2928  0.9279
 3469TIP3    H231823   0.610   5.727  13.824  0.1059  0.0620 -2.0574
 3470TIP3   OH231824   3.718   6.199  15.429 -0.2841 -0.2787  0.2612
 3470TIP3    H131825   3.809   6.205  15.456  0.6106  0.2051 -2.6565
 3470TIP3    H231826   3.691   6.111  15.453  1.7567 -1.3053 -1.0948
 3471TIP3   OH231827   6.189   2.755  12.072  0.3173 -0.0845 -0.2570
 3471TIP3    H131828   6.212   2.664  12.090 -0.7934 -0.6423 -1.5487
 3471TIP3    H231829   6.104   2.767  12.114  0.5467  0.4224  0.0671
 3472TIP3   OH231830   1.864   6.258  17.074 -0.4089  0.4832  0.0111
 3472TIP3    H131831   1.835   6.204  17.000  1.8586 -0.7155 -0.0784
 3472TIP3    H231832   1.943   6.302  17.041 -0.4714  1.4248  1.0955
 3473TIP3   OH231833   0.508   3.151   3.828 -0.0004 -0.5727 -0.3026
 3473TIP3    H131834   0.443   3.219   3.814  0.5515  0.3377  1.3800
 3473TIP3    H231835   0.591   3.192   3.803  0.3802 -0.4856  1.0461
 3474TIP3   OH231836   0.744   4.686  13.737  0.2294 -0.0033  0.3421
 3474TIP3    H131837   0.788   4.605  13.763 -0.2935  0.2949  2.1609
 3474TIP3    H231838   0.802   4.755  13.767  0.1482  0.3388 -0.2705
 3475TIP3   OH231839   1.498   2.186  10.953  0.4861  0.5067  0.0704
 3475TIP3    H131840   1.507   2.092  10.940  0.3948  0.5779 -0.5697
 3475TIP3    H231841   1.577   2.223  10.913 -1.0526  0.9228 -2.7427
 3476TIP3   OH231842   2.517   4.263   0.092  0.6377 -0.0010  0.9704
 3476TIP3    H131843   2.496   4.310   0.011  0.3993 -2.6183 -0.5360
 3476TIP3    H231844   2.432   4.250   0.134  0.6534  0.5218  1.1646
 3477TIP3   OH231845   6.251   0.532   6.169  0.2458  0.5088  0.3473
 3477TIP3    H131846   6.168   0.577   6.182 -0.2134 -0.1882 -0.1607
 3477TIP3    H231847   6.234   0.441   6.192  1.4527  0.7658  2.3884
 3478TIP3   OH231848   2.242   5.062   6.425 -0.1082 -0.2149 -0.2300
 3478TIP3    H131849   2.323   5.013   6.436  0.6507  1.1890  0.5269
 3478TIP3    H231850   2.270   5.148   6.395 -1.3249  0.2518 -0.0477
 3479TIP3   OH231851   0.571   6.471   1.999 -0.4412 -0.1551 -0.2123
 3479TIP3    H131852   0.483   6.494   1.967  0.3028  0.4804 -1.8736
 3479TIP3    H231853   0.557   6.395   2.056 -1.9812 -0.5497 -1.0925
 3480TIP3   OH231854   0.923   1.721   4.902 -0.3831  0.0754  0.7222
 3480TIP3    H131855   0.881   1.650   4.950 -0.7342 -0.3261 -0.1574
 3480TIP3    H231856   0.910   1.699   4.810  0.7413  0.5506  0.4317
 3481TIP3   OH231857   1.319   1.791  12.967  0.4450  0.8040 -0.8261
 3481TIP3    H131858   1.297   1.713  12.916 -1.9385  0.4918  0.6057
 3481TIP3    H231859   1.254   1.856  12.940 -0.4630  0.8209  1.3015
 3482TIP3   OH231860   6.475   3.953   0.692  0.3604  0.1382  0.0581
 3482TIP3    H131861   6.416   3.931   0.621 -0.3329 -0.6352  0.8623
 3482TIP3    H231862   6.563   3.939   0.656  0.0709  1.2555 -1.1235
 3483TIP3   OH231863   6.079   6.304  11.797 -0.4858 -0.0581  0.4061
 3483TIP3    H131864   6.104   6.219  11.760  1.2848 -0.2917  2.0597
 3483TIP3    H231865   6.045   6.283  11.884  0.6477  0.9972  1.1070
 3484TIP3   OH231866   4.351   0.340  12.446 -0.2142  0.2936  0.3784
 3484TIP3    H131867   4.302   0.346  12.528  1.2802  0.6207  1.2607
 3484TIP3    H231868   4.366   0.432  12.421 -0.1416  0.1938  0.0538
 3485TIP3   OH231869   1.317   0.774  12.774 -0.8405  0.2834 -0.1864
 3485TIP3    H131870   1.232   0.735  12.797 -1.4102  1.5599 -0.0774
 3485TIP3    H231871   1.362   0.784  12.858 -1.1635  0.9415 -0.0942
 3486TIP3   OH231872   0.141   2.635  12.777  0.6780 -0.1685 -0.4298
 3486TIP3    H131873   0.127   2.617  12.870  0.3789 -1.3646 -0.7052
 3486TIP3    H231874   0.236   2.646  12.769  0.7457 -0.4878 -0.0623
 3487TIP3   OH231875   0.681   5.244   3.477  0.1999  0.1660  0.2195
 3487TIP3    H131876   0.765   5.274   3.513  1.1974 -2.1180 -0.1138
 3487TIP3    H231877   0.617   5.268   3.544  1.1678  1.6279  0.6466
 3488TIP3   OH231878   3.378   3.224   5.627 -0.2263  0.2772 -0.1855
 3488TIP3    H131879   3.414   3.261   5.547  0.7445  1.6840  0.8682
 3488TIP3    H231880   3.445   3.162   5.657 -0.4227  0.0234 -0.2723
 3489TIP3   OH231881   2.249   2.046   4.601 -0.3120 -0.1269 -0.0154
 3489TIP3    H131882   2.189   2.121   4.604  1.4507  1.4812 -2.6318
 3489TIP3    H231883   2.309   2.061   4.673 -0.4410  0.5731 -0.0429
 3490TIP3   OH231884   6.278   2.663   1.914  0.4396  0.2205  0.4140
 3490TIP3    H131885   6.337   2.713   1.857  1.6729 -1.8926 -0.2405
 3490TIP3    H231886   6.196   2.658   1.865 -0.2458  2.9570  1.2128
 3491TIP3   OH231887   3.468   3.409   0.332 -0.1065  0.2840  0.0891
 3491TIP3    H131888   3.484   3.325   0.289  1.5320  0.0497  1.1176
 3491TIP3    H231889   3.454   3.387   0.424 -1.2315  1.0019  0.1029
 3492TIP3   OH231890   6.664   2.939  11.158 -0.5581  0.1922 -0.5619
 3492TIP3    H131891   6.602   2.895  11.099 -0.9754  0.4427 -0.3170
 3492TIP3    H231892   6.608   2.976  11.227 -0.1018  0.1452 -0.1668
 3493TIP3   OH231893   6.206   1.772  17.229  0.0928 -0.0127  0.2596
 3493TIP3    H131894   6.136   1.771  17.164  0.0668 -0.9744  0.3051
 3493TIP3    H231895   6.165   1.807  17.309 -0.1385  0.1411  0.0736
 3494TIP3   OH231896   5.924   5.476   1.514  0.7013  0.2631 -0.8512
 3494TIP3    H131897   5.959   5.402   1.563 -0.2806  0.8788  0.8375
 3494TIP3    H231898   5.885   5.532   1.581 -0.1900  1.3945 -2.2929
 3495TIP3   OH231899   0.441   2.528  12.507 -0.4190 -0.0558 -0.1205
 3495TIP3    H131900   0.375   2.556  12.444  0.2539  0.7623 -0.4688
 3495TIP3    H231901   0.524   2.535  12.460  0.2856  2.3281  1.4049
 3496TIP3   OH231902   3.938   5.332   6.398  0.6233  0.0854 -0.2642
 3496TIP3    H131903   4.013   5.283   6.367  0.0770  0.2247 -1.8654
 3496TIP3    H231904   3.870   5.266   6.413  0.0829  0.2531 -1.8367
 3497TIP3   OH231905   1.097   0.835   0.877 -0.1352 -0.5542  0.1668
 3497TIP3    H131906   1.038   0.907   0.857 -0.4590 -1.0605 -0.7553
 3497TIP3    H231907   1.099   0.831   0.972 -0.6514  0.2287  0.2161
 3498TIP3   OH231908   1.320   3.882  11.782 -0.1333  0.3527 -0.0213
 3498TIP3    H131909   1.269   3.876  11.863  1.3502  0.1424  0.9176
 3498TIP3    H231910   1.347   3.974  11.778  1.0462  0.0382  0.5149
 3499TIP3   OH231911   5.602   5.689  14.712 -0.1973  0.0370 -0.3464
 3499TIP3    H131912   5.696   5.685  14.730  0.0298  0.1744 -1.4511
 3499TIP3    H231913   5.566   5.745  14.781  0.5765  0.2108 -0.0821
 3500TIP3   OH231914   2.669   5.785  14.171  0.0760  0.0525  0.5230
 3500TIP3    H131915   2.595   5.730  14.144 -0.3598  1.3960 -1.0612
 3500TIP3    H231916   2.629   5.866  14.202  0.8635  0.5887  0.1556
 3501TIP3   OH231917   6.708   3.965  14.424 -0.5061 -0.3268  0.0945
 3501TIP3    H131918   6.675   4.035  14.367 -1.4250 -0.1106  0.8944
 3501TIP3    H231919   6.779   4.006  14.473 -1.3315  0.1752  0.8821
 3502TIP3   OH231920   6.240   1.772  13.037  0.4265 -0.6821  0.1088
 3502TIP3    H131921   6.244   1.739  13.127  1.6839  1.0025  0.6932
 3502TIP3    H231922   6.255   1.866  13.046 -3.2390  0.1493 -1.4954
 3503TIP3   OH231923   0.780   5.790   4.298  0.0843 -0.2152 -0.1467
 3503TIP3    H131924   0.697   5.745   4.311  1.3868 -2.2910  1.3461
 3503TIP3    H231925   0.789   5.847   4.374 -0.7688  1.3102 -1.1787
 3504TIP3   OH231926   0.737   2.471   4.367  0.0372 -0.2798  0.3523
 3504TIP3    H131927   0.805   2.413   4.331  0.2988  0.0001  0.3959
 3504TIP3    H231928   0.664   2.412   4.386  0.5993 -0.7266  1.1592
 3505TIP3   OH231929   3.174   5.746  12.405 -0.0499  0.4549 -0.3346
 3505TIP3    H131930   3.093   5.786  12.373 -2.0546 -2.4794  0.8512
 3505TIP3    H231931   3.187   5.670  12.348  2.5918  1.5936 -1.3029
 3506TIP3   OH231932   5.256   5.214   4.364 -0.0505  0.0441 -0.4229
 3506TIP3    H131933   5.203   5.295   4.367  1.3424  1.0895 -2.6083
 3506TIP3    H231934   5.192   5.145   4.346 -0.7961  1.2260 -2.5351
 3507TIP3   OH231935   1.050   3.810  11.610  0.5501  0.2898  0.9247
 3507TIP3    H131936   1.111   3.739  11.628  0.3279 -0.3616 -0.7676
 3507TIP3    H231937   1.091   3.859  11.539  0.4767  1.5940  1.7669
 3508TIP3   OH231938   0.862   1.679   1.107 -0.5751  0.5768 -0.1003
 3508TIP3    H131939   0.832   1.595   1.073  0.0899 -0.6593  2.2702
 3508TIP3    H231940   0.951   1.688   1.075 -0.2871 -0.1187  0.4927
 3509TIP3   OH231941   5.608   1.519  14.374 -0.8960  0.4726  0.1493
 3509TIP3    H131942   5.513   1.530  14.361 -0.6656  1.4540 -0.7735
 3509TIP3    H231943   5.645   1.604  14.351  0.0665  0.6399  2.2192
 3510TIP3   OH231944   5.370   0.244  15.672 -0.3053  0.7339 -0.4417
 3510TIP3    H131945   5.392   0.150  15.677  0.1697  0.8922  0.5324
 3510TIP3    H231946   5.341   0.266  15.760 -1.1208  1.3407 -0.8622
 3511TIP3   OH231947   3.603   0.380  15.631  1.1039  0.0962  0.7864
 3511TIP3    H131948   3.556   0.296  15.632  0.6665  0.3452  1.3309
 3511TIP3    H231949   3.637   0.387  15.541 -0.3881  0.1819  0.2177
 3512TIP3   OH231950   1.571   5.710   3.631 -0.2315  1.1037  0.1833
 3512TIP3    H131951   1.661   5.732   3.656  0.4485  0.7825 -1.9113
 3512TIP3    H231952   1.532   5.675   3.711  1.4624  1.3815  1.1533
 3513TIP3   OH231953   2.957   5.892   3.508  0.1719  0.3814  0.8862
 3513TIP3    H131954   2.871   5.868   3.542 -0.1022  0.7006  0.4241
 3513TIP3    H231955   2.957   5.860   3.418  1.5575 -2.0472  1.7041
 3514TIP3   OH231956   4.877   2.071   0.656 -0.0630  0.3771 -0.1332
 3514TIP3    H131957   4.850   2.060   0.748 -0.2351  0.7683 -0.1382
 3514TIP3    H231958   4.972   2.069   0.658 -0.0701  0.0885  0.0181
 3515TIP3   OH231959   3.742   6.071  15.064 -0.5211 -0.5394 -0.5139
 3515TIP3    H131960   3.728   6.127  14.987 -0.3393 -0.8205 -0.7525
 3515TIP3    H231961   3.677   6.101  15.127 -0.9851 -0.6220 -0.9508
 3516TIP3   OH231962   5.119   5.169  13.324  0.5280  0.2601 -0.8852
 3516TIP3    H131963   5.155   5.156  13.236  1.4602 -0.3269 -0.4344
 3516TIP3    H231964   5.144   5.089  13.372  1.8788  1.4794  0.4956
 3517TIP3   OH231965   5.547   0.606   2.413 -0.0692  0.3800 -0.1339
 3517TIP3    H131966   5.601   0.567   2.343 -1.2713 -0.2612 -0.7205
 3517TIP3    H231967   5.594   0.686   2.437  1.2265 -0.2410 -0.5268
 3518TIP3   OH231968   5.241   4.439   5.950  0.1185  0.6885  0.7773
 3518TIP3    H131969   5.235   4.423   6.044  0.6662  1.5123  0.9630
 3518TIP3    H231970   5.232   4.353   5.909 -0.5523  0.3871  1.5643
 3519TIP3   OH231971   0.531   4.039   0.527 -0.4899  0.6094  0.4120
 3519TIP3    H131972   0.606   4.097   0.538 -0.5140  0.5750  0.7460
 3519TIP3    H231973   0.569   3.952   0.512 -0.4784  0.2933  2.2312
 3520TIP3   OH231974   4.610   4.041   0.761  0.4964  0.4723  0.0299
 3520TIP3    H131975   4.654   3.995   0.832 -2.5529 -0.4761  1.3619
 3520TIP3    H231976   4.529   4.074   0.799  0.0517  2.2504 -2.3260
 3521TIP3   OH231977   1.974   5.422  14.190  0.3780 -0.2909 -0.8895
 3521TIP3    H131978   2.036   5.495  14.179  0.0784 -0.0152 -0.7501
 3521TIP3    H231979   1.916   5.451  14.260 -0.4933 -0.1486 -1.6522
 3522TIP3   OH231980   5.546   0.942  16.211 -0.6319  0.1329 -0.0901
 3522TIP3    H131981   5.456   0.938  16.244 -0.0167 -1.5031  1.4879
 3522TIP3    H231982   5.569   1.035  16.215 -1.5803  0.3241  1.3806
 3523TIP3   OH231983   2.644   6.302  12.484 -0.1669 -0.2473 -0.0805
 3523TIP3    H131984   2.598   6.377  12.522  3.5440  1.9147  0.3874
 3523TIP3    H231985   2.623   6.229  12.542 -3.2572  0.5405 -0.1226
 3524TIP3   OH231986   5.313   2.962  16.424 -0.1547 -0.1325  0.4382
 3524TIP3    H131987   5.343   2.875  16.397  1.0282 -0.2408  2.0191
 3524TIP3    H231988   5.218   2.959  16.416 -0.2432 -2.0713  1.9097
 3525TIP3   OH231989   4.668   5.603  16.818  0.0063  0.4626 -0.2017
 3525TIP3    H131990   4.593   5.575  16.765 -0.8867  0.6724  0.9314
 3525TIP3    H231991   4.653   5.695  16.836  0.4125  0.4511  0.2267
 3526TIP3   OH231992   2.736   4.316  11.112  0.9445  0.3277  0.3295
 3526TIP3    H131993   2.674   4.252  11.145  2.4777 -0.8672  0.9475
 3526TIP3    H231994   2.770   4.360  11.190 -0.1806  1.9708 -0.1008
 3527TIP3   OH231995   2.758   5.444   1.073 -0.1462  0.4225  0.7164
 3527TIP3    H131996   2.669   5.466   1.046 -0.7241 -1.8446  0.7124
 3527TIP3    H231997   2.748   5.402   1.158  0.8549 -0.4052  0.4371
 3528TIP3   OH231998   5.883   2.175   5.679  0.1878 -0.6250 -0.3733
 3528TIP3    H131999   5.846   2.238   5.617 -0.1745 -1.2953 -0.8457
 3528TIP3    H232000   5.977   2.194   5.679  0.1510 -0.4405 -0.9284
 3529TIP3   OH232001   4.553   4.302   5.561  0.2802 -0.2965 -0.1317
 3529TIP3    H132002   4.477   4.357   5.583  0.6731 -0.2722  1.1723
 3529TIP3    H232003   4.628   4.360   5.572  0.6616 -0.9747  0.7992
 3530TIP3   OH232004   3.749   0.846   3.205  0.1024  0.4199  0.6284
 3530TIP3    H132005   3.664   0.803   3.209 -0.9153  2.4276  0.8741
 3530TIP3    H232006   3.761   0.885   3.291  0.7594  1.1282  0.2180
 3531TIP3   OH232007   6.475   3.146  12.050 -0.1410  0.2198  0.2607
 3531TIP3    H132008   6.492   3.058  12.085 -4.8474 -0.9682 -0.0829
 3531TIP3    H232009   6.515   3.146  11.963 -2.1141 -2.4903 -0.7087
 3532TIP3   OH232010   2.690   4.400  16.432  0.2128 -0.1619  0.2041
 3532TIP3    H132011   2.619   4.411  16.495  0.0964 -0.0409  0.0520
 3532TIP3    H232012   2.692   4.483  16.384  1.4146  0.4072  1.1961
 3533TIP3   OH232013   0.459   3.450   3.008  0.3383  0.3174 -0.2596
 3533TIP3    H132014   0.371   3.413   3.008 -0.0323  1.1652 -1.3952
 3533TIP3    H232015   0.468   3.491   3.094 -0.7485  1.0943 -0.5045
 3534TIP3   OH232016   1.095   3.790  13.002 -0.4826  0.0771  0.4221
 3534TIP3    H132017   1.072   3.875  13.040 -0.5653  0.5703 -0.6961
 3534TIP3    H232018   1.073   3.799  12.909 -0.0974 -1.0265  0.2147
 3535TIP3   OH232019   1.053   5.214  12.120 -0.8910 -0.0123  0.2678
 3535TIP3    H132020   1.113   5.220  12.045 -1.7453  2.3974 -0.2546
 3535TIP3    H232021   1.097   5.263  12.189 -1.0081 -0.5781  0.7434
 3536TIP3   OH232022   2.984   4.409   4.803  0.2063  0.2081  0.1341
 3536TIP3    H132023   3.040   4.333   4.820 -0.8257 -0.8951 -1.2758
 3536TIP3    H232024   2.975   4.451   4.888 -0.4269 -2.1030  1.2500
 3537TIP3   OH232025   0.402   6.068   3.761  0.2749 -0.0062  0.0794
 3537TIP3    H132026   0.479   6.019   3.732  0.2910 -0.6139  1.1227
 3537TIP3    H232027   0.426   6.160   3.746  0.9878 -0.2186 -0.1260
 3538TIP3   OH232028   3.745   4.785  11.386  0.0007 -0.4487  0.3076
 3538TIP3    H132029   3.674   4.801  11.448 -0.5726  0.4848 -0.5686
 3538TIP3    H232030   3.817   4.751  11.439 -0.7617 -0.4376  1.3524
 3539TIP3   OH232031   4.273   3.826  13.858 -0.6886  0.6263  0.0028
 3539TIP3    H132032   4.301   3.903  13.908 -1.8124  1.8155 -1.1406
 3539TIP3    H232033   4.217   3.862  13.789 -0.7150 -1.1707 -0.9371
 3540TIP3   OH232034   5.186   4.494   0.783 -0.0015 -0.3945  0.2694
 3540TIP3    H132035   5.114   4.548   0.751  0.3011  0.2615  0.7030
 3540TIP3    H232036   5.225   4.544   0.854  1.2941 -0.4495 -0.3801
 3541TIP3   OH232037   3.412   3.868  16.918  0.9284  0.1767 -0.3175
 3541TIP3    H132038   3.386   3.816  16.994  1.9534 -1.6652 -1.2003
 3541TIP3    H232039   3.347   3.938  16.914 -2.9527 -3.2784 -1.4284
 3542TIP3   OH232040   2.104   4.818  17.068 -0.9802 -0.3130  0.0541
 3542TIP3    H132041   2.018   4.776  17.060 -0.8899 -0.2528 -1.3241
 3542TIP3    H232042   2.131   4.835  16.978  0.1832  0.2816  0.5057
 3543TIP3   OH232043   3.947   4.247  16.661  0.0095 -0.2415  0.3546
 3543TIP3    H132044   3.871   4.198  16.693  0.5710 -0.3573  1.5144
 3543TIP3    H232045   3.926   4.266  16.569 -1.0081 -1.0870  0.4038
 3544TIP3   OH232046   6.688   5.899  13.059 -0.6143  0.0933  0.6479
 3544TIP3    H132047   6.629   5.843  13.110 -1.5210 -0.9564 -1.5069
 3544TIP3    H232048   6.775   5.882  13.095 -0.3407 -5.3697 -2.1665
 3545TIP3   OH232049   5.149   5.888   5.877  0.6145 -0.0063 -0.2294
 3545TIP3    H132050   5.213   5.889   5.806  0.1183  0.0832 -0.6778
 3545TIP3    H232051   5.102   5.971   5.868 -0.0704 -0.4045 -0.3713
 3546TIP3   OH232052   6.412   2.710   0.051  0.3829  0.4138  0.5185
 3546TIP3    H132053   6.406   2.726  -0.043  0.4492  0.3183  0.4989
 3546TIP3    H232054   6.495   2.751   0.077  0.6094  0.0114  0.4454
 3547TIP3   OH232055   4.131   5.091   4.059 -0.6303  0.1183  0.3077
 3547TIP3    H132056   4.164   5.016   4.109  0.3325  0.2915 -0.0526
 3547TIP3    H232057   4.188   5.163   4.085 -1.3122  0.6390  0.3613
 3548TIP3   OH232058   0.237   2.486   5.405 -0.3640  0.2345 -0.1676
 3548TIP3    H132059   0.269   2.576   5.412  0.4382 -0.1511  1.1840
 3548TIP3    H232060   0.150   2.495   5.366 -1.2167  1.7799  1.9857
 3549TIP3   OH232061   4.792   3.799  14.624 -0.0063  0.3199 -0.1528
 3549TIP3    H132062   4.804   3.763  14.536 -1.9697 -2.7411  0.7459
 3549TIP3    H232063   4.814   3.727  14.682 -0.7206  1.6578  1.8339
 3550TIP3   OH232064   1.143   0.830  13.433 -0.1858 -1.1872  0.2766
 3550TIP3    H132065   1.185   0.902  13.387 -0.7856 -0.4062  0.9360
 3550TIP3    H232066   1.055   0.863  13.455 -0.0568 -1.6743  1.6214
 3551TIP3   OH232067   0.585   2.081  11.631 -0.0863  0.3440 -0.0385
 3551TIP3    H132068   0.640   2.158  11.639  2.2465 -1.3442  0.7970
 3551TIP3    H232069   0.569   2.054  11.722 -2.5589  0.9477 -0.2503
 3552TIP3   OH232070   1.072   1.508   2.480 -0.1703 -0.1440 -0.3987
 3552TIP3    H132071   0.980   1.533   2.490 -0.1241 -0.1493  0.0291
 3552TIP3    H232072   1.105   1.566   2.412 -0.5319 -0.2468 -0.6648
 3553TIP3   OH232073   2.095   4.755  11.167  0.5126  0.1089  0.5322
 3553TIP3    H132074   2.038   4.728  11.095  0.3168  1.9665 -0.0403
 3553TIP3    H232075   2.070   4.846  11.184  3.3858  0.9909  0.1899
 3554TIP3   OH232076   5.805   0.316   2.385 -0.2387  1.0397  0.2263
 3554TIP3    H132077   5.898   0.315   2.359 -0.4338 -0.7270 -0.5284
 3554TIP3    H232078   5.759   0.349   2.307 -0.3746  0.4581  0.0578
 3555TIP3   OH232079   4.240   2.939   1.136  0.0791  0.7352 -0.7306
 3555TIP3    H132080   4.185   2.978   1.068 -1.2989 -0.3465 -0.2700
 3555TIP3    H232081   4.180   2.928   1.210  0.7724 -1.0118 -0.4135
 3556TIP3   OH232082   6.770   0.312   4.843  0.0576  0.3227 -0.2201
 3556TIP3    H132083   6.790   0.405   4.833 -0.3033  0.3623 -0.5829
 3556TIP3    H232084   6.782   0.276   4.756 -3.3971  0.7299 -0.9420
 3557TIP3   OH232085   6.743   5.243  10.555  0.0372 -0.6390 -0.1930
 3557TIP3    H132086   6.732   5.335  10.532 -0.1694 -0.5797  0.1368
 3557TIP3    H232087   6.836   5.233  10.575  0.0036 -0.4333  0.0693
 3558TIP3   OH232088   4.657   5.176   2.772 -0.8018  0.3208 -0.1623
 3558TIP3    H132089   4.707   5.100   2.801 -3.0370 -1.1917 -0.1548
 3558TIP3    H232090   4.649   5.231   2.849 -0.1543  0.0181  0.1245
 3559TIP3   OH232091   5.493   5.358   3.595  0.0415 -1.4174 -0.1922
 3559TIP3    H132092   5.477   5.264   3.605 -1.3960 -1.1194  0.3799
 3559TIP3    H232093   5.455   5.379   3.510 -0.6818 -1.1254  0.2034
 3560TIP3   OH232094   5.267   4.616  11.905  0.5939 -0.1637 -0.3938
 3560TIP3    H132095   5.213   4.638  11.981  0.2827 -0.0628 -0.6398
 3560TIP3    H232096   5.347   4.668  11.916  1.0475 -1.0345  0.4661
 3561TIP3   OH232097   1.883   4.541  12.713  0.5276 -0.0624 -0.2885
 3561TIP3    H132098   1.946   4.471  12.732 -0.2447 -1.0489 -1.2688
 3561TIP3    H232099   1.900   4.607  12.780  1.4582 -1.0692  0.5004
 3562TIP3   OH232100   5.842   3.007  13.623  0.9932 -0.0553 -0.3273
 3562TIP3    H132101   5.750   3.020  13.648  0.6210  0.2921 -1.7800
 3562TIP3    H232102   5.858   2.914  13.640 -0.3397 -0.6597 -2.1263
 3563TIP3   OH232103   2.769   2.788   0.812 -0.2776 -0.3157 -0.3416
 3563TIP3    H132104   2.829   2.826   0.876  0.9013 -2.0057 -0.4261
 3563TIP3    H232105   2.734   2.864   0.765  0.6163  0.7913  0.7232
 3564TIP3   OH232106   3.702   0.667   4.219 -0.3614 -0.8557  0.0137
 3564TIP3    H132107   3.752   0.631   4.146 -1.1732 -0.4184 -0.7645
 3564TIP3    H232108   3.638   0.599   4.240 -0.2761 -0.8880  0.1680
 3565TIP3   OH232109   2.041   5.126  13.845  0.1397  1.0089  0.1921
 3565TIP3    H132110   2.087   5.175  13.913 -0.9932  2.7181 -0.2447
 3565TIP3    H232111   1.990   5.192  13.798  1.4909  0.0080 -2.8424
 3566TIP3   OH232112   0.696   0.351  14.602 -1.1483 -0.0518 -0.2071
 3566TIP3    H132113   0.780   0.351  14.647 -2.7327  0.6812  2.8723
 3566TIP3    H232114   0.660   0.263  14.618 -1.2855 -0.1349 -0.9343
 3567TIP3   OH232115   2.190   1.812   4.476  0.8704  0.3413 -0.1740
 3567TIP3    H132116   2.173   1.846   4.388  0.9840  1.6487  0.3118
 3567TIP3    H232117   2.230   1.885   4.523 -1.6336  0.4975  1.7861
 3568TIP3   OH232118   2.953   0.887   1.486 -0.1859 -0.2396 -0.8668
 3568TIP3    H132119   2.941   0.960   1.546 -1.3970 -2.2106  1.4154
 3568TIP3    H232120   2.870   0.882   1.439 -0.8474 -1.2787  0.3584
 3569TIP3   OH232121   5.392   3.819   2.512 -0.0204  0.2254 -0.2804
 3569TIP3    H132122   5.408   3.764   2.589 -0.0409 -1.2463 -1.2913
 3569TIP3    H232123   5.455   3.890   2.519  1.3847 -1.0184  0.0603
 3570TIP3   OH232124   4.226   2.085  11.570 -0.2302  0.0738  0.5518
 3570TIP3    H132125   4.260   2.175  11.566 -0.3817  0.1019 -0.0189
 3570TIP3    H232126   4.133   2.095  11.587  0.1391 -0.0139  2.8235
 3571TIP3   OH232127   1.100   1.652  14.437  0.1800 -0.4001  0.0752
 3571TIP3    H132128   1.155   1.573  14.436  0.3831 -0.2610 -0.9106
 3571TIP3    H232129   1.068   1.658  14.527 -0.4277 -2.0216 -0.0051
 3572TIP3   OH232130   2.220   4.197   2.248 -0.5937  0.0745 -0.0432
 3572TIP3    H132131   2.184   4.109   2.253  0.1529 -0.1803  0.9565
 3572TIP3    H232132   2.256   4.213   2.334 -1.1449  1.5512 -0.0688
 3573TIP3   OH232133   0.218   2.690   4.919 -0.0690 -0.4619  0.6660
 3573TIP3    H132134   0.272   2.692   4.840 -1.4081  0.8962 -0.2499
 3573TIP3    H232135   0.200   2.782   4.938 -0.2252 -0.8051  2.2328
 3574TIP3   OH232136   5.109   0.172   4.523  0.1823  0.5085 -0.3039
 3574TIP3    H132137   5.105   0.096   4.465  3.3118 -0.0667  0.1603
 3574TIP3    H232138   5.172   0.230   4.481 -0.3604  1.7960  0.6190
 3575TIP3   OH232139   4.388   1.923  15.118 -0.1071  0.5943 -0.5151
 3575TIP3    H132140   4.344   1.961  15.194 -0.5693  0.1361 -0.5514
 3575TIP3    H232141   4.403   1.832  15.143 -0.1812  0.4665 -0.9409
 3576TIP3   OH232142   5.871   4.442   4.937  0.6006 -0.6711  0.4026
 3576TIP3    H132143   5.827   4.368   4.895 -0.5762  0.3943 -0.2886
 3576TIP3    H232144   5.961   4.440   4.903 -0.0280 -0.4953 -1.3149
 3577TIP3   OH232145   0.972   5.654   2.580  0.2663  0.2624 -0.1750
 3577TIP3    H132146   0.965   5.745   2.607  0.7155 -0.0711  1.1417
 3577TIP3    H232147   0.898   5.639   2.521  0.2659  1.4995 -0.4885
 3578TIP3   OH232148   3.750   6.069   6.075  0.2945  0.0861  0.0954
 3578TIP3    H132149   3.758   6.068   5.980 -0.0810  0.6355  0.0584
 3578TIP3    H232150   3.657   6.083   6.092  0.3436 -0.1088  0.5467
 3579TIP3   OH232151   1.697   3.100  15.649  0.0384 -0.1335  0.3471
 3579TIP3    H132152   1.603   3.107  15.669  0.0181  1.8342 -0.4381
 3579TIP3    H232153   1.702   3.108  15.554  0.7595 -3.1659  0.0741
 3580TIP3   OH232154   5.158   0.916   6.090 -0.3008  0.1131 -0.2042
 3580TIP3    H132155   5.190   0.875   6.171  0.3484  0.8832 -0.0637
 3580TIP3    H232156   5.221   0.890   6.023 -0.2204  0.3966 -0.2372
 3581TIP3   OH232157   3.445   5.592  12.152 -0.4064 -0.3312 -0.5401
 3581TIP3    H132158   3.521   5.604  12.095 -0.8133 -1.8808 -1.4355
 3581TIP3    H232159   3.370   5.610  12.095 -0.7548  0.1085  0.0502
 3582TIP3   OH232160   4.635   2.578  13.224  0.2546  0.5121 -0.0864
 3582TIP3    H132161   4.562   2.630  13.189  0.6754  2.0013  1.1746
 3582TIP3    H232162   4.662   2.626  13.302 -0.5299 -2.5964  2.1950
 3583TIP3   OH232163   0.196   6.571  16.938  0.0713 -0.0715 -0.6233
 3583TIP3    H132164   0.239   6.629  16.876 -2.0538 -0.3395 -2.3994
 3583TIP3    H232165   0.107   6.605  16.947 -0.2762 -1.2429  0.7095
 3584TIP3   OH232166   4.162   4.809  11.846  0.5642  0.3158 -0.0268
 3584TIP3    H132167   4.196   4.731  11.802 -2.4613 -0.5545 -0.9329
 3584TIP3    H232168   4.212   4.881  11.809 -0.8341 -0.5618 -3.7950
 3585TIP3   OH232169   3.074   1.622   1.281  0.0496  0.5095  0.1501
 3585TIP3    H132170   3.141   1.690   1.286  1.4638 -0.7616 -1.2637
 3585TIP3    H232171   3.061   1.607   1.187 -3.1211  1.5833  0.3415
 3586TIP3   OH232172   1.983   1.450  15.160 -0.2704  0.3143  0.4310
 3586TIP3    H132173   1.983   1.452  15.064 -0.9277  0.2083  0.4293
 3586TIP3    H232174   2.072   1.422  15.183  0.1965  1.3223 -0.1264
 3587TIP3   OH232175   2.273   4.085   4.200  0.0995  0.1686 -0.3356
 3587TIP3    H132176   2.281   4.045   4.287  1.6897  0.5752 -0.2841
 3587TIP3    H232177   2.240   4.173   4.218 -0.7033 -0.1420 -0.2453
 3588TIP3   OH232178   4.250   6.616   3.417 -0.3582 -0.4404  0.1560
 3588TIP3    H132179   4.337   6.650   3.438 -0.7900  1.2740 -0.7161
 3588TIP3    H232180   4.265   6.550   3.350  0.2549  0.1486 -0.2931
 3589TIP3   OH232181   6.136   3.657  14.436 -0.1112 -0.5033 -0.2263
 3589TIP3    H132182   6.206   3.592  14.431 -0.5225 -1.0579  0.9931
 3589TIP3    H232183   6.098   3.644  14.523  1.0406  2.6750  0.8016
 3590TIP3   OH232184   6.473   3.549   3.170 -0.4596  0.0307  0.0435
 3590TIP3    H132185   6.442   3.498   3.245  0.2381 -1.5051 -0.6729
 3590TIP3    H232186   6.446   3.639   3.189 -2.1442 -0.6695  1.1323
 3591TIP3   OH232187   0.291   4.306  14.658 -0.0252 -0.1388  0.2480
 3591TIP3    H132188   0.321   4.392  14.688 -2.6839  0.9887 -0.1161
 3591TIP3    H232189   0.267   4.259  14.738  0.5312 -0.1881  0.3881
 3592TIP3   OH232190   1.246   2.157   4.557 -0.0114 -0.0292 -0.5199
 3592TIP3    H132191   1.151   2.160   4.554  0.0482  0.9099 -1.4876
 3592TIP3    H232192   1.271   2.229   4.615  0.1460  0.2022 -0.8772
 3593TIP3   OH232193   1.297   6.682   0.272 -0.0176 -0.0435 -0.0817
 3593TIP3    H132194   1.219   6.713   0.226  0.4126 -0.4021 -1.0607
 3593TIP3    H232195   1.263   6.632   0.346 -0.7140  1.1492  0.4051
 3594TIP3   OH232196   1.793   6.429   0.713 -0.1260 -0.0934  0.0606
 3594TIP3    H132197   1.734   6.385   0.651 -2.1079  1.1206  1.0282
 3594TIP3    H232198   1.758   6.406   0.799  2.9223 -2.1989  0.7977
 3595TIP3   OH232199   2.298   4.843   5.404 -0.0941  0.3547  0.3429
 3595TIP3    H132200   2.377   4.893   5.384  0.5193 -0.8063 -0.2487
 3595TIP3    H232201   2.257   4.889   5.476  0.0783  2.0939 -0.6541
 3596TIP3   OH232202   4.097   1.841   6.120 -0.3975 -0.2334 -0.2740
 3596TIP3    H132203   4.166   1.898   6.087  1.1480 -1.6829  0.3721
 3596TIP3    H232204   4.026   1.901   6.144  1.0771  1.4060  0.1439
 3597TIP3   OH232205   2.490   4.047   1.367  0.3518  0.0271 -1.0283
 3597TIP3    H132206   2.472   4.087   1.282  2.0525 -0.6739 -1.7266
 3597TIP3    H232207   2.577   4.009   1.358  0.6058  0.0916  1.0954
 3598TIP3   OH232208   6.074   1.406   0.766  0.1695 -0.0137  0.2195
 3598TIP3    H132209   5.984   1.376   0.757 -0.8164  2.9252 -0.1617
 3598TIP3    H232210   6.126   1.326   0.770 -2.4410 -1.7420  0.3623
 3599TIP3   OH232211   0.626   5.026   0.698  0.2858  1.0875 -0.0728
 3599TIP3    H132212   0.610   5.034   0.792  0.2598 -0.2827  0.0578
 3599TIP3    H232213   0.715   5.061   0.686  0.3674  1.0889  0.5000
 3600TIP3   OH232214   1.751   5.007   2.160 -0.1541  0.0555 -0.8960
 3600TIP3    H132215   1.787   5.073   2.219  2.0079 -1.4230 -0.4829
 3600TIP3    H232216   1.790   5.026   2.075  0.9998 -1.0324 -0.6351
 3601TIP3   OH232217   3.365   0.773   6.213  0.3165 -0.3047 -0.3363
 3601TIP3    H132218   3.300   0.788   6.144  0.3396 -0.4976 -0.4024
 3601TIP3    H232219   3.322   0.802   6.293 -0.0418 -0.9065 -0.3054
 3602TIP3   OH232220   5.548   4.558  13.821  0.1008  0.2345  0.6168
 3602TIP3    H132221   5.524   4.649  13.842 -0.8241  0.2236 -0.3581
 3602TIP3    H232222   5.502   4.506  13.887 -0.8898  0.3532  0.0210
 3603TIP3   OH232223   3.664   4.757  17.113  0.3943 -0.0691  0.1985
 3603TIP3    H132224   3.603   4.815  17.159  0.8064 -0.5064  1.2917
 3603TIP3    H232225   3.740   4.751  17.171  1.5333  0.5473 -1.1902
 3604TIP3   OH232226   5.129   3.085  14.341  0.2301 -0.0087 -0.3247
 3604TIP3    H132227   5.135   3.171  14.383  0.5998 -0.0236 -0.3405
 3604TIP3    H232228   5.063   3.038  14.391  0.2851  0.1621 -0.0918
 3605TIP3   OH232229   3.064   6.581   2.529 -0.1280 -0.4111 -0.4936
 3605TIP3    H132230   2.998   6.568   2.597  2.6165  1.4218  2.6715
 3605TIP3    H232231   3.047   6.669   2.496 -0.5525 -0.7495 -1.1920
 3606TIP3   OH232232   2.480   6.129   1.754  1.0704  0.7234 -0.4465
 3606TIP3    H132233   2.524   6.213   1.766  1.1240  0.8399 -1.3814
 3606TIP3    H232234   2.392   6.153   1.726  0.3900  0.4908  1.4608
 3607TIP3   OH232235   0.223   5.068  16.501  0.1675 -0.6007  0.3798
 3607TIP3    H132236   0.199   5.158  16.480 -0.6357 -0.6543  1.0386
 3607TIP3    H232237   0.180   5.016  16.433  1.1954 -0.4375 -0.4005
 3608TIP3   OH232238   6.486   2.914  13.323  0.0509  0.4116  0.1658
 3608TIP3    H132239   6.449   3.000  13.304 -1.4705 -0.0872  0.7951
 3608TIP3    H232240   6.538   2.927  13.402  0.3805  0.8980 -0.1315
 3609TIP3   OH232241   6.031   3.562  16.696 -0.8767  0.0112 -0.5396
 3609TIP3    H132242   6.045   3.472  16.664  1.2156  0.2937 -0.5159
 3609TIP3    H232243   6.030   3.616  16.617  1.6924  0.3935 -0.3670
 3610TIP3   OH232244   3.627   2.374   1.005  0.2722  0.6124 -0.4038
 3610TIP3    H132245   3.718   2.397   0.984  1.3584 -3.2910 -0.3344
 3610TIP3    H232246   3.600   2.315   0.935 -1.5113  0.0454  0.7216
 3611TIP3   OH232247   5.954   0.927  15.582  0.8112 -0.2316  0.1863
 3611TIP3    H132248   5.976   0.974  15.663  0.5076  1.7645 -0.8742
 3611TIP3    H232249   6.019   0.955  15.519  1.9681 -2.9488  0.0993
 3612TIP3   OH232250   1.315   3.104  14.134  0.0752  0.0572  0.1011
 3612TIP3    H132251   1.248   3.059  14.185 -1.4892  2.4334  0.2140
 3612TIP3    H232252   1.276   3.189  14.114  2.1753  0.5952 -1.7975
 3613TIP3   OH232253   6.736   4.657  11.241 -0.2656  0.4428  0.2681
 3613TIP3    H132254   6.677   4.592  11.204  1.7999 -1.2281 -0.2254
 3613TIP3    H232255   6.751   4.626  11.331 -0.6108  1.1949  0.5863
 3614TIP3   OH232256   6.503   1.220  16.371 -0.2578 -0.2703  0.5441
 3614TIP3    H132257   6.525   1.128  16.361 -0.7866 -0.2901 -0.4836
 3614TIP3    H232258   6.502   1.255  16.282 -1.3235  0.4186  0.8084
 3615TIP3   OH232259   2.491   1.573  15.545  0.0108 -0.3566 -0.6390
 3615TIP3    H132260   2.496   1.586  15.450  1.3754 -0.5597 -0.6098
 3615TIP3    H232261   2.533   1.489  15.560 -2.0325 -1.3062 -0.0445
 3616TIP3   OH232262   0.874   0.920  13.510 -0.0068  0.3484 -0.1313
 3616TIP3    H132263   0.855   0.988  13.574  1.9632 -1.1491  2.1430
 3616TIP3    H232264   0.837   0.840  13.548  0.9284 -0.5060 -0.9777
 3617TIP3   OH232265   5.850   4.797   4.463 -0.7824  0.4137 -0.1236
 3617TIP3    H132266   5.866   4.783   4.370  2.2303  0.6567  0.3186
 3617TIP3    H232267   5.898   4.726   4.507 -0.9029  1.1962  1.3108
 3618TIP3   OH232268   0.251   3.670  14.378 -0.2550 -0.4739  0.6790
 3618TIP3    H132269   0.249   3.617  14.298  0.3130 -0.9749  0.9950
 3618TIP3    H232270   0.163   3.664  14.413 -1.2193  1.7294 -1.1977
 3619TIP3   OH232271   0.615   5.299   0.191  0.4678 -1.0443  0.0715
 3619TIP3    H132272   0.704   5.333   0.179  0.8277 -2.3483 -1.0343
 3619TIP3    H232273   0.610   5.278   0.285  0.2000  2.0785  0.8104
 3620TIP3   OH232274   1.811   3.642   5.859  0.6423  0.0146  0.3671
 3620TIP3    H132275   1.841   3.589   5.785 -1.0909 -0.4870  0.0126
 3620TIP3    H232276   1.868   3.616   5.931  1.6782 -0.2354 -0.5175
 3621TIP3   OH232277   4.600   6.185   1.082 -0.0427  0.2261 -0.0586
 3621TIP3    H132278   4.511   6.215   1.062  0.2156  1.2425  0.2796
 3621TIP3    H232279   4.588   6.098   1.121 -0.7383 -0.5415 -1.9101
 3622TIP3   OH232280   6.092   2.255   1.914 -0.3839  0.2356  0.1734
 3622TIP3    H132281   6.172   2.214   1.946  1.2005  2.2560 -1.1458
 3622TIP3    H232282   6.034   2.181   1.894  1.0836 -1.2356  1.2701
 3623TIP3   OH232283   3.309   5.506  12.717  0.5337 -0.0401 -0.1668
 3623TIP3    H132284   3.401   5.524  12.700  0.7528 -0.7736  0.2099
 3623TIP3    H232285   3.303   5.501  12.813 -0.1503  1.3232 -0.1295
 3624TIP3   OH232286   1.395   3.811   0.982 -0.0043  0.1087 -0.5759
 3624TIP3    H132287   1.377   3.811   1.076 -0.1547 -4.2022 -0.4900
 3624TIP3    H232288   1.321   3.858   0.943 -1.3725 -0.4767  1.2555
 3625TIP3   OH232289   5.836   6.488   2.593  0.7700  0.0279  0.1365
 3625TIP3    H132290   5.847   6.509   2.686  0.9088  2.0812 -0.3255
 3625TIP3    H232291   5.922   6.503   2.555  0.6116 -0.4308 -0.4063
 3626TIP3   OH232292   3.629   4.963   5.258  0.0503 -0.0365  0.2283
 3626TIP3    H132293   3.654   5.055   5.250  0.7596  0.0386  2.9731
 3626TIP3    H232294   3.538   4.965   5.284  0.4862 -0.0735  1.7710
 3627TIP3   OH232295   1.568   1.683   4.150 -0.0453  0.3917  0.7618
 3627TIP3    H132296   1.545   1.755   4.209 -0.5478  2.0726 -1.4573
 3627TIP3    H232297   1.484   1.644   4.127  0.1368 -0.1300  0.9705
 3628TIP3   OH232298   5.648   5.719   0.385 -0.1314  0.0640 -0.1346
 3628TIP3    H132299   5.722   5.669   0.350  1.3899  1.4518  1.0425
 3628TIP3    H232300   5.665   5.725   0.479 -0.7873  1.9874 -0.1285
 3629TIP3   OH232301   1.614   1.232   1.903  0.1654 -0.6332  0.2642
 3629TIP3    H132302   1.578   1.254   1.817 -0.5980 -1.5361  0.3386
 3629TIP3    H232303   1.589   1.141   1.916  0.8412 -0.6933  1.1663
 3630TIP3   OH232304   2.879   0.945   5.868  0.1361  0.2720  0.5099
 3630TIP3    H132305   2.965   0.956   5.909 -0.9409  0.2074  2.9356
 3630TIP3    H232306   2.872   0.851   5.853  0.7546  0.3543 -0.2940
 3631TIP3   OH232307   0.691   1.265  15.812 -0.4524 -0.4032  0.1943
 3631TIP3    H132308   0.711   1.358  15.820 -1.1439 -0.1198 -1.2378
 3631TIP3    H232309   0.683   1.234  15.903  1.3611  0.5682  0.7080
 3632TIP3   OH232310   6.103   4.989   5.308  0.8043 -0.3981 -0.1550
 3632TIP3    H132311   6.019   5.036   5.312  2.0591  2.0044 -0.8733
 3632TIP3    H232312   6.094   4.919   5.373 -1.5922  0.0890  0.1065
 3633TIP3   OH232313   0.997   5.862  15.939  0.0762  0.1790  0.2749
 3633TIP3    H132314   0.955   5.940  15.974  0.2560  0.2784  0.2722
 3633TIP3    H232315   0.959   5.789  15.988 -1.0127  0.1552 -0.5854
 3634TIP3   OH232316   1.041   0.962  11.721 -0.0422 -0.3747  0.0641
 3634TIP3    H132317   0.957   1.005  11.708 -0.9387 -2.1889 -0.4251
 3634TIP3    H232318   1.073   0.943  11.633  1.7120  1.8016  0.2061
 3635TIP3   OH232319   4.711   6.548   0.657 -0.7385 -0.5704  0.1247
 3635TIP3    H132320   4.626   6.570   0.695 -0.1914  0.5746  0.7372
 3635TIP3    H232321   4.773   6.559   0.729  0.2614  1.1627 -0.9618
 3636TIP3   OH232322   2.446   3.405   0.440 -0.0185  0.0721  0.3595
 3636TIP3    H132323   2.498   3.326   0.457 -1.1337 -0.4439  1.3939
 3636TIP3    H232324   2.503   3.477   0.465  1.2680 -0.3489 -1.2347
 3637TIP3   OH232325   2.753   3.472   3.758 -0.3604 -0.0498  0.3799
 3637TIP3    H132326   2.694   3.536   3.798 -0.4296  0.7446 -0.9772
 3637TIP3    H232327   2.739   3.392   3.809  0.7050  1.3505  2.9700
 3638TIP3   OH232328   0.575   1.830  15.323 -0.1752  0.4333  0.1765
 3638TIP3    H132329   0.615   1.750  15.358 -1.2776 -0.0111  0.4535
 3638TIP3    H232330   0.579   1.819  15.228  1.3849  0.9221  0.1693
 3639TIP3   OH232331   3.844   3.828  13.888 -0.2672 -0.1942  0.1075
 3639TIP3    H132332   3.895   3.784  13.820  1.6708  0.9377  0.7821
 3639TIP3    H232333   3.763   3.854  13.845  1.3619  1.4362 -2.0816
 3640TIP3   OH232334   1.635   3.481  13.575  0.0033 -0.0020  0.3864
 3640TIP3    H132335   1.609   3.553  13.633  1.7669  0.4701  0.6054
 3640TIP3    H232336   1.731   3.482  13.577  0.0739 -0.5733 -1.8299
 3641TIP3   OH232337   4.810   0.463   1.716 -0.2109 -0.1969 -0.2887
 3641TIP3    H132338   4.795   0.495   1.627 -1.4237  1.2338  0.4132
 3641TIP3    H232339   4.726   0.474   1.760  0.3716 -0.9325  1.0291
 3642TIP3   OH232340   6.362   6.602   1.268 -0.7589 -0.0586  0.3025
 3642TIP3    H132341   6.363   6.686   1.314 -0.7040  0.3911 -0.5133
 3642TIP3    H232342   6.442   6.602   1.216 -0.2600 -1.0535  1.0597
 3643TIP3   OH232343   6.352   6.698  13.574 -0.0775  0.0586 -0.2761
 3643TIP3    H132344   6.421   6.686  13.509 -1.5437 -0.0964 -1.8378
 3643TIP3    H232345   6.397   6.729  13.652  1.7588 -0.1113 -1.2543
 3644TIP3   OH232346   6.703   1.855  16.250  0.0309  0.3041 -0.3323
 3644TIP3    H132347   6.627   1.819  16.297  2.8318 -3.8449  1.3020
 3644TIP3    H232348   6.677   1.854  16.158 -1.1021 -3.4464 -0.0651
 3645TIP3   OH232349   3.711   3.227   1.597  0.2036 -0.0009  0.0566
 3645TIP3    H132350   3.667   3.231   1.682  0.3595  1.0787  0.0856
 3645TIP3    H232351   3.716   3.318   1.568  1.3023 -0.2398 -0.5175
 3646TIP3   OH232352   3.545   5.100   4.046 -0.7963  0.3914 -0.5833
 3646TIP3    H132353   3.630   5.112   4.003 -0.4809 -1.8190 -0.6351
 3646TIP3    H232354   3.504   5.027   4.000 -1.9817  0.3070  0.5639
 3647TIP3   OH232355   1.933   5.119   5.432 -0.1266 -0.0146  0.1485
 3647TIP3    H132356   1.903   5.123   5.341  0.0810 -2.0641 -0.0359
 3647TIP3    H232357   1.854   5.097   5.482 -0.2850  1.3222  0.5155
 3648TIP3   OH232358   0.295   1.755  16.237  0.4846  0.3195 -0.4785
 3648TIP3    H132359   0.333   1.795  16.315 -0.5715 -0.9141  0.6869
 3648TIP3    H232360   0.370   1.719  16.189  0.9842 -0.3239  0.7781
 3649TIP3   OH232361   4.792   1.602  11.841  0.4406  0.2139 -0.4972
 3649TIP3    H132362   4.798   1.666  11.912  1.1202 -0.2807 -0.1071
 3649TIP3    H232363   4.699   1.582  11.835  0.3307  0.5688 -0.0267
 3650TIP3   OH232364   4.491   5.088  12.890  0.4370 -0.2347 -0.2806
 3650TIP3    H132365   4.490   5.046  12.975  0.9962 -1.0679 -0.6753
 3650TIP3    H232366   4.493   5.016  12.827 -3.4950  0.2612 -1.1250
 3651TIP3   OH232367   2.959   3.180   1.361 -0.5180  0.1647 -0.3333
 3651TIP3    H132368   2.956   3.156   1.268 -1.3246  0.5205 -0.3961
 3651TIP3    H232369   2.951   3.275   1.362  2.2550  0.4385 -0.0453
 3652TIP3   OH232370   6.011   6.544   2.126  0.2140  0.5097 -0.2243
 3652TIP3    H132371   6.043   6.635   2.122 -1.0462  1.0468  1.5660
 3652TIP3    H232372   5.944   6.540   2.058 -1.6786  1.7391  1.5052
 3653TIP3   OH232373   5.451   2.036  16.924  0.3728  0.7209  0.0103
 3653TIP3    H132374   5.428   2.046  17.016  0.9707  1.1047  0.1160
 3653TIP3    H232375   5.417   1.950  16.900  0.2739  0.5939  0.6034
 3654TIP3   OH232376   2.587   1.547   0.078 -0.8128  0.4652 -0.5806
 3654TIP3    H132377   2.511   1.605   0.067 -1.0503  0.2402 -0.1345
 3654TIP3    H232378   2.630   1.579   0.158 -0.6001  0.4091 -0.6710
 3655TIP3   OH232379   1.060   1.419   1.966  0.4627 -0.5109  0.4701
 3655TIP3    H132380   0.991   1.460   1.914  0.4996  0.3925  1.1136
 3655TIP3    H232381   1.035   1.327   1.971 -0.7355 -0.1852  0.7324
 3656TIP3   OH232382   5.345   3.292   3.735  0.2439 -0.4896  0.0760
 3656TIP3    H132383   5.440   3.302   3.725  0.0527  1.5434  0.1191
 3656TIP3    H232384   5.333   3.265   3.826  0.7056  0.3536  0.3870
 3657TIP3   OH232385   0.134   4.373  10.802  0.2289  0.3706  0.1667
 3657TIP3    H132386   0.209   4.314  10.791 -0.8720 -0.9614 -0.3046
 3657TIP3    H232387   0.060   4.315  10.819 -0.8981  1.6165 -0.4066
 3658TIP3   OH232388   4.234   3.296  12.385  0.2233  0.3881  0.0175
 3658TIP3    H132389   4.183   3.216  12.394 -0.4272  0.8456  0.3526
 3658TIP3    H232390   4.325   3.266  12.389 -0.0022 -0.4425 -0.7628
 3659TIP3   OH232391   4.869   5.109   2.484  0.0229 -0.2790 -0.4107
 3659TIP3    H132392   4.790   5.058   2.468  0.0065 -0.2675 -0.3655
 3659TIP3    H232393   4.911   5.066   2.558  0.2022 -0.4544 -0.6116
 3660TIP3   OH232394   1.310   5.694  16.124  0.1336  0.0853 -0.1230
 3660TIP3    H132395   1.260   5.613  16.118 -0.5460  0.6120 -1.8770
 3660TIP3    H232396   1.281   5.734  16.206  0.9166 -1.7123  1.0645
 3661TIP3   OH232397   0.730   6.431   3.093  0.0331 -0.0193  0.6489
 3661TIP3    H132398   0.654   6.418   3.150  0.4294 -1.1542  0.9287
 3661TIP3    H232399   0.795   6.473   3.148  0.0509 -0.1796  0.7497
 3662TIP3   OH232400   4.013   4.695   3.515  0.5808  0.0409 -0.0357
 3662TIP3    H132401   3.954   4.620   3.504  1.1046 -0.2964 -0.5969
 3662TIP3    H232402   3.965   4.755   3.573 -0.1965 -0.3476 -0.2616
 3663TIP3   OH232403   3.723   2.802  12.593  0.0486  0.1360 -0.1142
 3663TIP3    H132404   3.709   2.711  12.620 -1.7926  0.4844  0.1893
 3663TIP3    H232405   3.721   2.798  12.497 -0.8844 -0.0394 -0.0973
 3664TIP3   OH232406   5.329   0.746  11.627  0.7356  0.0640 -0.6398
 3664TIP3    H132407   5.393   0.738  11.699  0.5672  0.6976 -0.4189
 3664TIP3    H232408   5.258   0.687  11.653  2.5105 -2.9250 -2.3015
 3665TIP3   OH232409   2.891   2.365  12.965 -1.0442 -0.1118 -0.1826
 3665TIP3    H132410   2.864   2.353  13.056 -1.3533 -0.6335 -0.3358
 3665TIP3    H232411   2.939   2.447  12.964 -2.6215  0.8356  0.1074
 3666TIP3   OH232412   2.666   2.639  13.179 -0.1101 -0.1966  0.2207
 3666TIP3    H132413   2.719   2.712  13.149  0.4581 -0.7116 -0.0388
 3666TIP3    H232414   2.727   2.565  13.183 -0.3450 -0.3344  1.8470
 3667TIP3   OH232415   6.513   2.180  12.950  0.2552 -0.5913 -0.0140
 3667TIP3    H132416   6.590   2.122  12.952  0.8204  0.1607  1.1744
 3667TIP3    H232417   6.501   2.201  12.858  2.7771  0.9395 -0.0394
 3668TIP3   OH232418   5.264   6.310  12.351 -0.3754 -0.4451  0.3155
 3668TIP3    H132419   5.353   6.297  12.383 -0.1262  0.0855 -0.1476
 3668TIP3    H232420   5.275   6.348  12.264 -1.0387 -1.5179 -0.2537
 3669TIP3   OH232421   4.322   2.229   4.934  0.3053 -0.5114 -0.0568
 3669TIP3    H132422   4.302   2.209   4.843  0.2270 -2.0504  0.2752
 3669TIP3    H232423   4.239   2.260   4.970  0.4726  0.6316 -0.6395
 3670TIP3   OH232424   5.230   5.776  12.473  0.1559 -0.1481 -0.8244
 3670TIP3    H132425   5.220   5.848  12.411 -1.1925 -1.5100 -2.2691
 3670TIP3    H232426   5.174   5.799  12.547  0.7047  0.8549 -0.7197
 3671TIP3   OH232427   6.550   0.850  14.564  0.1093 -0.1448 -0.1513
 3671TIP3    H132428   6.598   0.786  14.511  0.7325  0.8773 -0.8293
 3671TIP3    H232429   6.506   0.797  14.631  1.8058 -1.1483  0.2014
 3672TIP3   OH232430   1.474   1.734   2.782 -0.2188 -0.5002  0.0656
 3672TIP3    H132431   1.484   1.796   2.710  0.1407 -0.4416  0.1629
 3672TIP3    H232432   1.421   1.663   2.746  2.9133 -2.2242 -1.3717
 3673TIP3   OH232433   1.527   2.421  10.737  0.2422 -0.1730  0.6968
 3673TIP3    H132434   1.596   2.366  10.774 -0.6508 -0.8152  1.4268
 3673TIP3    H232435   1.552   2.510  10.759  0.3660 -0.4679  1.7578
 3674TIP3   OH232436   2.145   5.271   4.132  0.2475  0.1788 -0.0807
 3674TIP3    H132437   2.208   5.249   4.201  0.8766 -0.2093 -0.7686
 3674TIP3    H232438   2.183   5.347   4.089 -0.2770  0.5811  0.1650
 3675TIP3   OH232439   5.731   0.187   2.718 -0.0461  0.3030 -0.5545
 3675TIP3    H132440   5.684   0.155   2.641 -0.4705  0.6553 -0.4458
 3675TIP3    H232441   5.699   0.277   2.730 -1.2270 -0.2944  0.9876
 3676TIP3   OH232442   2.800   0.856  15.342  0.5524  0.2019 -0.0385
 3676TIP3    H132443   2.727   0.875  15.400  0.9712 -1.8599  1.2194
 3676TIP3    H232444   2.861   0.929  15.356  0.2283  0.2175  1.4191
 3677TIP3   OH232445   0.816   0.045  12.769  0.1008 -0.1954 -0.4894
 3677TIP3    H132446   0.848  -0.037  12.730 -0.3021 -0.2271 -0.7581
 3677TIP3    H232447   0.784   0.096  12.695  1.1710  0.5887 -0.4247
 3678TIP3   OH232448   2.092   4.429  11.203 -0.2131  0.3385 -0.1892
 3678TIP3    H132449   2.121   4.444  11.113 -3.0307  1.4570 -0.9724
 3678TIP3    H232450   2.046   4.510  11.227 -0.3780 -0.3388  1.8913
 3679TIP3   OH232451   2.572   2.997  17.208  0.4346 -0.0525  0.3320
 3679TIP3    H132452   2.616   2.929  17.258 -2.1279 -0.7899  1.6411
 3679TIP3    H232453   2.479   2.979  17.219 -0.2495  2.3142 -1.1952
 3680TIP3   OH232454   5.577   4.285  12.275  0.2066 -0.0183  0.1883
 3680TIP3    H132455   5.671   4.266  12.276  0.0091 -0.9812  0.8287
 3680TIP3    H232456   5.541   4.228  12.207  0.0655  0.2573  0.0295
 3681TIP3   OH232457   4.443   5.827  15.675  0.6882 -0.2095 -0.1622
 3681TIP3    H132458   4.526   5.817  15.629  0.4874  2.3368 -1.1630
 3681TIP3    H232459   4.446   5.916  15.711 -1.9839  0.2883 -1.0476
 3682TIP3   OH232460   6.304   3.663   1.324  0.3607 -0.4234 -0.4922
 3682TIP3    H132461   6.346   3.729   1.269  1.0906 -0.2004  0.3162
 3682TIP3    H232462   6.242   3.619   1.266  1.1033 -0.1771 -1.4846
 3683TIP3   OH232463   1.300   1.429  14.970  0.1043  0.1874 -0.0253
 3683TIP3    H132464   1.298   1.523  14.955  1.5782  0.0480 -1.1884
 3683TIP3    H232465   1.391   1.410  14.992 -0.2547 -0.9271  0.5471
 3684TIP3   OH232466   2.991   0.146  13.855  0.2531 -0.2775 -0.3430
 3684TIP3    H132467   3.037   0.103  13.784  1.5141  0.8901 -0.2481
 3684TIP3    H232468   2.917   0.088  13.874  0.0203 -0.6959 -2.4423
 3685TIP3   OH232469   0.108   3.477  17.032 -0.3064 -0.3875  0.4125
 3685TIP3    H132470   0.150   3.406  17.079  0.7145 -0.6579 -0.8831
 3685TIP3    H232471   0.028   3.439  16.997 -0.2031 -0.6518  0.4665
 3686TIP3   OH232472   5.402   3.497  14.185 -0.1345 -0.7771 -1.2564
 3686TIP3    H132473   5.488   3.462  14.161  1.1198  1.6575 -0.5025
 3686TIP3    H232474   5.399   3.584  14.145 -0.7879  0.5876  1.5861
 3687TIP3   OH232475   1.165   2.682   2.115 -0.0604 -0.1172  0.1162
 3687TIP3    H132476   1.183   2.621   2.187  0.0994  0.3116  0.4420
 3687TIP3    H232477   1.221   2.653   2.044 -1.8286 -1.9081 -0.5889
 3688TIP3   OH232478   3.376   6.645   4.906  0.3278 -0.7309 -0.0542
 3688TIP3    H132479   3.351   6.619   4.817 -1.1318  0.2764  0.0531
 3688TIP3    H232480   3.377   6.563   4.955 -1.3042 -0.9930 -0.4245
 3689TIP3   OH232481   4.953   0.136   5.760  0.5465  0.4297  0.0752
 3689TIP3    H132482   5.012   0.211   5.770  1.9730 -0.4706 -1.3926
 3689TIP3    H232483   4.884   0.152   5.824  1.8116  2.0500  1.0850
 3690TIP3   OH232484   1.240   5.315   2.817  0.0388  0.3648  0.0736
 3690TIP3    H132485   1.303   5.266   2.764 -0.0971  0.2198  0.0457
 3690TIP3    H232486   1.231   5.399   2.772  1.1097  0.8352  0.7391
 3691TIP3   OH232487   2.038   1.105  14.865 -0.5153 -0.8220 -0.3984
 3691TIP3    H132488   2.110   1.043  14.861 -0.5490 -1.0208  1.4474
 3691TIP3    H232489   1.959   1.052  14.854 -0.5874 -1.2603  1.9647
 3692TIP3   OH232490   5.933   5.054   3.095  0.0800  0.2436 -0.5092
 3692TIP3    H132491   5.964   5.008   3.173 -0.6331 -0.2516 -0.5117
 3692TIP3    H232492   6.009   5.060   3.038  0.2055 -0.8196 -0.4506
 3693TIP3   OH232493   1.625   0.935  13.679 -0.0680  0.3169 -0.3055
 3693TIP3    H132494   1.536   0.971  13.678 -0.0478  0.4068  0.7800
 3693TIP3    H232495   1.682   1.011  13.671 -0.0461  0.4620  1.1154
 3694TIP3   OH232496   0.333   1.924  16.857 -0.3492  0.3569 -0.1032
 3694TIP3    H132497   0.419   1.889  16.879 -0.5406  0.1087  0.2449
 3694TIP3    H232498   0.295   1.860  16.797 -0.9886 -0.3980  1.0905
 3695TIP3   OH232499   4.047   1.700  12.026 -0.1774  0.2297  0.3266
 3695TIP3    H132500   4.089   1.783  12.047  0.6432 -0.1106  0.0412
 3695TIP3    H232501   4.107   1.657  11.965 -0.8027 -0.3820  0.1332
 3696TIP3   OH232502   6.357   5.826   2.003 -0.1331  0.3127  0.4995
 3696TIP3    H132503   6.435   5.881   1.996 -0.0821  0.2154  0.3094
 3696TIP3    H232504   6.374   5.770   2.079 -0.0259  0.3043  0.4689
 3697TIP3   OH232505   2.595   4.477  12.251 -0.7272  0.3082 -0.4543
 3697TIP3    H132506   2.547   4.404  12.290 -0.7731  0.3039 -0.5201
 3697TIP3    H232507   2.604   4.541  12.322 -0.3142  0.0555 -0.2798
 3698TIP3   OH232508   5.861   1.419  14.380  0.1958  0.1509 -0.4868
 3698TIP3    H132509   5.899   1.504  14.359 -1.3718  1.0960  0.3502
 3698TIP3    H232510   5.767   1.433  14.371 -0.0012 -1.9391 -1.8682
 3699TIP3   OH232511   3.953   3.161   1.805 -0.0663 -0.0341  0.4635
 3699TIP3    H132512   3.975   3.172   1.897  1.8200  0.1361  0.0030
 3699TIP3    H232513   3.888   3.230   1.788 -0.2057  0.1155  1.5889
 3700TIP3   OH232514   2.509   3.836   4.834  0.0846 -0.1956  0.2130
 3700TIP3    H132515   2.494   3.887   4.914 -0.5962 -1.0593  0.6413
 3700TIP3    H232516   2.537   3.901   4.770 -1.2336  0.7964  0.6190
 3701TIP3   OH232517   2.565   4.695  13.101 -0.2761  0.1033 -0.0014
 3701TIP3    H132518   2.618   4.617  13.085 -1.8724 -0.7423 -1.3269
 3701TIP3    H232519   2.617   4.767  13.065  0.6706 -0.4982  0.1427
 3702TIP3   OH232520   3.429   0.724  16.023  0.0642 -0.4685  0.3410
 3702TIP3    H132521   3.438   0.809  15.979 -0.3479  0.5700  2.2025
 3702TIP3    H232522   3.509   0.677  15.999 -0.3980 -0.1504 -1.9408
 3703TIP3   OH232523   3.752   4.321  12.971  0.3213 -0.4326 -0.1257
 3703TIP3    H132524   3.701   4.324  13.052 -1.1081 -2.3023 -0.8979
 3703TIP3    H232525   3.810   4.245  12.982  0.1742 -0.6492 -0.8062
 3704TIP3   OH232526   6.636   5.712  15.025  0.3099 -0.2879  0.3670
 3704TIP3    H132527   6.596   5.777  14.968 -0.7807  0.5843  2.0946
 3704TIP3    H232528   6.659   5.760  15.105  4.2757 -0.8807 -0.2904
 3705TIP3   OH232529   6.131   2.165  11.602  0.4491  0.4730 -0.2304
 3705TIP3    H132530   6.163   2.082  11.567  1.7008  0.1822  1.5369
 3705TIP3    H232531   6.047   2.143  11.643  0.2816  0.2961 -0.6592
 3706TIP3   OH232532   4.323   6.706  10.936  0.1393  0.1131  0.3015
 3706TIP3    H132533   4.411   6.673  10.956  0.0554  0.4337  1.2244
 3706TIP3    H232534   4.269   6.678  11.010 -0.7431 -0.8438 -0.6783
 3707TIP3   OH232535   6.683   1.073   3.503 -0.4445  0.7679 -0.0585
 3707TIP3    H132536   6.765   1.110   3.537 -0.6221  1.1640 -0.0618
 3707TIP3    H232537   6.675   1.109   3.415  0.1064 -0.4020 -0.5885
 3708TIP3   OH232538   6.335   2.580  11.705  0.3284 -0.1341  0.1744
 3708TIP3    H132539   6.336   2.512  11.638 -1.7497 -0.0097 -0.0095
 3708TIP3    H232540   6.281   2.544  11.776  0.4680  0.7182  0.7281
 3709TIP3   OH232541   1.882   4.212   0.560 -0.3437 -0.8644  0.0160
 3709TIP3    H132542   1.876   4.155   0.636  1.1285 -0.9957  0.0525
 3709TIP3    H232543   1.837   4.292   0.586  2.9507  0.3426  2.2238
 3710TIP3   OH232544   0.801   0.930   5.125  0.2226 -0.0094  0.1840
 3710TIP3    H132545   0.705   0.929   5.116  0.1433  0.3259  0.9006
 3710TIP3    H232546   0.834   0.902   5.040 -0.4866  1.6143 -0.6611
 3711TIP3   OH232547   1.327   1.475  14.446 -0.0089 -0.3193  0.0956
 3711TIP3    H132548   1.397   1.446  14.387  0.8524  1.4863  0.1993
 3711TIP3    H232549   1.370   1.483  14.531 -1.0065 -1.8809  0.7653
 3712TIP3   OH232550   2.488   0.371  12.568 -0.1753  0.2470  0.0148
 3712TIP3    H132551   2.413   0.386  12.511  0.3580 -0.0447 -0.7725
 3712TIP3    H232552   2.548   0.443  12.548  0.3161 -0.2490 -0.2963
 3713TIP3   OH232553   3.268   3.253   1.072  0.2378  0.1318 -0.2795
 3713TIP3    H132554   3.335   3.224   1.134 -1.8743  0.4155  2.2510
 3713TIP3    H232555   3.210   3.309   1.124 -2.2132 -0.4490 -2.2648
 3714TIP3   OH232556   0.385   2.459  17.024  0.5428  0.2189  0.3491
 3714TIP3    H132557   0.450   2.520  17.058  2.8128 -1.5497 -0.6387
 3714TIP3    H232558   0.375   2.393  17.093  0.5410 -0.0308  0.1153
 3715TIP3   OH232559   2.485   4.580  11.971  0.0698  0.0107  0.2647
 3715TIP3    H132560   2.557   4.642  11.960  0.2337 -0.1376  0.4865
 3715TIP3    H232561   2.499   4.543  12.058  1.0848 -1.7808 -0.6336
 3716TIP3   OH232562   5.505   5.482   2.813  0.8037 -0.0354  0.1949
 3716TIP3    H132563   5.547   5.402   2.845 -0.8812 -1.2400 -0.5700
 3716TIP3    H232564   5.563   5.512   2.743  1.1472 -0.9164  0.0909
 3717TIP3   OH232565   4.808   5.176   3.926 -0.4275 -0.6404 -0.2621
 3717TIP3    H132566   4.772   5.248   3.978 -0.2091 -0.9839  0.3683
 3717TIP3    H232567   4.902   5.177   3.945 -0.3148 -0.6244 -0.8249
 3718TIP3   OH232568   3.283   6.291   4.823  0.2549 -0.2991  0.2564
 3718TIP3    H132569   3.343   6.328   4.887 -0.4803  1.3421  0.0170
 3718TIP3    H232570   3.331   6.294   4.740  0.2994 -0.1554  0.2879
 3719TIP3   OH232571   3.288   0.854   6.470 -0.1955 -0.3396  0.3973
 3719TIP3    H132572   3.249   0.800   6.538  1.2094 -1.3788  0.4028
 3719TIP3    H232573   3.381   0.862   6.496  0.3672 -0.8264 -1.4391
 3720TIP3   OH232574   1.891   3.500   4.113 -0.0396  0.2227 -0.4182
 3720TIP3    H132575   1.932   3.581   4.144  1.1553 -0.6129  0.2527
 3720TIP3    H232576   1.797   3.515   4.123  0.2485  0.0851  3.5343
 3721TIP3   OH232577   4.395   3.028  14.958 -0.6686 -0.0575 -0.3950
 3721TIP3    H132578   4.357   3.110  14.990 -0.2746 -0.1505  0.3237
 3721TIP3    H232579   4.444   2.993  15.033  1.2852  0.3334 -1.4509
 3722TIP3   OH232580   5.137   2.756   3.857  0.1809  0.3096  0.4545
 3722TIP3    H132581   5.052   2.729   3.891  0.4801 -0.5374  0.5498
 3722TIP3    H232582   5.125   2.848   3.832 -2.0939 -0.9718 -3.7999
 3723TIP3   OH232583   2.688   0.393   3.418  0.4785 -0.6809  0.2238
 3723TIP3    H132584   2.754   0.401   3.349  0.2447  2.7963  0.3561
 3723TIP3    H232585   2.692   0.476   3.465 -1.6528 -1.7482  2.3854
 3724TIP3   OH232586   2.569   2.520   3.093  0.3014 -0.3819  0.3636
 3724TIP3    H132587   2.625   2.469   3.151 -0.8097 -1.4164  0.5433
 3724TIP3    H232588   2.481   2.511   3.129 -0.2635 -0.2718 -0.9411
 3725TIP3   OH232589   6.341   0.066   0.247 -0.2247  0.5711  0.1320
 3725TIP3    H132590   6.353   0.037   0.337  0.2325 -0.3506 -0.2177
 3725TIP3    H232591   6.379  -0.004   0.194  1.8521  2.3046 -0.7231
 3726TIP3   OH232592   0.169   3.385  16.581 -0.2108  0.3622 -0.4787
 3726TIP3    H132593   0.078   3.397  16.607  0.4089  2.8286  0.7166
 3726TIP3    H232594   0.194   3.467  16.539  1.1521 -0.6891 -1.8070
 3727TIP3   OH232595   2.645   4.255   3.238  0.3867 -0.1735  0.4598
 3727TIP3    H132596   2.640   4.206   3.156 -0.2733 -1.5371  1.3026
 3727TIP3    H232597   2.732   4.293   3.238  0.8036 -1.1116 -0.3370
 3728TIP3   OH232598   1.476   5.309  10.795  0.0036 -0.1674 -0.3653
 3728TIP3    H132599   1.553   5.366  10.792 -0.1301  0.0482  0.2621
 3728TIP3    H232600   1.402   5.367  10.780  0.0051 -0.4786 -1.6262
 3729TIP3   OH232601   3.586   2.868   2.299 -0.3941 -0.0638 -0.0208
 3729TIP3    H132602   3.677   2.857   2.328 -0.6045 -1.0361  0.2657
 3729TIP3    H232603   3.534   2.827   2.368 -0.9143 -2.1343 -1.6158
 3730TIP3   OH232604   4.349   1.721   0.945 -0.4852  0.0581  0.0185
 3730TIP3    H132605   4.397   1.673   0.877 -0.3284 -0.4677  0.4976
 3730TIP3    H232606   4.349   1.662   1.020 -0.2757  0.8144  0.6173
 3731TIP3   OH232607   1.257   2.374  14.210 -0.2061 -0.1445  0.2971
 3731TIP3    H132608   1.234   2.332  14.127 -0.5008  0.5201  0.0370
 3731TIP3    H232609   1.324   2.318  14.248  0.3139 -0.1593 -0.6459
 3732TIP3   OH232610   3.521   1.945   5.929 -0.0970  0.6922 -0.1587
 3732TIP3    H132611   3.505   1.851   5.941  1.6839  0.2520 -0.9631
 3732TIP3    H232612   3.473   1.987   6.000 -1.8203 -0.7472 -0.4361
 3733TIP3   OH232613   4.938   3.199  14.580  0.8732 -0.5614  0.3578
 3733TIP3    H132614   4.847   3.220  14.600  0.3587 -1.3135 -1.0910
 3733TIP3    H232615   4.972   3.279  14.539  0.5690 -0.6310 -0.0306
 3734TIP3   OH232616   2.368   2.496   2.746  0.4691 -0.0285 -0.0300
 3734TIP3    H132617   2.361   2.587   2.775  0.0260 -0.3262  0.8167
 3734TIP3    H232618   2.338   2.445   2.821  0.2597 -0.8567 -0.6782
 3735TIP3   OH232619   3.812   5.332   3.425  0.1157 -0.3266  0.2924
 3735TIP3    H132620   3.828   5.352   3.333 -0.6776  0.4040  0.3036
 3735TIP3    H232621   3.884   5.374   3.471 -0.8623  1.5493  0.2036
 3736TIP3   OH232622   5.134   0.646   3.694 -0.5223 -0.4435 -0.1828
 3736TIP3    H132623   5.200   0.625   3.760 -1.8839 -0.0682  1.3423
 3736TIP3    H232624   5.100   0.731   3.721 -1.4652 -0.5301 -1.0752
 3737TIP3   OH232625   3.919   5.677   4.803 -1.6244  0.0091 -0.1932
 3737TIP3    H132626   3.907   5.708   4.893  0.6538  1.6140 -0.4222
 3737TIP3    H232627   3.992   5.728   4.769  0.5331 -3.7282 -1.4833
 3738TIP3   OH232628   1.118   1.294   5.655  0.1449  0.2501 -0.1738
 3738TIP3    H132629   1.034   1.271   5.694  0.2607  0.2520  0.0842
 3738TIP3    H232630   1.124   1.240   5.576  0.3285 -0.4711  0.3291
 3739TIP3   OH232631   1.657   2.738   4.426 -0.1872 -0.1311  0.1307
 3739TIP3    H132632   1.600   2.776   4.359 -1.5717  0.5235  1.6329
 3739TIP3    H232633   1.612   2.657   4.452  0.4108 -0.4471  0.1745
 3740TIP3   OH232634   2.710   3.324   3.249  0.0576 -0.2883 -0.4842
 3740TIP3    H132635   2.686   3.232   3.253  0.1460 -0.3585 -1.4275
 3740TIP3    H232636   2.697   3.356   3.338 -0.1805 -1.1573 -0.1999
 3741TIP3   OH232637   2.379   4.018  12.407 -0.9350 -0.4092 -0.4648
 3741TIP3    H132638   2.343   4.008  12.495  1.0559  0.8550  0.5274
 3741TIP3    H232639   2.304   4.041  12.353 -1.6659  2.2929  1.5779
 3742TIP3   OH232640   4.678   4.368  11.561  0.3196  0.3308  0.4747
 3742TIP3    H132641   4.600   4.353  11.507  0.8494 -1.6479  0.2312
 3742TIP3    H232642   4.646   4.369  11.651  0.1352 -1.3903  0.4333
 3743TIP3   OH232643   1.355   1.678   3.782  0.2387 -0.2599 -0.2244
 3743TIP3    H132644   1.263   1.654   3.767 -0.0340  0.4215  0.2995
 3743TIP3    H232645   1.396   1.671   3.696 -0.3599 -0.3688 -0.5038
 3744TIP3   OH232646   6.118   4.501   4.486 -0.0200  0.2687  0.7538
 3744TIP3    H132647   6.171   4.569   4.444 -0.5117  0.6307  0.7163
 3744TIP3    H232648   6.066   4.548   4.552 -1.4490  0.1621 -0.2798
 3745TIP3   OH232649   6.304   6.543   6.024  0.2813 -0.4965 -0.1598
 3745TIP3    H132650   6.317   6.448   6.018  0.3502 -0.5587  0.9567
 3745TIP3    H232651   6.388   6.580   5.996  0.0776 -0.7479 -1.1270
 3746TIP3   OH232652   6.565   4.667  16.899 -0.0382  0.3399 -0.2935
 3746TIP3    H132653   6.566   4.664  16.803 -0.7749  1.7561 -0.3467
 3746TIP3    H232654   6.641   4.614  16.924  0.6002  0.5656 -1.6650
 3747TIP3   OH232655   4.949   6.280  11.724  0.3342 -0.4510 -0.8631
 3747TIP3    H132656   4.924   6.220  11.654 -0.9138  0.1102 -0.9183
 3747TIP3    H232657   5.044   6.275  11.726  0.2957 -1.7840 -1.4354
 3748TIP3   OH232658   6.388   1.389  15.744 -0.0662 -0.0356 -0.3763
 3748TIP3    H132659   6.389   1.345  15.659  0.7347 -0.2466 -0.2558
 3748TIP3    H232660   6.427   1.327  15.805  0.2121  0.4758 -0.0278
 3749TIP3   OH232661   0.888   5.502  10.863 -0.6940  0.4796 -0.3133
 3749TIP3    H132662   0.811   5.462  10.902 -0.6009  1.1133  0.5319
 3749TIP3    H232663   0.924   5.558  10.932  0.6789 -0.0228 -0.5981
 3750TIP3   OH232664   6.675   0.657   5.209 -0.0629  0.1633 -0.3377
 3750TIP3    H132665   6.655   0.750   5.206  1.6211  0.5527  0.0087
 3750TIP3    H232666   6.609   0.619   5.267 -0.1189  1.3016  0.3392
 3751TIP3   OH232667   0.657   3.215  16.416  0.3915 -0.7600 -0.1382
 3751TIP3    H132668   0.664   3.301  16.459  1.1917 -0.4702 -0.8464
 3751TIP3    H232669   0.698   3.227  16.331  1.4554 -2.1258  0.1581
 3752TIP3   OH232670   1.068   0.644   4.872  0.3087 -0.1670  0.1425
 3752TIP3    H132671   1.112   0.564   4.899 -2.0570 -1.6292 -0.2106
 3752TIP3    H232672   1.044   0.629   4.781  1.0871  1.5201 -0.3626
 3753TIP3   OH232673   5.808   1.299   5.591 -0.2027  0.7505  0.9255
 3753TIP3    H132674   5.795   1.384   5.550  2.1748  1.2951  1.2346
 3753TIP3    H232675   5.824   1.320   5.683  1.0861  0.0304  0.8721
 3754TIP3   OH232676   6.038   0.942   0.812 -0.2983 -0.4060  0.1470
 3754TIP3    H132677   6.077   0.871   0.762  1.3249  0.3665  0.2912
 3754TIP3    H232678   6.046   0.914   0.904 -0.4136 -0.3992  0.1599
 3755TIP3   OH232679   1.137   2.490   3.328  0.2862 -0.4348  0.0700
 3755TIP3    H132680   1.128   2.396   3.316  0.8029 -0.5273  0.3840
 3755TIP3    H232681   1.050   2.519   3.358  0.8737 -1.2591  2.6871
 3756TIP3   OH232682   4.980   1.664   1.094  0.3597 -0.5017  0.4366
 3756TIP3    H132683   4.987   1.626   1.007  3.1507 -1.0369  0.8591
 3756TIP3    H232684   4.938   1.749   1.080  2.5063  0.2500 -1.6593
 3757TIP3   OH232685   4.246   4.887  12.853  0.2900  0.5019 -0.1583
 3757TIP3    H132686   4.321   4.834  12.825 -0.2349 -0.0883 -0.4577
 3757TIP3    H232687   4.262   4.903  12.946 -1.3193 -3.2271  0.8526
 3758TIP3   OH232688   3.795   5.272  15.878 -0.1195  0.5777  0.4361
 3758TIP3    H132689   3.878   5.318  15.886 -1.1136  2.1247  2.0001
 3758TIP3    H232690   3.731   5.329  15.919 -1.6519 -1.4704  0.9985
 3759TIP3   OH232691   1.127   0.566  12.874  0.5956  0.0307  0.0479
 3759TIP3    H132692   1.175   0.488  12.902 -0.0667  0.1559  1.5653
 3759TIP3    H232693   1.131   0.563  12.778  2.3325 -0.7538  0.1222
 3760TIP3   OH232694   0.402   6.314  15.343  0.0768 -0.0335 -0.6417
 3760TIP3    H132695   0.338   6.385  15.354  1.7877  1.2219  1.8797
 3760TIP3    H232696   0.350   6.234  15.353 -1.2595  0.9413  0.5579
 3761TIP3   OH232697   3.417   0.246  11.997 -0.0583  0.2196  0.3893
 3761TIP3    H132698   3.390   0.319  11.941 -2.7402 -0.5625  0.5744
 3761TIP3    H232699   3.479   0.196  11.944  0.5380  1.7034 -0.3373
 3762TIP3   OH232700   1.692   4.395  13.120 -0.3714  0.0898  0.0265
 3762TIP3    H132701   1.727   4.306  13.113 -2.2004 -0.6265 -0.3051
 3762TIP3    H232702   1.701   4.416  13.213  0.0717 -0.4460  0.1117
 3763TIP3   OH232703   2.938   3.910  13.608  0.1754 -0.3431 -0.2704
 3763TIP3    H132704   3.018   3.887  13.655 -0.6990 -2.5581  0.1816
 3763TIP3    H232705   2.871   3.915  13.677  0.0983  2.4787 -0.5126
 3764TIP3   OH232706   2.786   4.769  17.184  0.0043 -0.3832 -0.0623
 3764TIP3    H132707   2.754   4.850  17.142  0.3145  0.6347  1.6400
 3764TIP3    H232708   2.794   4.707  17.111 -1.0713  0.8452 -1.2701
 3765TIP3   OH232709   3.502   5.263  12.902  0.2463  0.7944 -0.6828
 3765TIP3    H132710   3.413   5.233  12.881 -0.4162  1.5693  0.9357
 3765TIP3    H232711   3.558   5.187  12.886 -0.8734 -0.0744 -0.5056
 3766TIP3   OH232712   6.503   4.768   1.771  0.2334 -0.0128  0.1624
 3766TIP3    H132713   6.580   4.810   1.809 -0.6519  1.2816  0.5734
 3766TIP3    H232714   6.493   4.687   1.821  1.3708 -0.2311  0.0509
 3767TIP3   OH232715   5.509   1.878  13.215 -0.0803 -0.3937 -0.2928
 3767TIP3    H132716   5.508   1.957  13.269  0.0753 -1.3449  1.1191
 3767TIP3    H232717   5.572   1.898  13.145  1.1455  0.1617  0.9455
 3768TIP3   OH232718   4.100   0.476  11.335  0.0819  0.7139 -0.1335
 3768TIP3    H132719   4.116   0.561  11.294 -1.4691  0.8421 -0.5040
 3768TIP3    H232720   4.046   0.496  11.412 -2.2138 -0.1232 -1.4674
 3769TIP3   OH232721   5.988   0.129   4.024  0.0838 -0.0027 -0.0298
 3769TIP3    H132722   5.971   0.093   3.938 -1.9643 -3.2021  1.6249
 3769TIP3    H232723   6.075   0.095   4.048  0.7024  0.9788 -0.8121
 3770TIP3   OH232724   3.013   2.665  14.979 -0.1432  0.2890 -0.2158
 3770TIP3    H132725   3.002   2.616  15.060  0.0596 -0.9461 -0.9083
 3770TIP3    H232726   3.018   2.757  15.006 -0.7649 -0.0502  1.0922
 3771TIP3   OH232727   3.665   3.716  12.891  0.0863  0.2536 -0.4596
 3771TIP3    H132728   3.719   3.795  12.883 -0.1704  0.6281  1.4084
 3771TIP3    H232729   3.728   3.644  12.895  0.5434  0.7578  2.5926
 3772TIP3   OH232730   4.454   1.509  15.957 -0.2284  0.0180 -0.6785
 3772TIP3    H132731   4.428   1.600  15.970 -1.6745 -0.6092  0.9596
 3772TIP3    H232732   4.528   1.514  15.896  0.6833  2.3868  0.5485
 3773TIP3   OH232733   3.215   2.617   5.485  1.0563  0.3046 -0.3955
 3773TIP3    H132734   3.214   2.647   5.395 -0.0845  1.5876  0.0381
 3773TIP3    H232735   3.279   2.546   5.486  2.7015  1.7247 -1.7539
 3774TIP3   OH232736   5.421   2.867  14.763  0.1326 -0.3449 -0.2512
 3774TIP3    H132737   5.339   2.829  14.796  0.6210 -1.8682 -0.7697
 3774TIP3    H232738   5.444   2.934  14.828 -0.3602 -1.4227  1.0694
 3775TIP3   OH232739   2.347   5.405   3.784 -0.5936  0.1022 -0.0092
 3775TIP3    H132740   2.329   5.460   3.861  0.8799  0.7156 -0.0857
 3775TIP3    H232741   2.324   5.317   3.812 -1.6238  0.5507  0.5913
 3776TIP3   OH232742   1.874   0.754  16.815  0.0302  0.3088 -0.2017
 3776TIP3    H132743   1.864   0.680  16.755 -1.0645  2.5462 -2.8656
 3776TIP3    H232744   1.926   0.817  16.766 -0.4918  2.0035  1.3840
 3777TIP3   OH232745   5.552   4.524   5.590 -0.0531 -0.9230  0.2988
 3777TIP3    H132746   5.516   4.455   5.645 -1.6258 -0.0677  0.3722
 3777TIP3    H232747   5.617   4.568   5.645 -0.6711 -0.9104  1.0175
 3778TIP3   OH232748   6.022   0.794  15.884  0.0536  0.1500  0.5886
 3778TIP3    H132749   5.956   0.760  15.944  0.3591  0.2879  1.0049
 3778TIP3    H232750   5.982   0.873  15.847 -0.0610  0.1674  0.7500
 3779TIP3   OH232751   5.552   4.587   3.779 -0.4204 -0.2679  0.2151
 3779TIP3    H132752   5.608   4.652   3.737  0.9623 -1.5361  0.0514
 3779TIP3    H232753   5.488   4.638   3.828 -2.4945  1.3042 -3.8993
 3780TIP3   OH232754   3.043   6.387  11.307 -0.1592 -0.3677  0.3358
 3780TIP3    H132755   2.960   6.400  11.261 -0.7480 -0.4497  1.3641
 3780TIP3    H232756   3.087   6.317  11.258 -0.9438 -0.7197  0.1374
 3781TIP3   OH232757   5.905   0.763   0.501  0.2529 -0.3294  0.9894
 3781TIP3    H132758   5.851   0.697   0.544  0.9564  0.0991  2.5850
 3781TIP3    H232759   5.900   0.840   0.558  1.2982  0.2148  0.3749
 3782TIP3   OH232760   3.657   0.969  14.548 -0.2157  0.1489 -0.6484
 3782TIP3    H132761   3.648   1.046  14.603  0.7406  1.0550 -1.7262
 3782TIP3    H232762   3.748   0.941  14.560 -0.2804 -0.2345 -1.0040
 3783TIP3   OH232763   4.642   6.328   1.768 -0.1695  0.4108 -0.2876
 3783TIP3    H132764   4.558   6.282   1.757 -1.0822  1.6600  1.2295
 3783TIP3    H232765   4.632   6.375   1.851  1.0271  2.7432 -1.4361
 3784TIP3   OH232766   2.122   3.283  11.565  0.3150 -0.2331  0.2531
 3784TIP3    H132767   2.183   3.233  11.511  0.7266 -0.8959  1.3154
 3784TIP3    H232768   2.035   3.254  11.537  0.5274 -0.6405  0.0172
 3785TIP3   OH232769   0.916   5.118   4.886  0.1779  0.5194  0.7202
 3785TIP3    H132770   0.909   5.088   4.796  1.5580  0.2219  0.7014
 3785TIP3    H232771   1.007   5.147   4.895  0.1948  0.0733  2.1517
 3786TIP3   OH232772   5.176   1.590   1.667  0.7548  0.1569 -0.0473
 3786TIP3    H132773   5.158   1.513   1.614 -1.7359  0.2658  0.5792
 3786TIP3    H232774   5.209   1.655   1.604  0.6799 -0.6676 -0.9466
 3787TIP3   OH232775   2.692   1.463   3.951 -0.2468 -0.2872  0.2009
 3787TIP3    H132776   2.686   1.487   3.858 -3.9741 -1.3720  0.0607
 3787TIP3    H232777   2.613   1.501   3.990 -0.0293 -2.0011  2.4087
 3788TIP3   OH232778   3.688   4.014   0.144 -0.2661 -0.0301 -0.4045
 3788TIP3    H132779   3.675   4.018   0.239 -0.2381 -0.3773 -0.3877
 3788TIP3    H232780   3.602   3.993   0.109 -0.6652  1.8285 -0.5775
 3789TIP3   OH232781   1.707   4.841  15.270  0.4710  0.4163  0.1747
 3789TIP3    H132782   1.797   4.865  15.248  0.2086  0.9249 -0.3729
 3789TIP3    H232783   1.654   4.883  15.202 -0.1007 -0.7682 -0.1320
 3790TIP3   OH232784   2.019   3.639  13.454 -0.4474 -0.2974 -0.4949
 3790TIP3    H132785   1.953   3.592  13.505  0.9298 -0.3181  1.3179
 3790TIP3    H232786   2.087   3.573  13.436  0.3841  0.4031  0.0376
 3791TIP3   OH232787   1.979   4.920  15.200 -0.0107  0.3756  0.2856
 3791TIP3    H132788   2.020   4.961  15.124 -0.8256  0.6384 -0.0199
 3791TIP3    H232789   1.975   4.990  15.266  2.1910 -0.2933  1.1634
 3792TIP3   OH232790   0.671   3.269   1.915  0.5278 -0.3570  0.1174
 3792TIP3    H132791   0.588   3.293   1.957  0.7930 -0.2019  0.5507
 3792TIP3    H232792   0.720   3.222   1.983  1.2049  0.4162  0.1731
 3793TIP3   OH232793   1.013   4.725   5.593 -0.6401  0.4573  0.6345
 3793TIP3    H132794   0.947   4.785   5.557 -0.9025  0.0048  0.3525
 3793TIP3    H232795   1.016   4.746   5.687 -1.3146  0.3683  0.6794
 3794TIP3   OH232796   1.453   4.651  16.968  0.4252  0.0942  0.8313
 3794TIP3    H132797   1.444   4.620  16.878  1.3366  0.0084  0.7713
 3794TIP3    H232798   1.503   4.732  16.960  0.0064  0.3892  1.2049
 3795TIP3   OH232799   2.384   2.087   4.828 -0.3863 -0.0079 -0.1696
 3795TIP3    H132800   2.331   2.046   4.896  1.4124  0.4071  1.5153
 3795TIP3    H232801   2.365   2.180   4.836  0.0719  0.0726 -0.0278
 3796TIP3   OH232802   2.918   2.463  13.252 -0.2305  0.2673  0.2374
 3796TIP3    H132803   2.954   2.516  13.323  0.0609  0.6462 -0.1899
 3796TIP3    H232804   2.966   2.492  13.174 -2.4823  1.8456 -0.6171
 3797TIP3   OH232805   4.198   2.383  14.786  0.0722 -0.2753  0.0614
 3797TIP3    H132806   4.233   2.469  14.805 -1.6361  0.5558 -0.4478
 3797TIP3    H232807   4.203   2.376  14.690 -1.2319 -0.0988 -0.0256
 3798TIP3   OH232808   4.300   4.958   3.573 -0.0245  0.0717  0.0187
 3798TIP3    H132809   4.215   4.985   3.538 -0.7168 -1.6356  0.3166
 3798TIP3    H232810   4.303   4.863   3.556  0.5176 -0.4290  2.7194
 3799TIP3   OH232811   5.092   1.169   4.453  0.4466  0.2744 -0.3836
 3799TIP3    H132812   5.143   1.178   4.534 -1.3297  0.4483  0.7443
 3799TIP3    H232813   5.114   1.082   4.421  1.6695  0.4501 -0.0663
 3800TIP3   OH232814   6.110   2.756   4.917 -0.2703  0.2853 -0.1555
 3800TIP3    H132815   6.123   2.737   4.824  0.9594  0.4534 -0.0142
 3800TIP3    H232816   6.147   2.680   4.962  2.8083  2.0425  0.3436
 3801TIP3   OH232817   0.102   4.091   0.019  0.1456 -0.5779 -0.0242
 3801TIP3    H132818   0.041   4.153  -0.022 -0.5176 -1.8628 -0.9788
 3801TIP3    H232819   0.187   4.134   0.011 -0.6214  1.2854  1.4137
 3802TIP3   OH232820   1.609   5.051  13.989  0.1187 -0.1358  0.3055
 3802TIP3    H132821   1.610   5.135  13.945  0.1962 -1.5751 -2.5487
 3802TIP3    H232822   1.698   5.016  13.976 -0.3677 -1.3286  0.1106
 3803TIP3   OH232823   1.108   0.929  11.458  0.5556 -0.0388  0.2257
 3803TIP3    H132824   1.017   0.919  11.431  0.4418  0.2563  0.5054
 3803TIP3    H232825   1.137   1.011  11.418  0.4168  0.3471  0.9067
 3804TIP3   OH232826   5.391   1.929   1.370 -0.1970 -0.3114 -0.0949
 3804TIP3    H132827   5.414   2.017   1.342  0.4322 -0.2717  0.5523
 3804TIP3    H232828   5.313   1.908   1.319 -0.0571  0.4226 -0.6211
 3805TIP3   OH232829   2.415   5.215  15.216 -0.3162 -0.1235 -0.1253
 3805TIP3    H132830   2.495   5.230  15.267 -0.1751 -1.3956  0.0484
 3805TIP3    H232831   2.406   5.120  15.214 -2.5771  0.0426  1.0106
 3806TIP3   OH232832   2.184   3.503   2.345  0.4985 -0.2491 -0.1998
 3806TIP3    H132833   2.149   3.583   2.306  3.7832  1.5259  0.2569
 3806TIP3    H232834   2.149   3.501   2.434 -0.1250  0.3499 -0.4314
 3807TIP3   OH232835   1.949   2.071  12.585 -0.0834  0.3800  0.0165
 3807TIP3    H132836   1.954   2.120  12.503 -0.4305  0.0586 -0.1917
 3807TIP3    H232837   2.035   2.085  12.625  0.6374 -0.7258 -1.1095
 3808TIP3   OH232838   6.161   1.108  14.889  0.2200 -0.4338  0.0991
 3808TIP3    H132839   6.091   1.118  14.954 -0.1307 -1.5807 -0.0958
 3808TIP3    H232840   6.241   1.122  14.940 -0.1623  2.1863  0.0646
 3809TIP3   OH232841   0.130   0.594   4.756 -0.2568 -0.0456 -0.0506
 3809TIP3    H132842   0.068   0.638   4.697 -0.1515  0.8208  0.4811
 3809TIP3    H232843   0.216   0.609   4.717 -0.2339  0.0987  0.0550
 3810TIP3   OH232844   2.025   3.580  15.811 -0.0770  0.0591 -0.1123
 3810TIP3    H132845   1.980   3.638  15.750  2.3069  1.5507 -0.5042
 3810TIP3    H232846   2.013   3.622  15.897 -0.8604 -0.4572  0.0419
 3811TIP3   OH232847   1.573   5.197   1.205 -0.9847  0.6993 -0.3904
 3811TIP3    H132848   1.655   5.155   1.181 -1.1502  0.6208 -0.8275
 3811TIP3    H232849   1.541   5.236   1.123 -0.2322  2.7454  0.2702
 3812TIP3   OH232850   0.057   0.025  12.675 -0.3592 -0.4850 -0.6409
 3812TIP3    H132851   0.038   0.059  12.762 -0.2157 -0.9826 -0.4176
 3812TIP3    H232852   0.095  -0.061  12.690 -0.8437 -0.8036 -1.2215
 3813TIP3   OH232853   3.090   1.339  16.762  0.0263  0.0541 -0.1324
 3813TIP3    H132854   3.182   1.328  16.784 -0.3734 -0.4626  1.3003
 3813TIP3    H232855   3.071   1.431  16.778 -0.1825 -0.2501  1.3911
 3814TIP3   OH232856   3.602   3.292   4.641  0.6464  0.0242 -0.0033
 3814TIP3    H132857   3.666   3.362   4.639  0.9551 -0.1777  1.5716
 3814TIP3    H232858   3.644   3.223   4.693 -1.1510  0.2322  1.7889
 3815TIP3   OH232859   1.268   3.433   4.990  0.7037 -0.3355 -0.3947
 3815TIP3    H132860   1.292   3.512   5.039 -0.4205 -1.0655  1.3900
 3815TIP3    H232861   1.333   3.427   4.920  2.7003  0.4624  1.3462
 3816TIP3   OH232862   4.321   2.854  10.421 -0.4452  0.0493 -0.5522
 3816TIP3    H132863   4.335   2.948  10.414  0.4490 -0.0320  0.1096
 3816TIP3    H232864   4.276   2.831  10.339  1.7450  0.6137 -1.9587
 3817TIP3   OH232865   1.641   4.103   3.803 -0.3484  0.9942 -0.1300
 3817TIP3    H132866   1.591   4.052   3.866  0.3467  0.8128  0.2741
 3817TIP3    H232867   1.629   4.057   3.720 -1.5225  1.4115 -0.2018
 3818TIP3   OH232868   2.044   4.243  15.584 -0.0073 -0.2606 -0.2292
 3818TIP3    H132869   1.986   4.263  15.511 -0.4359  0.2123  0.2318
 3818TIP3    H232870   2.016   4.304  15.653  0.9737 -0.0924  0.0234
 3819TIP3   OH232871   3.762   3.526   1.468  0.0990  0.0390  0.1402
 3819TIP3    H132872   3.687   3.573   1.504 -0.2067 -0.5393  0.2419
 3819TIP3    H232873   3.826   3.596   1.450  0.4460  0.3217  2.2231
 3820TIP3   OH232874   1.278   0.033   2.299  0.5650  0.0366 -0.4046
 3820TIP3    H132875   1.274   0.104   2.234  1.1176  0.5056  0.0715
 3820TIP3    H232876   1.293  -0.046   2.247 -1.0346  0.1149 -1.0305
 3821TIP3   OH232877   1.847   1.465  13.121  1.1327 -0.0960 -0.2484
 3821TIP3    H132878   1.765   1.422  13.144  0.9040  1.0625  1.1600
 3821TIP3    H232879   1.898   1.397  13.075 -1.1531 -0.4006 -2.4495
 3822TIP3   OH232880   3.691   1.042  15.838 -0.4429 -0.0245  0.5724
 3822TIP3    H132881   3.770   1.058  15.787 -0.9793  2.1867  0.3698
 3822TIP3    H232882   3.641   0.980  15.785  0.6450 -0.5743  0.1722
 3823TIP3   OH232883   3.376   6.513   0.691 -0.3405  0.2484 -0.0765
 3823TIP3    H132884   3.323   6.592   0.701  0.6826  0.8040  1.1424
 3823TIP3    H232885   3.410   6.496   0.778 -1.8020 -2.4685 -0.0094
 3824TIP3   OH232886   0.513   4.082  11.574  0.0434  0.4376 -0.7849
 3824TIP3    H132887   0.462   4.159  11.547  1.8250  2.1525  0.6016
 3824TIP3    H232888   0.585   4.118  11.625  0.6239 -2.2247  0.3394
 3825TIP3   OH232889   3.242   1.797   3.163 -0.0837 -0.1128  0.5229
 3825TIP3    H132890   3.169   1.814   3.103 -0.1030 -0.4257  0.4583
 3825TIP3    H232891   3.266   1.706   3.147  1.3409  0.4330 -0.5743
 3826TIP3   OH232892   2.883   0.697   3.180 -0.3478 -0.4204  0.1168
 3826TIP3    H132893   2.902   0.667   3.269  0.4052  0.5785  0.2889
 3826TIP3    H232894   2.960   0.745   3.153 -0.3767 -1.1230 -1.2734
 3827TIP3   OH232895   3.143   6.015   3.687 -0.1183 -0.2050  0.3527
 3827TIP3    H132896   3.062   6.017   3.635 -0.8675  0.9488  1.5194
 3827TIP3    H232897   3.201   6.077   3.644 -1.2459  1.8106  1.6453
 3828TIP3   OH232898   5.765   1.191   0.093 -0.4223 -0.2496  0.3262
 3828TIP3    H132899   5.669   1.185   0.098 -0.5368  0.5969 -0.6288
 3828TIP3    H232900   5.788   1.253   0.162 -0.7229  0.8368 -0.5385
 3829TIP3   OH232901   0.061   4.413   3.564  0.0576  0.0223 -0.1949
 3829TIP3    H132902   0.138   4.406   3.619  0.5660 -1.0827 -1.0309
 3829TIP3    H232903   0.062   4.503   3.532  1.1541 -0.0665 -0.4280
 3830TIP3   OH232904   3.741   4.994   0.901  0.0124 -0.2157  0.4423
 3830TIP3    H132905   3.796   5.072   0.905 -1.4407  0.9517 -1.3664
 3830TIP3    H232906   3.686   5.007   0.823 -1.4366 -2.2508  1.0695
 3831TIP3   OH232907   5.096   4.582  11.692  0.5382 -0.5249 -0.5946
 3831TIP3    H132908   5.161   4.598  11.760 -2.2530 -0.7131  2.2196
 3831TIP3    H232909   5.081   4.667  11.652  0.2221  0.0906  0.8426
 3832TIP3   OH232910   0.254   0.155   6.467  0.0276  0.3321  0.2612
 3832TIP3    H132911   0.196   0.193   6.401 -1.1448 -0.6828  0.6911
 3832TIP3    H232912   0.209   0.168   6.550  1.9481  2.4878  1.0356
 3833TIP3   OH232913   6.425   2.835   1.749 -0.5016 -0.5675  0.5918
 3833TIP3    H132914   6.507   2.884   1.754  1.6515 -4.0698  1.0460
 3833TIP3    H232915   6.403   2.834   1.656  0.0101  0.3025  0.4556
 3834TIP3   OH232916   6.146   2.493  13.216  0.5346  0.1305  0.1661
 3834TIP3    H132917   6.223   2.440  13.195  1.4209  1.0775  0.9789
 3834TIP3    H232918   6.179   2.562  13.274 -1.0054  0.3026  0.8618
 3835TIP3   OH232919   0.261   1.885   2.119 -0.0169  0.1141 -0.1644
 3835TIP3    H132920   0.242   1.878   2.212 -0.9171 -2.4016 -0.5116
 3835TIP3    H232921   0.180   1.858   2.075 -0.2094  2.9569 -1.7295
 3836TIP3   OH232922   6.020   3.020  12.768  0.5727 -0.3684 -0.3989
 3836TIP3    H132923   5.925   3.034  12.769  0.3924 -1.4702 -1.1835
 3836TIP3    H232924   6.050   3.050  12.854 -0.2478  1.4935 -0.7345
 3837TIP3   OH232925   1.509   2.870   2.478  0.4474 -0.4297  0.2195
 3837TIP3    H132926   1.556   2.834   2.553 -0.0461  0.2196  0.8485
 3837TIP3    H232927   1.420   2.883   2.510  0.3957  0.4577 -0.2813
 3838TIP3   OH232928   2.025   4.405  12.417  0.5992  0.6861  1.2441
 3838TIP3    H132929   1.984   4.492  12.424 -0.4847  0.3461 -0.4902
 3838TIP3    H232930   2.114   4.424  12.387  1.0710  1.3115  2.9737
 3839TIP3   OH232931   5.381   5.394   2.559 -0.1960  0.2295  0.4709
 3839TIP3    H132932   5.450   5.330   2.572  0.3474  0.3825 -1.4898
 3839TIP3    H232933   5.427   5.476   2.538 -0.9055  1.0686  2.0596
 3840TIP3   OH232934   2.397   5.331  15.550 -0.0347 -0.5346 -0.5794
 3840TIP3    H132935   2.433   5.288  15.627 -0.8151  0.6243  0.4474
 3840TIP3    H232936   2.473   5.365  15.503  0.5382 -2.4136 -1.0351
 3841TIP3   OH232937   1.674   0.822   0.294  0.4432  0.0250  0.6073
 3841TIP3    H132938   1.609   0.839   0.226  0.7283  2.0743  0.8188
 3841TIP3    H232939   1.692   0.728   0.287 -2.7613 -0.6534  0.7676
 3842TIP3   OH232940   3.161   5.720  16.917 -0.4807  0.1223 -0.0924
 3842TIP3    H132941   3.197   5.808  16.906 -0.5403  0.2000  0.3260
 3842TIP3    H232942   3.228   5.673  16.967 -0.2201 -0.2199 -0.7619
 3843TIP3   OH232943   2.740   4.645  13.993  0.4903  0.4670  0.4022
 3843TIP3    H132944   2.815   4.587  13.984 -1.1328 -1.9202  1.5117
 3843TIP3    H232945   2.697   4.643  13.908  0.4236  0.0141  0.4471
 3844TIP3   OH232946   1.232   3.960   5.219  0.2626  0.2695 -0.0021
 3844TIP3    H132947   1.190   4.046   5.223 -1.9841 -0.8861  2.3967
 3844TIP3    H232948   1.289   3.958   5.295  1.6231  0.2655 -1.0096
 3845TIP3   OH232949   2.113   3.045   1.127  0.1441 -0.3822 -0.4410
 3845TIP3    H132950   2.073   2.978   1.183  0.3740  0.1627  0.3933
 3845TIP3    H232951   2.207   3.027   1.133  0.0526 -1.7397 -2.4945
 3846TIP3   OH232952   4.289   3.772   5.154 -0.0006  0.2915  0.0249
 3846TIP3    H132953   4.203   3.736   5.177  0.5017 -0.6892  0.3504
 3846TIP3    H232954   4.342   3.761   5.232  1.0377 -0.9856 -0.8568
 3847TIP3   OH232955   5.665   3.556   3.868 -0.1569  0.1383  0.4173
 3847TIP3    H132956   5.760   3.563   3.858 -0.1130 -0.5495  0.3090
 3847TIP3    H232957   5.641   3.478   3.818 -0.8266  0.4938  0.1752
 3848TIP3   OH232958   2.151   5.260  13.463  0.4046  0.0097 -0.0967
 3848TIP3    H132959   2.228   5.266  13.521  1.4710 -1.9146 -1.2613
 3848TIP3    H232960   2.096   5.192  13.503  1.4025 -1.7180 -1.5634
 3849TIP3   OH232961   2.884   6.364   0.453 -0.5756  0.7973  0.2510
 3849TIP3    H132962   2.879   6.269   0.465  3.5855  0.4481 -0.0735
 3849TIP3    H232963   2.954   6.376   0.389 -0.8493  4.1126  0.5026
 3850TIP3   OH232964   2.085   4.158   0.941 -0.0393  0.7052 -0.5237
 3850TIP3    H132965   2.010   4.132   0.887  0.3085 -0.9362 -0.2125
 3850TIP3    H232966   2.130   4.224   0.888  0.2883 -0.8620 -2.2269
 3851TIP3   OH232967   6.402   3.276  11.166  0.6648  0.0842 -0.5366
 3851TIP3    H132968   6.393   3.296  11.073 -1.5156  1.9403  0.0443
 3851TIP3    H232969   6.369   3.187  11.174  1.4431 -0.3230 -1.6151
 3852TIP3   OH232970   2.055   6.269  11.945 -0.3791  0.1736  0.5454
 3852TIP3    H132971   2.055   6.250  11.851  0.0788 -0.6361  0.6994
 3852TIP3    H232972   2.105   6.196  11.984  0.9684  1.4362  1.2314
 3853TIP3   OH232973   4.158   4.747  16.630  0.1783  0.7275  0.3081
 3853TIP3    H132974   4.172   4.658  16.663  1.0314 -0.2120 -2.5084
 3853TIP3    H232975   4.063   4.754  16.619 -0.0592  0.8104  2.1875
 3854TIP3   OH232976   3.290   5.196   3.223 -0.1644 -0.0809 -0.3017
 3854TIP3    H132977   3.275   5.144   3.144 -1.1381  1.3445 -1.0624
 3854TIP3    H232978   3.207   5.240   3.240  0.7526  1.5003  0.1509
 3855TIP3   OH232979   2.843   2.050   0.580  0.4560 -0.1144  0.1387
 3855TIP3    H132980   2.842   2.025   0.487 -0.9384 -1.8359  0.5850
 3855TIP3    H232981   2.776   2.119   0.586 -0.4568 -0.9847  0.1066
 3856TIP3   OH232982   0.278   4.110  16.825  0.0573  0.1831  0.1001
 3856TIP3    H132983   0.335   4.053  16.877 -1.3506 -0.5382  0.8492
 3856TIP3    H232984   0.331   4.188  16.809  1.1715 -0.3747  1.0135
 3857TIP3   OH232985   5.731   5.452   5.636 -0.2590  0.4128 -0.5157
 3857TIP3    H132986   5.819   5.460   5.598 -0.8697 -0.1413 -2.0556
 3857TIP3    H232987   5.714   5.538   5.673  1.3089  0.2633  0.6332
 3858TIP3   OH232988   5.077   2.143  16.759 -0.7138  0.0404  0.6677
 3858TIP3    H132989   5.167   2.150  16.728 -0.7303  0.1712  0.6493
 3858TIP3    H232990   5.083   2.088  16.837 -0.7624 -0.8787  0.0349
 3859TIP3   OH232991   0.056   4.521  14.423 -0.0307  0.7851 -0.2183
 3859TIP3    H132992  -0.027   4.527  14.470 -1.1976 -0.5003 -2.0245
 3859TIP3    H232993   0.031   4.523  14.330  1.8040 -1.2754 -0.8017
 3860TIP3   OH232994   0.666   4.265  12.614  0.1802 -0.0192 -0.5195
 3860TIP3    H132995   0.716   4.319  12.675  1.2701 -0.9586 -0.5749
 3860TIP3    H232996   0.582   4.310  12.606  0.8417  1.3235 -0.0672
 3861TIP3   OH232997   0.974   4.708  13.235 -0.2096  0.1121 -0.0374
 3861TIP3    H132998   1.000   4.646  13.167  0.5050  0.1976  0.1450
 3861TIP3    H232999   0.901   4.665  13.280  0.2871 -0.6076  0.0931
 3862TIP3   OH233000   2.071   5.464   2.138  0.1032  0.2478  0.0274
 3862TIP3    H133001   1.993   5.487   2.188  0.5043  0.9939  0.3108
 3862TIP3    H233002   2.126   5.416   2.200  0.3103  0.5934  0.1095
 3863TIP3   OH233003   4.580   3.939  12.329  0.1211  0.2997 -0.3599
 3863TIP3    H133004   4.571   3.851  12.363 -0.9267  0.4686 -0.1761
 3863TIP3    H233005   4.661   3.972  12.367  0.0600 -0.2702  0.2705
 3864TIP3   OH233006   6.631   0.427  15.339  0.2407 -0.2418  0.2859
 3864TIP3    H133007   6.616   0.352  15.396 -0.1730 -0.0446  0.4344
 3864TIP3    H233008   6.614   0.503  15.393 -1.1197 -0.0742 -0.3737
 3865TIP3   OH233009   4.967   6.771  15.988  0.0966 -0.6058 -0.1248
 3865TIP3    H133010   4.993   6.720  15.911 -0.3829  0.5708 -1.0795
 3865TIP3    H233011   5.050   6.805  16.023  0.2471 -0.4983 -0.5787
 3866TIP3   OH233012   0.846   4.053  15.492  0.0179 -0.6844  0.3007
 3866TIP3    H133013   0.799   4.136  15.483 -0.6352 -0.9966  0.7051
 3866TIP3    H233014   0.822   4.003  15.414  1.5626  0.0525 -0.6604
 3867TIP3   OH233015   3.779   1.557  14.229 -0.1530  0.3051  0.3028
 3867TIP3    H133016   3.867   1.522  14.232 -0.1820  0.3072  1.6160
 3867TIP3    H233017   3.729   1.502  14.289 -0.9438  0.5560 -0.1173
 3868TIP3   OH233018   0.936   0.281  16.599  0.0345  0.0081 -0.2389
 3868TIP3    H133019   1.024   0.299  16.631  1.1185 -1.3997 -2.2994
 3868TIP3    H233020   0.917   0.351  16.537 -0.1299  0.0611 -0.1302
 3869TIP3   OH233021   0.512   3.154   2.686  0.3842 -0.0555 -0.0519
 3869TIP3    H133022   0.563   3.135   2.607  2.5277 -2.2680  1.7919
 3869TIP3    H233023   0.537   3.244   2.709  0.9644  0.0338 -0.9814
 3870TIP3   OH233024   1.527   2.691  15.935  0.3126  0.7737 -0.0087
 3870TIP3    H133025   1.442   2.666  15.969 -0.5190  1.0214 -1.8551
 3870TIP3    H233026   1.590   2.661  16.001 -1.0683 -0.9825  0.5232
 3871TIP3   OH233027   1.740   5.607   4.179  0.3451 -0.3875  0.2722
 3871TIP3    H133028   1.756   5.518   4.211  0.6186  0.0472  1.3528
 3871TIP3    H233029   1.648   5.624   4.201 -0.0543 -0.8119 -0.9667
 3872TIP3   OH233030   3.048   5.251   0.377  0.6450  0.4177  0.1342
 3872TIP3    H133031   3.097   5.308   0.437  0.4903  0.8309 -0.1331
 3872TIP3    H233032   2.958   5.256   0.408  0.7657 -0.3346  0.6188
 3873TIP3   OH233033   1.395   4.255   3.088 -0.3864 -0.2731 -0.6036
 3873TIP3    H133034   1.477   4.263   3.038  0.1091 -0.9610  0.0991
 3873TIP3    H233035   1.377   4.161   3.090 -0.1385 -0.2896  0.9598
 3874TIP3   OH233036   1.487   2.734   5.565 -0.2951 -0.7064 -1.0191
 3874TIP3    H133037   1.542   2.719   5.641 -0.5866  0.3733 -0.5942
 3874TIP3    H233038   1.409   2.681   5.581 -0.9315  0.5408  0.0574
 3875TIP3   OH233039   5.586   2.764   4.600 -0.0973  0.1123  0.0214
 3875TIP3    H133040   5.616   2.674   4.584  0.9781  0.5255 -0.2795
 3875TIP3    H233041   5.666   2.816   4.605 -0.6929  0.9948  0.6266
 3876TIP3   OH233042   5.648   2.575   2.844 -0.0834  0.1255 -0.1634
 3876TIP3    H133043   5.734   2.595   2.882 -0.3063  1.3602 -0.2948
 3876TIP3    H233044   5.586   2.594   2.914 -0.3509  0.5858 -0.5256
 3877TIP3   OH233045   1.428   2.356   1.585  0.1186  0.3370  0.0249
 3877TIP3    H133046   1.379   2.274   1.577 -0.1726  0.3406  1.6110
 3877TIP3    H233047   1.433   2.372   1.679  3.0619  0.4063 -0.1032
 3878TIP3   OH233048   0.593   6.027  11.733 -0.3315 -0.1096  0.2185
 3878TIP3    H133049   0.635   6.070  11.808 -0.3154 -0.1294  0.2204
 3878TIP3    H233050   0.642   6.059  11.657 -0.1887 -0.2793  0.2370
 3879TIP3   OH233051   6.718   5.207  14.771  0.6746  0.2037  0.2301
 3879TIP3    H133052   6.757   5.173  14.691 -1.8767 -0.2107 -0.8798
 3879TIP3    H233053   6.690   5.129  14.819  1.2011  0.4952  1.0285
 3880TIP3   OH233054   3.911   4.793  11.622  0.3028 -0.2906 -0.1188
 3880TIP3    H133055   3.884   4.795  11.714 -1.5736  0.2790 -0.6552
 3880TIP3    H233056   3.956   4.709  11.611  1.0756 -0.0911  1.4564
 3881TIP3   OH233057   4.459   6.634   3.720  0.1902 -0.7171 -0.2066
 3881TIP3    H133058   4.450   6.688   3.642  0.4791  0.3121  0.4602
 3881TIP3    H233059   4.455   6.696   3.793  2.1819 -1.4101  0.5118
 3882TIP3   OH233060   4.609   3.240  11.051  0.3022 -0.3081  0.3916
 3882TIP3    H133061   4.659   3.161  11.072  2.4255  0.7636 -0.4896
 3882TIP3    H233062   4.676   3.306  11.034 -1.4498  1.5704  0.6854
 3883TIP3   OH233063   1.887   0.742  13.060  0.8600  0.6086  0.2318
 3883TIP3    H133064   1.969   0.697  13.082  0.2956 -0.2802  0.5486
 3883TIP3    H233065   1.847   0.760  13.145  1.2129  1.9618  0.1116
 3884TIP3   OH233066   6.055   5.967   0.880  0.0016 -0.0415  0.0937
 3884TIP3    H133067   5.978   5.912   0.865  0.7825 -0.7626 -1.2961
 3884TIP3    H233068   6.098   5.927   0.956  0.6140 -1.4090 -0.9643
 3885TIP3   OH233069   3.742   6.647   2.777  0.0500  0.3300  0.5859
 3885TIP3    H133070   3.666   6.601   2.743  0.8467 -0.8180  0.3497
 3885TIP3    H233071   3.709   6.734   2.800 -0.4150  1.3580 -3.5787
 3886TIP3   OH233072   0.720   4.002   0.780  0.6310 -0.3350 -1.0456
 3886TIP3    H133073   0.694   4.088   0.814 -0.6845 -1.4136  0.7692
 3886TIP3    H233074   0.811   3.992   0.808  0.5960  0.1966 -0.7149
 3887TIP3   OH233075   0.744   6.481   4.064  0.0348 -0.0955  0.2240
 3887TIP3    H133076   0.708   6.516   3.983  0.1309  1.4875  0.8625
 3887TIP3    H233077   0.667   6.448   4.111  0.2141 -3.1901 -1.5043
 3888TIP3   OH233078   1.130   6.237   2.068 -0.0544  0.7707  0.0780
 3888TIP3    H133079   1.160   6.327   2.064 -0.1626  0.7487 -1.2650
 3888TIP3    H233080   1.037   6.243   2.088 -0.0309  0.9388  0.1350
 3889TIP3   OH233081   2.577   3.170  11.390  0.2255  0.0718  0.0576
 3889TIP3    H133082   2.559   3.263  11.408 -1.2147 -0.5376  2.0141
 3889TIP3    H233083   2.672   3.162  11.398  0.3050  1.2628  0.5177
 3890TIP3   OH233084   4.854   1.206   4.259 -0.9872  0.1181  0.0242
 3890TIP3    H133085   4.927   1.225   4.317 -0.8546  1.7692 -0.6505
 3890TIP3    H233086   4.890   1.145   4.194 -1.1566 -1.7763  1.6688
 3891TIP3   OH233087   4.332   1.374   4.995 -0.0312 -0.2863  0.4607
 3891TIP3    H133088   4.331   1.425   4.914  0.4439  1.1265  1.3253
 3891TIP3    H233089   4.305   1.435   5.063 -0.5096 -1.4833  1.3756
 3892TIP3   OH233090   5.413   5.558   4.257  0.1412  0.3466  0.2612
 3892TIP3    H133091   5.366   5.618   4.315 -3.1338  0.3394 -2.2122
 3892TIP3    H233092   5.457   5.615   4.194  0.9016  0.2688  0.7193
 3893TIP3   OH233093   3.540   4.226  11.878  0.1444  0.2708 -0.1293
 3893TIP3    H133094   3.446   4.217  11.890 -0.1639  1.4371 -1.5595
 3893TIP3    H233095   3.552   4.229  11.783  1.6579 -0.2286  0.0304
 3894TIP3   OH233096   4.954   6.025   5.572  0.1717  0.2788 -0.3147
 3894TIP3    H133097   5.029   6.042   5.515 -0.1474 -0.9754 -1.1564
 3894TIP3    H233098   4.955   5.930   5.584  0.5133  0.5651  2.2136
 3895TIP3   OH233099   5.280   3.493  13.475  0.6187 -0.1251  0.0741
 3895TIP3    H133100   5.213   3.530  13.417 -3.5986 -2.9468  2.8173
 3895TIP3    H233101   5.279   3.550  13.552 -0.7911 -1.7676  1.3192
 3896TIP3   OH233102   3.530   6.102  15.240 -0.0212 -0.1322 -0.1763
 3896TIP3    H133103   3.594   6.083  15.308 -1.4681  0.2272  1.3036
 3896TIP3    H233104   3.519   6.197  15.242  0.1278 -0.0945 -1.0803
 3897TIP3   OH233105   0.298   0.320   4.782  0.3359  0.2073 -0.1715
 3897TIP3    H133106   0.356   0.390   4.754  1.6431 -1.5716 -2.0098
 3897TIP3    H233107   0.351   0.265   4.839 -0.4752  0.2771  0.6786
 3898TIP3   OH233108   0.349   4.901   2.744  0.2749  0.5299  0.0007
 3898TIP3    H133109   0.432   4.938   2.775  1.6741 -4.3428  2.4440
 3898TIP3    H233110   0.360   4.897   2.649  1.3934  3.0599 -0.0378
 3899TIP3   OH233111   0.508   6.385   3.269  0.1946  0.5644  0.2508
 3899TIP3    H133112   0.550   6.313   3.315  1.7064  0.8353 -0.7014
 3899TIP3    H233113   0.462   6.433   3.338 -2.9393 -2.6639  0.5703
 3900TIP3   OH233114   4.615   6.368   4.549  0.4034  0.4497  0.0827
 3900TIP3    H133115   4.701   6.409   4.555  1.0108 -0.7344 -0.3077
 3900TIP3    H233116   4.621   6.310   4.473 -0.2744 -0.7320  0.9072
 3901TIP3   OH233117   0.701   3.703   5.154  0.5380 -0.2110 -0.1250
 3901TIP3    H133118   0.720   3.652   5.075  0.4958  1.5452 -1.2951
 3901TIP3    H233119   0.741   3.788   5.138 -2.4163  1.3361  0.2240
 3902TIP3   OH233120   1.658   6.354  14.216  0.6517 -0.3456 -0.4955
 3902TIP3    H133121   1.721   6.328  14.149  1.0830  0.2434 -0.3194
 3902TIP3    H233122   1.608   6.425  14.175  0.5057 -0.4025 -0.4162
 3903TIP3   OH233123   1.970   4.431  16.541  0.2004 -0.3718  0.2592
 3903TIP3    H133124   1.933   4.514  16.570 -1.3583 -1.3610  1.1660
 3903TIP3    H233125   2.004   4.390  16.620  0.7694 -0.6890 -0.1459
 3904TIP3   OH233126   2.929   1.018   1.109 -0.9620  0.3659  0.4039
 3904TIP3    H133127   2.844   0.977   1.093 -0.5400 -0.5805  0.5544
 3904TIP3    H233128   2.919   1.062   1.193 -1.9225  1.9554 -0.5101
 3905TIP3   OH233129   2.793   0.417   2.081 -0.3006 -0.1764 -0.2054
 3905TIP3    H133130   2.815   0.458   1.997 -2.1340 -0.2222 -0.7363
 3905TIP3    H233131   2.775   0.490   2.139 -0.6515 -0.1724 -0.3182
 3906TIP3   OH233132   2.087   0.164  13.931  0.2483 -0.4474 -0.2988
 3906TIP3    H133133   2.033   0.170  14.010  0.3771 -1.2216 -0.1473
 3906TIP3    H233134   2.024   0.167  13.859  0.0152 -1.0661 -0.1287
 3907TIP3   OH233135   4.649   2.216   2.360  0.4163 -0.0306 -0.4236
 3907TIP3    H133136   4.578   2.279   2.343 -0.9096 -0.4573  3.0477
 3907TIP3    H233137   4.606   2.131   2.359  0.1825 -0.1181  4.4132
 3908TIP3   OH233138   6.421   3.814   5.125  0.1955  0.3235 -0.1143
 3908TIP3    H133139   6.330   3.787   5.110 -0.3190  1.1847  1.3431
 3908TIP3    H233140   6.466   3.734   5.150 -0.5526  0.1857  0.8257
 3909TIP3   OH233141   4.257   4.959  13.791  0.2940  0.6325  0.3194
 3909TIP3    H133142   4.175   4.998  13.760 -0.4336 -0.2039  1.1509
 3909TIP3    H233143   4.229   4.888  13.849  1.6013 -0.1344  0.0380
 3910TIP3   OH233144   5.852   2.950  12.132  0.0187  0.0555  0.0861
 3910TIP3    H133145   5.815   2.862  12.146  2.3337 -0.8020  1.0263
 3910TIP3    H233146   5.856   2.988  12.220  3.4360 -0.7526  0.3382
 3911TIP3   OH233147   0.265   0.453  12.054 -0.3122  0.1268  0.0533
 3911TIP3    H133148   0.269   0.364  12.019  0.5958  1.1526 -2.5579
 3911TIP3    H233149   0.335   0.499  12.009  1.3655  1.3636  3.7922
 3912TIP3   OH233150   5.144   4.976   5.334 -0.4452 -0.3177  0.1920
 3912TIP3    H133151   5.176   4.931   5.413 -0.5995 -0.2882  0.2718
 3912TIP3    H233152   5.049   4.976   5.344 -0.5388 -1.4626 -0.6224
 3913TIP3   OH233153   2.756   5.132   6.398  0.0383 -0.0939  0.7164
 3913TIP3    H133154   2.834   5.126   6.453  1.1441  0.4811 -0.7717
 3913TIP3    H233155   2.683   5.126   6.460  1.2509 -0.1731  2.1701
 3914TIP3   OH233156   0.059   2.457   1.846 -0.2701 -0.1526 -0.0311
 3914TIP3    H133157   0.055   2.467   1.941  1.7887 -0.7273  0.1255
 3914TIP3    H233158   0.149   2.433   1.828 -0.3774  0.9941 -2.2385
 3915TIP3   OH233159   1.286   1.086   0.904 -0.3417  0.0982 -0.3671
 3915TIP3    H133160   1.379   1.066   0.891 -0.6934 -1.1298 -0.9945
 3915TIP3    H233161   1.248   1.084   0.816 -1.3462 -1.3273  0.0979
 3916TIP3   OH233162   3.761   6.154   6.668 -0.1291  0.6450  0.1573
 3916TIP3    H133163   3.813   6.200   6.733 -0.0620 -0.6036  1.0116
 3916TIP3    H233164   3.671   6.182   6.684 -0.0233  0.8732  0.3406
 3917TIP3   OH233165   6.233   0.261   6.212  0.2918  0.8056 -0.5897
 3917TIP3    H133166   6.157   0.223   6.167  0.5660 -0.0348 -0.3553
 3917TIP3    H233167   6.296   0.189   6.217  0.4454  1.0177  0.7196
 3918TIP3   OH233168   3.948   3.489   2.745  0.3425 -0.0489  0.1167
 3918TIP3    H133169   3.862   3.528   2.734  0.2046  0.0262  1.4600
 3918TIP3    H233170   3.936   3.423   2.813  0.9456 -1.2747 -0.9439
 3919TIP3   OH233171   3.357   0.467   6.330 -0.0889 -0.0359  0.0264
 3919TIP3    H133172   3.385   0.390   6.381  0.9426  2.0134  2.6397
 3919TIP3    H233173   3.292   0.510   6.386  0.0444  1.5110 -1.0020
 3920TIP3   OH233174   4.311   3.759   3.186 -0.0719 -0.0933  0.2142
 3920TIP3    H133175   4.345   3.758   3.276  2.0213 -1.0932 -0.5590
 3920TIP3    H233176   4.378   3.805   3.136 -0.4476 -0.9861 -1.1269
 3921TIP3   OH233177   3.464   3.267   1.262 -0.3502 -0.1560  0.0394
 3921TIP3    H133178   3.539   3.211   1.244  0.3099  1.1817 -1.5018
 3921TIP3    H233179   3.494   3.356   1.240 -2.4324  0.3709 -0.8766
 3922TIP3   OH233180   1.461   1.298   2.776 -0.3163 -0.0092 -0.1581
 3922TIP3    H133181   1.485   1.250   2.697 -0.0903  1.1124 -0.7832
 3922TIP3    H233182   1.411   1.374   2.744  0.3172  0.7934  0.7259
 3923TIP3   OH233183   4.766   1.617   2.676  0.0463  0.5122  0.1867
 3923TIP3    H133184   4.832   1.558   2.641 -0.4507  0.2987 -0.4037
 3923TIP3    H233185   4.814   1.696   2.699  0.3643  0.7086 -1.1103
 3924TIP3   OH233186   0.217   6.584   4.813 -0.2081  0.3039 -0.0351
 3924TIP3    H133187   0.168   6.605   4.893  0.1527 -0.9660  0.5273
 3924TIP3    H233188   0.178   6.502   4.783  0.2613  0.3208 -0.6732
 3925TIP3   OH233189   5.210   3.294   3.342 -0.7578  0.4573  0.1979
 3925TIP3    H133190   5.276   3.327   3.282 -1.1540  2.1117  0.6585
 3925TIP3    H233191   5.133   3.278   3.286 -0.3367 -0.4471 -0.1475
 3926TIP3   OH233192   2.525   5.147   5.604 -0.2804  0.8479  0.4060
 3926TIP3    H133193   2.478   5.174   5.526 -1.2151 -0.4674  0.5009
 3926TIP3    H233194   2.469   5.173   5.677 -0.2811  0.4196  0.5629
 3927TIP3   OH233195   1.503   2.861  11.897 -0.4200  0.0768 -0.5285
 3927TIP3    H133196   1.561   2.784  11.890  0.3835  0.5957  0.3624
 3927TIP3    H233197   1.489   2.888  11.806 -0.3548 -0.8626 -0.8255
 3928TIP3   OH233198   4.392   4.016   4.116 -0.8447  0.3870 -0.2774
 3928TIP3    H133199   4.316   4.067   4.143 -1.1769  0.4269 -1.2447
 3928TIP3    H233200   4.427   4.063   4.040 -0.2299  0.0292 -0.2217
 3929TIP3   OH233201   0.385   4.202  13.101 -0.1122 -0.2637  0.3434
 3929TIP3    H133202   0.459   4.141  13.097  0.3642  0.2826  0.9201
 3929TIP3    H233203   0.309   4.145  13.116  0.3089 -0.7271  0.7355
 3930TIP3   OH233204   3.166   4.084  11.107 -0.1263 -0.1330  0.5645
 3930TIP3    H133205   3.146   3.991  11.109  0.0860 -0.1414  3.1416
 3930TIP3    H233206   3.142   4.116  11.194  1.1122  1.9480  0.1739
 3931TIP3   OH233207   5.816   5.914  16.582  0.6715  0.7062  0.1916
 3931TIP3    H133208   5.809   5.819  16.578  1.3052  0.6892 -0.7151
 3931TIP3    H233209   5.910   5.931  16.585  0.6205  1.3480 -1.3006
 3932TIP3   OH233210   1.198   4.567  16.793 -0.1880  0.0393 -0.2131
 3932TIP3    H133211   1.179   4.497  16.855 -1.3755  0.5500  0.0186
 3932TIP3    H233212   1.189   4.526  16.707 -1.6802  0.0717 -0.0966
 3933TIP3   OH233213   4.451   4.133   0.971 -0.4434  0.3531 -0.1810
 3933TIP3    H133214   4.539   4.146   1.009  0.0028  2.2404 -1.8211
 3933TIP3    H233215   4.401   4.208   1.002 -1.2250 -0.2125 -0.0681
 3934TIP3   OH233216   4.538   5.068   0.600  0.1196 -0.2496  0.0530
 3934TIP3    H133217   4.567   5.008   0.669  0.3738  0.4777  0.5887
 3934TIP3    H233218   4.443   5.070   0.608  0.0597 -1.0534 -0.3713
 3935TIP3   OH233219   5.255   4.903   2.022  0.3191 -0.3865 -0.0133
 3935TIP3    H133220   5.332   4.959   2.029 -0.0565  0.1095  0.1594
 3935TIP3    H233221   5.192   4.940   2.084 -0.3303 -0.3477 -0.6931
 3936TIP3   OH233222   3.684   0.490   5.487 -0.2367  0.4651 -0.0346
 3936TIP3    H133223   3.750   0.467   5.421  0.3103 -1.1217  1.0340
 3936TIP3    H233224   3.713   0.445   5.566 -2.8392 -0.5665  0.3526
 3937TIP3   OH233225   0.815   3.496   2.110 -0.0655 -0.7859 -0.0862
 3937TIP3    H133226   0.900   3.481   2.067  0.4312  0.4079  0.4343
 3937TIP3    H233227   0.774   3.564   2.057  0.0577 -0.1224  0.6567
 3938TIP3   OH233228   1.094   2.330   0.345  0.3178  0.6206  0.7241
 3938TIP3    H133229   1.057   2.408   0.387 -0.8518  0.7255 -0.4784
 3938TIP3    H233230   1.127   2.277   0.418 -0.5402  1.3783  1.6801
 3939TIP3   OH233231   5.977   1.223  14.242 -0.4731 -0.3311  0.5788
 3939TIP3    H133232   6.071   1.243  14.238 -0.5595 -0.0870 -0.1933
 3939TIP3    H233233   5.944   1.277  14.314  0.3439 -1.9017  2.2023
 3940TIP3   OH233234   4.632   4.438  10.428  0.7822  0.1218  0.4519
 3940TIP3    H133235   4.557   4.490  10.399  1.2853  0.2358 -0.6710
 3940TIP3    H233236   4.708   4.487  10.399  1.2536 -1.6009 -1.2917
 3941TIP3   OH233237   5.881   6.042  11.291 -1.2694 -0.1509  0.0017
 3941TIP3    H133238   5.789   6.067  11.275 -1.3386  0.5688  1.4719
 3941TIP3    H233239   5.911   6.103  11.359  0.5054  0.0518 -0.9337
 3942TIP3   OH233240   1.585   0.541  11.796 -0.1686 -0.3350 -0.2706
 3942TIP3    H133241   1.648   0.534  11.724  1.2067  0.8449  0.7730
 3942TIP3    H233242   1.594   0.631  11.828 -1.4841 -0.5290  0.7216
 3943TIP3   OH233243   5.998   1.833   0.719  0.2140  0.0197  0.8445
 3943TIP3    H133244   5.975   1.781   0.796 -0.1737 -0.9658  0.0697
 3943TIP3    H233245   6.085   1.803   0.694  0.0412 -0.1646  0.4676
 3944TIP3   OH233246   2.368   5.501  12.085  0.3753  0.4073 -0.4969
 3944TIP3    H133247   2.397   5.583  12.124 -1.8958  0.5429  0.9520
 3944TIP3    H233248   2.368   5.518  11.991  0.1307  1.9821 -0.2200
 3945TIP3   OH233249   0.162   6.129  15.177 -0.3139 -0.0367  0.6525
 3945TIP3    H133250   0.117   6.138  15.260 -0.3213 -0.4934  0.7012
 3945TIP3    H233251   0.121   6.194  15.120 -1.1475 -0.5509  0.6487
 3946TIP3   OH233252   2.794   2.911  16.208 -0.4025 -0.5758 -0.0965
 3946TIP3    H133253   2.880   2.878  16.180 -0.2876 -0.5112  0.1780
 3946TIP3    H233254   2.808   2.940  16.298  0.0357  2.1590 -1.0006
 3947TIP3   OH233255   5.909   5.806   1.941 -0.0607 -0.4480  0.1401
 3947TIP3    H133256   5.915   5.715   1.970 -1.0764 -0.4503  0.3434
 3947TIP3    H233257   5.819   5.832   1.960  0.1017  0.4695 -0.3076
 3948TIP3   OH233258   4.391   4.259  14.791 -0.0972  0.1268 -0.4504
 3948TIP3    H133259   4.326   4.272  14.722 -0.5340  0.4692  0.0104
 3948TIP3    H233260   4.365   4.321  14.860 -0.3667 -1.0195  0.5064
 3949TIP3   OH233261   4.231   1.162  14.560 -0.4151 -0.5367  0.1598
 3949TIP3    H133262   4.292   1.214  14.612 -0.7382 -0.4415  0.4445
 3949TIP3    H233263   4.246   1.191  14.470  0.3076 -0.8701  0.1748
 3950TIP3   OH233264   2.784   2.072   1.640  0.3354  0.3034 -0.0913
 3950TIP3    H133265   2.824   1.992   1.673  3.5412  1.6834 -0.4156
 3950TIP3    H233266   2.741   2.045   1.558  0.8048 -1.2031  0.1367
 3951TIP3   OH233267   6.045   0.616   3.849 -0.0634 -0.4829  0.5831
 3951TIP3    H133268   6.128   0.569   3.859 -0.8163 -1.8770  0.4528
 3951TIP3    H233269   5.978   0.551   3.870 -1.0983  0.9337  1.8255
 3952TIP3   OH233270   4.376   4.900   2.413 -0.0860 -0.7218 -0.7575
 3952TIP3    H133271   4.394   4.864   2.326 -1.1281 -1.1896 -0.7877
 3952TIP3    H233272   4.367   4.824   2.470 -1.4578 -0.5047 -0.6568
 3953TIP3   OH233273   2.304   3.563   5.174 -0.1786 -0.7129  0.6117
 3953TIP3    H133274   2.283   3.474   5.204 -0.8010 -0.4481  0.9700
 3953TIP3    H233275   2.261   3.620   5.237  0.8822 -0.1485  0.8332
 3954TIP3   OH233276   0.549   2.826  10.689 -0.1189 -0.0739  0.3289
 3954TIP3    H133277   0.496   2.887  10.741  1.0868  1.0898  0.2286
 3954TIP3    H233278   0.591   2.770  10.754 -0.9962 -0.6070  0.4431
 3955TIP3   OH233279   6.652   2.698   4.928 -0.2250  0.4818 -1.1394
 3955TIP3    H133280   6.737   2.738   4.943  0.6151 -1.6261  0.0313
 3955TIP3    H233281   6.595   2.734   4.996  1.0372 -1.7226  1.1624
 3956TIP3   OH233282   4.465   2.019   6.337 -0.2465 -0.0343 -0.3169
 3956TIP3    H133283   4.385   2.000   6.288  0.0317 -0.6981 -0.5063
 3956TIP3    H233284   4.437   2.083   6.403 -0.9723 -0.3990 -0.2692
 3957TIP3   OH233285   4.788   0.588   0.732 -0.2225  0.3742 -0.4909
 3957TIP3    H133286   4.806   0.676   0.700 -1.2351  1.3504  1.5551
 3957TIP3    H233287   4.705   0.595   0.780  0.4826 -1.3387  1.0643
 3958TIP3   OH233288   1.972   6.531  14.619  0.1503 -0.0179 -0.3662
 3958TIP3    H133289   1.929   6.495  14.541 -3.1999 -0.2763  1.4929
 3958TIP3    H233290   1.933   6.618  14.630 -0.5113 -0.5384  1.7618
 3959TIP3   OH233291   5.723   3.032   2.541  0.0176  0.5438  0.1394
 3959TIP3    H133292   5.816   3.054   2.552 -0.0149  0.7864 -0.0653
 3959TIP3    H233293   5.705   3.053   2.449 -0.0572 -0.1749 -0.0185
 3960TIP3   OH233294   5.553   1.548   3.655  0.0307  0.1195 -0.3275
 3960TIP3    H133295   5.643   1.541   3.688 -0.7507 -1.9104  1.5037
 3960TIP3    H233296   5.551   1.492   3.578  0.0369 -0.8470  0.3617
 3961TIP3   OH233297   6.373   5.032   4.270  0.2585  0.4952  0.3130
 3961TIP3    H133298   6.360   5.098   4.338  0.7558  0.7622  0.1563
 3961TIP3    H233299   6.300   5.046   4.209 -0.7979 -0.4555  1.3424
 3962TIP3   OH233300   4.484   3.961  16.039  0.2052 -0.9052  0.3640
 3962TIP3    H133301   4.577   3.954  16.020  0.3760 -2.7458  1.7266
 3962TIP3    H233302   4.478   4.023  16.112  0.3318 -0.6168  0.1298
 3963TIP3   OH233303   4.883   0.122  16.819  0.1988 -0.2033 -0.5925
 3963TIP3    H133304   4.859   0.159  16.734 -2.9119 -2.6012 -0.8378
 3963TIP3    H233305   4.876   0.195  16.880 -0.6682  0.8142 -1.8836
 3964TIP3   OH233306   2.828   0.945  15.665  0.2406 -0.5283 -0.3277
 3964TIP3    H133307   2.742   0.916  15.697 -0.3224 -0.5763 -1.8133
 3964TIP3    H233308   2.877   0.864  15.653  0.3522 -0.5300  0.1572
 3965TIP3   OH233309   4.936   4.642   2.288 -0.0906 -0.4757 -0.1474
 3965TIP3    H133310   4.973   4.615   2.204 -1.8925  0.9399 -1.4438
 3965TIP3    H233311   4.886   4.566   2.318  2.1710 -1.6967  0.6640
 3966TIP3   OH233312   2.739   4.073  13.272 -0.5762  0.4980  0.2687
 3966TIP3    H133313   2.695   4.152  13.241 -1.6164 -0.4061 -0.6107
 3966TIP3    H233314   2.753   4.020  13.194 -2.7364 -1.5805  1.2081
 3967TIP3   OH233315   3.253   1.189   4.713 -0.4786 -0.6700 -0.0142
 3967TIP3    H133316   3.242   1.283   4.729 -0.6359 -0.2974 -2.1756
 3967TIP3    H233317   3.339   1.169   4.751 -0.4815  0.3255  0.5421
 3968TIP3   OH233318   0.404   5.421  14.056  0.3057  0.1089  0.0424
 3968TIP3    H133319   0.468   5.492  14.061 -0.1085  0.5363 -0.7177
 3968TIP3    H233320   0.389   5.408  13.963 -1.0412  0.3084  0.2257
 3969TIP3   OH233321   1.342   6.519   1.175  0.2785 -0.7534 -0.1734
 3969TIP3    H133322   1.404   6.476   1.116  0.6916  1.5291 -1.5074
 3969TIP3    H233323   1.397   6.562   1.240 -0.1344 -2.4471  1.3070
 3970TIP3   OH233324   2.324   1.694   3.925 -0.5371  0.0918  0.1362
 3970TIP3    H133325   2.298   1.786   3.934  0.1629  0.2403  0.6884
 3970TIP3    H233326   2.254   1.645   3.969 -1.7407  0.2422 -1.5651
 3971TIP3   OH233327   4.670   0.703   3.200  0.4048 -0.4328  0.1176
 3971TIP3    H133328   4.690   0.667   3.287  0.1905  0.9387  0.7607
 3971TIP3    H233329   4.732   0.775   3.190 -1.0445  0.8481  0.1106
 3972TIP3   OH233330   2.197   0.469  16.727 -0.0263 -0.1148 -0.3409
 3972TIP3    H133331   2.219   0.562  16.728 -0.1712 -0.0766  1.6809
 3972TIP3    H233332   2.117   0.463  16.779 -0.1903 -1.3356 -0.7211
 3973TIP3   OH233333   2.005   6.157  12.244  0.4115  0.1552  0.5724
 3973TIP3    H133334   1.948   6.187  12.173 -0.9272 -0.0701  1.5450
 3973TIP3    H233335   2.068   6.229  12.256  1.2691 -0.2241 -1.4945
 3974TIP3   OH233336   0.024   4.009   1.215 -0.7010 -0.0319 -0.2019
 3974TIP3    H133337  -0.007   4.015   1.125 -3.3752  1.3205  0.7449
 3974TIP3    H233338  -0.002   3.922   1.244 -2.4276  0.5813  0.1382
 3975TIP3   OH233339   2.820   0.827   2.757  0.3123  0.2900 -0.1471
 3975TIP3    H133340   2.827   0.922   2.756  0.5316  0.2543 -1.9917
 3975TIP3    H233341   2.736   0.808   2.716  0.2973 -0.3224  0.1512
 3976TIP3   OH233342   4.291   0.348  13.655  0.8886 -0.2764  0.2120
 3976TIP3    H133343   4.356   0.341  13.586  2.0137 -2.4608  1.4411
 3976TIP3    H233344   4.332   0.404  13.721  0.3769  0.6471 -0.2389
 3977TIP3   OH233345   3.846   0.785  13.633 -0.2610  0.2209  0.7466
 3977TIP3    H133346   3.753   0.795  13.611 -0.2087  0.3722  0.5931
 3977TIP3    H233347   3.861   0.690  13.630  0.4030  0.3497 -2.6754
 3978TIP3   OH233348   3.313   4.831  12.651 -0.1114  0.5159 -0.1773
 3978TIP3    H133349   3.222   4.842  12.679 -0.7516 -0.6139 -1.7426
 3978TIP3    H233350   3.354   4.782  12.723 -0.2339  2.6030  1.3739
 3979TIP3   OH233351   3.512   1.613  16.786 -0.3444  0.3167  0.0404
 3979TIP3    H133352   3.603   1.597  16.762 -0.7056  0.3799 -1.4437
 3979TIP3    H233353   3.461   1.576  16.713 -1.4316  1.9816 -0.0724
 3980TIP3   OH233354   0.227   2.559  14.477  0.3018  0.2563  0.2329
 3980TIP3    H133355   0.157   2.559  14.543  0.4345  5.1761  0.5022
 3980TIP3    H233356   0.181   2.555  14.393 -0.0083 -1.8317  0.4581
 3981TIP3   OH233357   3.003   1.202   3.695  0.3030  0.1020 -0.4792
 3981TIP3    H133358   3.052   1.273   3.737 -0.5806 -0.6209  1.8329
 3981TIP3    H233359   2.911   1.220   3.718 -0.1166 -0.7024 -1.5242
 3982TIP3   OH233360   4.299   2.359  12.857 -0.1578 -0.2535 -0.4950
 3982TIP3    H133361   4.253   2.393  12.780  1.1192  2.9285  0.0817
 3982TIP3    H233362   4.390   2.353  12.829 -0.0874 -1.5847 -0.0098
 3983TIP3   OH233363   1.168   5.378  13.448 -0.2278 -0.2209 -0.3616
 3983TIP3    H133364   1.235   5.355  13.513  1.4889  0.5440 -1.8217
 3983TIP3    H233365   1.107   5.304  13.450  1.0024 -1.2552  0.5487
 3984TIP3   OH233366   0.471   4.627  17.020 -0.1690 -0.6029 -0.7807
 3984TIP3    H133367   0.401   4.620  17.085  0.3049 -1.6958 -0.3820
 3984TIP3    H233368   0.449   4.705  16.969 -0.1695  0.7040  1.1673
 3985TIP3   OH233369   1.989   6.680  11.697 -0.3768 -0.4056  0.1752
 3985TIP3    H133370   2.045   6.628  11.754  2.1098 -1.0951 -2.7674
 3985TIP3    H233371   2.008   6.770  11.720  2.5434 -0.6044 -1.2331
 3986TIP3   OH233372   4.727   2.838   2.247 -0.2008  0.1198 -0.0661
 3986TIP3    H133373   4.655   2.832   2.310  0.9300 -2.3375  1.0597
 3986TIP3    H233374   4.794   2.778   2.281  2.4013  2.3345 -1.0869
 3987TIP3   OH233375   4.590   2.788   4.521 -0.0489  0.0277  0.1680
 3987TIP3    H133376   4.655   2.734   4.476  0.8085  0.7470  0.5382
 3987TIP3    H233377   4.575   2.743   4.604 -0.8723 -0.7464 -0.3896
 3988TIP3   OH233378   5.861   3.586  11.431 -0.0867  0.2389  0.5378
 3988TIP3    H133379   5.898   3.528  11.364  0.7271 -0.2814  1.4276
 3988TIP3    H233380   5.914   3.569  11.509 -2.3428 -0.7415  1.9175
 3989TIP3   OH233381   3.942   3.107  11.592 -0.2577  0.1106 -0.7522
 3989TIP3    H133382   3.868   3.159  11.624  0.2562  2.0014 -2.5127
 3989TIP3    H233383   3.937   3.115  11.497  2.5460  0.7750 -0.8773
 3990TIP3   OH233384   2.850   2.022  13.513 -0.4849  0.1138  0.3587
 3990TIP3    H133385   2.870   2.022  13.420 -1.2180  0.0968  0.1951
 3990TIP3    H233386   2.935   2.020  13.557  0.0175  3.8489 -0.2734
 3991TIP3   OH233387   6.220   6.110   2.285 -0.0133  0.3123 -0.2423
 3991TIP3    H133388   6.195   6.129   2.194  1.1103  0.1743 -0.5970
 3991TIP3    H233389   6.181   6.024   2.302 -1.4660  0.9838 -0.0856
 3992TIP3   OH233390   0.570   1.336   5.149 -0.1833  0.0674  0.0238
 3992TIP3    H133391   0.531   1.349   5.235  0.9574 -1.0765  0.7395
 3992TIP3    H233392   0.496   1.314   5.092 -0.9489  0.8493  0.6998
 3993TIP3   OH233393   0.396   4.018   4.285 -0.0735  0.3301 -0.2378
 3993TIP3    H133394   0.305   3.989   4.280 -0.2440  0.6670  0.8111
 3993TIP3    H233395   0.429   4.008   4.196 -1.1594  0.2828 -0.6445
 3994TIP3   OH233396   3.580   1.302   2.334  0.3517 -0.4828  0.1688
 3994TIP3    H133397   3.591   1.221   2.385  1.7517  0.1045  0.8267
 3994TIP3    H233398   3.620   1.282   2.249  0.8709 -0.4225  0.3972
 3995TIP3   OH233399   1.583   6.672  11.546  0.0365 -0.3989  0.5421
 3995TIP3    H133400   1.509   6.726  11.573  1.0536  1.6555 -0.6963
 3995TIP3    H233401   1.564   6.648  11.455  0.6414 -0.2949  0.3848
 3996TIP3   OH233402   2.312   4.774   4.794  0.4891 -0.3002  0.0889
 3996TIP3    H133403   2.376   4.717   4.752 -0.0710 -0.8134 -0.0800
 3996TIP3    H233404   2.344   4.783   4.884  1.2118  0.0778 -0.2078
 3997TIP3   OH233405   1.379   5.083  12.552  0.0074 -0.6463 -0.9341
 3997TIP3    H133406   1.299   5.054  12.509  0.0906 -0.7789 -0.9964
 3997TIP3    H233407   1.415   5.005  12.594 -0.2961 -0.4355 -0.2625
 3998TIP3   OH233408   1.771   3.361  12.786  0.1949 -0.4632 -0.2453
 3998TIP3    H133409   1.810   3.429  12.841 -0.1765 -0.5595  0.1478
 3998TIP3    H233410   1.844   3.324  12.738  0.3895  0.2447 -0.4954
 3999TIP3   OH233411   6.133   0.102  16.874  0.1356 -0.2273 -0.3943
 3999TIP3    H133412   6.106   0.107  16.966  0.4278  1.2651 -0.3873
 3999TIP3    H233413   6.183   0.020  16.869  2.9306  1.2437  1.5403
 4000TIP3   OH233414   6.586   3.034   5.057 -0.3106 -0.4161  0.7399
 4000TIP3    H133415   6.565   3.052   5.149  0.1931  2.0480  0.4255
 4000TIP3    H233416   6.669   2.986   5.060 -0.2279 -0.2317  1.5938
 4001TIP3   OH233417   1.525   0.637  14.779  1.4546 -0.3637  0.5563
 4001TIP3    H133418   1.549   0.619  14.870 -1.5553  2.0500  1.9161
 4001TIP3    H233419   1.498   0.729  14.779  0.2687 -0.6489 -2.5248
 4002TIP3   OH233420   2.529   3.668   3.816 -0.0015  0.2253  0.3955
 4002TIP3    H133421   2.454   3.727   3.821 -0.9713 -1.0530  1.3486
 4002TIP3    H233422   2.505   3.594   3.873  2.0933 -0.0595  0.9579
 4003TIP3   OH233423   0.965   1.418  15.671  0.2491  0.1230  0.0089
 4003TIP3    H133424   1.011   1.491  15.629  0.4398 -0.1018 -0.1704
 4003TIP3    H233425   0.926   1.369  15.599  0.4072 -0.1464  0.1048
 4004TIP3   OH233426   4.603   5.045  12.528 -0.1845 -0.4973 -0.3685
 4004TIP3    H133427   4.622   5.139  12.522  0.5604 -0.7366 -2.3216
 4004TIP3    H233428   4.514   5.036  12.493 -0.8242 -0.3555  1.1936
 4005TIP3   OH233429   1.997   4.628   2.788 -0.2079  0.2545  0.0320
 4005TIP3    H133430   1.991   4.683   2.867  0.9964 -0.7379  0.8406
 4005TIP3    H233431   2.079   4.579   2.800  0.8706  1.3258 -2.6516
 4006TIP3   OH233432   0.973   3.584  16.547 -0.5439  0.4497  0.3222
 4006TIP3    H133433   0.903   3.546  16.599 -2.3260  1.0923 -1.5481
 4006TIP3    H233434   0.955   3.554  16.458  1.8438  0.2269 -0.1199
 4007TIP3   OH233435   2.606   0.978  11.135  0.3598  0.5047  0.1747
 4007TIP3    H133436   2.671   0.930  11.084 -0.5426  0.2025 -0.7112
 4007TIP3    H233437   2.563   0.912  11.189 -0.6575  0.3393 -0.8066
 4008TIP3   OH233438   5.566   1.013  14.666  0.6429 -0.1313 -1.0866
 4008TIP3    H133439   5.552   1.074  14.738 -0.6298  3.1946 -4.0085
 4008TIP3    H233440   5.501   0.944  14.680  0.6484  0.2858  1.1054
 4009TIP3   OH233441   0.621   1.732  12.603 -0.8050  0.4130  0.2355
 4009TIP3    H133442   0.572   1.788  12.542 -0.3572  0.8316  0.2562
 4009TIP3    H233443   0.692   1.697  12.551 -1.9595 -1.3754 -0.1823
 4010TIP3   OH233444   4.067   6.051  16.934  0.1384 -0.4506 -0.7408
 4010TIP3    H133445   4.078   5.982  16.869  0.2131  1.0065 -2.3174
 4010TIP3    H233446   4.156   6.067  16.967  0.0951 -1.2225 -0.2527
 4011TIP3   OH233447   1.210   0.571  11.298  0.0654  0.1690  0.1279
 4011TIP3    H133448   1.228   0.585  11.390  1.0488 -0.9160  0.1256
 4011TIP3    H233449   1.139   0.506  11.296 -0.3888  0.6624  0.1171
 4012TIP3   OH233450   4.258   3.364   3.124  0.1096 -0.3939 -0.6705
 4012TIP3    H133451   4.239   3.389   3.215  0.1730 -0.1851 -0.7154
 4012TIP3    H233452   4.219   3.433   3.071 -0.1012 -0.6201 -0.8113
 4013TIP3   OH233453   6.577   6.081  12.396 -0.1321  0.3409 -0.0662
 4013TIP3    H133454   6.566   5.990  12.369 -0.5191  0.0570  1.0038
 4013TIP3    H233455   6.487   6.113  12.406  0.0089  0.5244  0.5975
 4014TIP3   OH233456   0.742   4.167  13.763  0.2103 -0.4022  0.4943
 4014TIP3    H133457   0.836   4.155  13.773  0.0270 -2.6891 -0.2191
 4014TIP3    H233458   0.710   4.081  13.736 -2.4021 -0.3584  3.1597
 4015TIP3   OH233459   2.137   6.334  14.171 -0.1103  0.4140 -0.1838
 4015TIP3    H133460   2.137   6.280  14.092  2.0011  0.0156  0.0621
 4015TIP3    H233461   2.196   6.407  14.150  1.5168 -0.3950  1.4635
 4016TIP3   OH233462   4.513   2.011   1.759 -0.0666 -0.0340 -0.1607
 4016TIP3    H133463   4.491   2.094   1.801 -1.3408 -1.3875  1.9223
 4016TIP3    H233464   4.608   2.002   1.770  0.0466  1.0385 -0.2234
 4017TIP3   OH233465   6.731   1.814   5.589 -0.2330  0.2258 -0.1717
 4017TIP3    H133466   6.762   1.737   5.543 -0.7158 -0.6119  0.8796
 4017TIP3    H233467   6.759   1.888   5.535  0.5559 -0.6671 -0.9896
 4018TIP3   OH233468   3.337   6.060   1.367  0.4034  0.1892 -0.1367
 4018TIP3    H133469   3.329   6.001   1.292 -0.6876 -0.1116  0.2212
 4018TIP3    H233470   3.341   6.003   1.443 -2.5997  0.6163  0.3779
 4019TIP3   OH233471   6.237   2.984   3.335 -0.0638  0.3735 -0.1938
 4019TIP3    H133472   6.324   3.024   3.333  0.2815 -0.2909  1.0371
 4019TIP3    H233473   6.254   2.891   3.327 -0.8568  0.4182 -2.8299
 4020TIP3   OH233474   5.575   1.292  13.337  0.5376 -0.3438  0.3366
 4020TIP3    H133475   5.660   1.333  13.355  0.6526 -0.9114  1.1319
 4020TIP3    H233476   5.591   1.198  13.348 -0.4346 -0.3847  1.5383
 4021TIP3   OH233477   4.509   3.771   5.313  0.4583 -0.1763  0.0677
 4021TIP3    H133478   4.585   3.792   5.367 -0.2714 -0.6253  1.2792
 4021TIP3    H233479   4.488   3.681   5.335  0.6607 -0.6431 -1.5922
 4022TIP3   OH233480   4.518   3.679   6.453  0.7460 -0.2106  0.0904
 4022TIP3    H133481   4.425   3.671   6.430  1.4508 -0.5672 -2.9015
 4022TIP3    H233482   4.541   3.592   6.486  0.1534 -0.2941  0.3020
 4023TIP3   OH233483   0.333   5.682  11.884 -0.4228  0.2805  0.6573
 4023TIP3    H133484   0.417   5.714  11.852 -1.3407  1.5047 -0.6285
 4023TIP3    H233485   0.340   5.587  11.881  0.6344  0.3744 -0.1937
 4024TIP3   OH233486   3.411   4.419  10.948 -1.1493 -0.0471 -0.1651
 4024TIP3    H133487   3.417   4.514  10.939 -1.2154 -0.1342 -1.1962
 4024TIP3    H233488   3.317   4.401  10.944 -0.9961 -0.4236 -3.0597
 4025TIP3   OH233489   6.444   0.071   1.316 -0.2912 -0.3230  0.1256
 4025TIP3    H133490   6.355   0.092   1.286  0.3189  1.2038 -0.6772
 4025TIP3    H233491   6.494   0.152   1.301  1.7072 -1.7630 -1.2584
 4026TIP3   OH233492   0.224   2.663  16.877 -0.0047 -0.6364  0.3103
 4026TIP3    H133493   0.214   2.617  16.793 -0.2790  0.6930 -0.3982
 4026TIP3    H233494   0.286   2.609  16.926 -0.6819 -2.0189 -0.3160
 4027TIP3   OH233495   1.826   2.290   1.187 -0.0325 -0.3796 -0.0753
 4027TIP3    H133496   1.803   2.292   1.094 -0.5043  0.9024  0.0620
 4027TIP3    H233497   1.916   2.321   1.189 -0.2272  0.1846 -0.0449
 4028TIP3   OH233498   6.080   6.638   0.847  0.7899  0.5840  0.8138
 4028TIP3    H133499   5.992   6.670   0.863  0.2269  0.5969 -1.9916
 4028TIP3    H233500   6.070   6.544   0.836  1.0401  0.6334  0.1064
 4029TIP3   OH233501   3.488   0.928  12.765 -0.3510  0.3608 -0.3622
 4029TIP3    H133502   3.551   0.954  12.832 -0.0341 -1.4502  0.0675
 4029TIP3    H233503   3.541   0.890  12.695 -0.9147 -0.9010 -0.1249
 4030TIP3   OH233504   3.667   3.068  13.814  0.0667  0.2114 -0.0551
 4030TIP3    H133505   3.683   2.975  13.830  1.2169  0.5277  0.7449
 4030TIP3    H233506   3.655   3.106  13.901 -0.1593  0.8489 -0.3592
 4031TIP3   OH233507   3.785   4.035   2.104  0.3674 -0.4675 -0.4935
 4031TIP3    H133508   3.738   3.954   2.082 -0.9450 -0.5336  2.2959
 4031TIP3    H233509   3.876   4.017   2.081 -0.3303 -1.7912 -2.3282
 4032TIP3   OH233510   0.644   4.691   0.811  0.3910 -0.1916  0.0724
 4032TIP3    H133511   0.647   4.627   0.882  3.1803  0.9657  1.0666
 4032TIP3    H233512   0.553   4.720   0.809 -0.5348 -2.9006  0.7359
 4033TIP3   OH233513   3.816   1.314   2.171 -0.1582  0.2373 -0.4088
 4033TIP3    H133514   3.853   1.279   2.252 -0.7132 -0.5628 -0.4902
 4033TIP3    H233515   3.819   1.409   2.182 -0.2315  0.1329  0.5522
 4034TIP3   OH233516   1.266   1.662  14.108  0.5291 -0.4656  0.4721
 4034TIP3    H133517   1.285   1.755  14.118 -0.6022 -0.1914  0.1004
 4034TIP3    H233518   1.335   1.630  14.049  0.4331  0.3185 -0.0726
 4035TIP3   OH233519   3.460   3.395  16.043 -0.3061 -0.3173  0.6157
 4035TIP3    H133520   3.403   3.442  16.104  2.2554  1.9383  1.3432
 4035TIP3    H233521   3.434   3.426  15.957 -0.0915  0.8159  0.9543
 4036TIP3   OH233522   4.340   5.344  13.240  0.0245 -0.1999  0.5140
 4036TIP3    H133523   4.351   5.302  13.326  1.6430 -0.3661  0.2386
 4036TIP3    H233524   4.417   5.400  13.231 -0.4281  0.2514 -0.5915
 4037TIP3   OH233525   6.691   5.786   0.931 -0.0088 -0.4083 -0.3857
 4037TIP3    H133526   6.690   5.880   0.951  0.1981 -1.0537  2.9261
 4037TIP3    H233527   6.599   5.762   0.925 -0.3446 -1.1367  5.0918
 4038TIP3   OH233528   0.082   4.124   5.536  0.0752  0.8567 -0.1718
 4038TIP3    H133529   0.024   4.061   5.493 -0.6688  1.5207 -0.1638
 4038TIP3    H233530   0.146   4.148   5.469  0.1725  0.3304 -0.2668
 4039TIP3   OH233531   2.726   0.135   4.508 -0.1861  0.2235 -0.1733
 4039TIP3    H133532   2.708   0.080   4.432  0.6335  3.0772 -2.5437
 4039TIP3    H233533   2.671   0.213   4.494  0.9530  1.3537  1.4885
 4040TIP3   OH233534   5.741   4.808   0.500  0.0286  0.2002 -0.9546
 4040TIP3    H133535   5.653   4.771   0.507  0.8946 -1.5790  1.0971
 4040TIP3    H233536   5.799   4.738   0.528  1.9035  2.3946  0.8281
 4041TIP3   OH233537   0.335   5.246  11.279  0.0638 -0.6869 -0.1753
 4041TIP3    H133538   0.277   5.322  11.272 -0.9375 -1.3057  1.2869
 4041TIP3    H233539   0.389   5.250  11.200  0.8648  2.2401  0.4649
 4042TIP3   OH233540   0.656   0.070  14.935  0.8182  0.0619  0.3124
 4042TIP3    H133541   0.609   0.046  14.855  1.0790 -3.3946  1.1025
 4042TIP3    H233542   0.740   0.024  14.928  0.4906 -1.0209  2.9329
 4043TIP3   OH233543   2.010   5.147   2.269  0.1380  0.2722  0.4681
 4043TIP3    H133544   2.076   5.169   2.203 -0.1325 -1.0279 -0.2433
 4043TIP3    H233545   2.054   5.086   2.327 -0.0695  0.3355  0.6936
 4044TIP3   OH233546   5.726   6.334  11.642  0.2574  0.0773 -0.3385
 4044TIP3    H133547   5.708   6.241  11.656  1.6649 -0.0601  0.6259
 4044TIP3    H233548   5.712   6.374  11.728 -1.0704  0.8995 -0.9064
 4045TIP3   OH233549   0.332   0.226   2.069  0.7865 -0.2131 -0.2576
 4045TIP3    H133550   0.360   0.315   2.092 -1.5372  0.5686 -0.3660
 4045TIP3    H233551   0.354   0.218   1.976 -1.9039  1.4694 -1.1088
 4046TIP3   OH233552   2.782   2.609   1.240 -0.0287 -0.5099  0.3391
 4046TIP3    H133553   2.876   2.627   1.239 -0.2729  0.8153 -0.4879
 4046TIP3    H233554   2.751   2.639   1.155 -1.6049  1.3957  1.5295
 4047TIP3   OH233555   0.597   6.488  12.625 -0.1082  0.3935  0.5408
 4047TIP3    H133556   0.602   6.494  12.720  0.2276  0.9743  0.4887
 4047TIP3    H233557   0.573   6.576  12.596 -1.7296 -0.1483  0.1754
 4048TIP3   OH233558   4.104   4.491  12.961 -0.3672  0.1693 -0.4628
 4048TIP3    H133559   4.035   4.425  12.949  0.1868 -0.7623  1.2335
 4048TIP3    H233560   4.128   4.483  13.053  0.1991  2.2907 -0.4044
 4049TIP3   OH233561   5.491   5.203  12.647 -1.1665  0.2342 -0.4947
 4049TIP3    H133562   5.535   5.132  12.601  0.8041 -0.0160  1.7027
 4049TIP3    H233563   5.424   5.160  12.701  0.0468  0.0329  0.8599
 4050TIP3   OH233564   4.077   2.078  13.521  0.1075  0.1264  0.0657
 4050TIP3    H133565   4.129   2.009  13.480 -1.5620 -0.9305 -0.3602
 4050TIP3    H233566   4.064   2.048  13.611 -1.9738 -0.9769 -0.5487
 4051TIP3   OH233567   2.601   6.211  12.247  0.4990 -0.1493  0.0572
 4051TIP3    H133568   2.631   6.268  12.175  1.5858 -0.2161  0.4425
 4051TIP3    H233569   2.637   6.251  12.326  1.2171 -1.3207  0.3397
 4052TIP3   OH233570   3.635   5.787   4.517 -0.2156 -0.6187 -0.2715
 4052TIP3    H133571   3.715   5.740   4.494 -0.5778 -1.3984  0.0466
 4052TIP3    H233572   3.609   5.751   4.602  0.4571  1.3970  0.8015
 4053TIP3   OH233573   1.951   2.814   2.330  0.2543  0.1375 -0.0486
 4053TIP3    H133574   1.939   2.795   2.237 -3.0290 -0.7569  0.4947
 4053TIP3    H233575   1.932   2.907   2.338 -1.0619 -0.1308 -0.0294
 4054TIP3   OH233576   1.986   4.460  15.738  0.0266  0.2931 -0.1048
 4054TIP3    H133577   1.963   4.419  15.821 -0.0717  2.1100  0.7864
 4054TIP3    H233578   2.016   4.548  15.762 -0.7805  1.1303 -2.0465
 4055TIP3   OH233579   1.125   6.666   3.621 -0.5364  0.0088 -0.3780
 4055TIP3    H133580   1.095   6.653   3.711 -0.8134 -0.2727 -0.5096
 4055TIP3    H233581   1.217   6.692   3.630 -0.2536 -1.0609 -0.0578
 4056TIP3   OH233582   5.449   2.547  14.942  0.2013 -0.3288 -0.5176
 4056TIP3    H133583   5.489   2.558  15.029  0.9395  0.4638 -0.9491
 4056TIP3    H233584   5.366   2.504  14.960  0.3032 -0.0934  0.6022
 4057TIP3   OH233585   3.208   3.799   5.172 -1.0390  0.1323  0.0193
 4057TIP3    H133586   3.255   3.721   5.144 -1.4862 -0.1464  0.0365
 4057TIP3    H233587   3.146   3.817   5.101  0.7091  1.8811 -1.1159
 4058TIP3   OH233588   1.904   5.402   4.316  0.6337 -0.4065 -0.5113
 4058TIP3    H133589   1.999   5.400   4.320  0.5198 -2.5477  2.7900
 4058TIP3    H233590   1.878   5.453   4.393 -0.9258 -0.6404 -0.8628
 4059TIP3   OH233591   2.362   5.093  17.219  0.0395 -0.5304  0.6708
 4059TIP3    H133592   2.368   5.183  17.186 -1.5992 -0.0319  1.6469
 4059TIP3    H233593   2.432   5.087  17.284  0.0148  0.1203  0.7659
 4060TIP3   OH233594   0.590   5.172  13.413  0.1763 -0.1200  0.8668
 4060TIP3    H133595   0.627   5.084  13.406  0.4748 -0.0205  1.2083
 4060TIP3    H233596   0.574   5.199  13.322 -1.9102 -1.3800  0.8121
 4061TIP3   OH233597   0.313   1.747   3.872 -0.1669  0.0589  0.0712
 4061TIP3    H133598   0.240   1.753   3.810 -0.7397 -3.1132  0.3303
 4061TIP3    H233599   0.356   1.663   3.850  2.1708  0.8875  1.2496
 4062TIP3   OH233600   0.859   2.257   2.990  0.2744  0.8438  0.4858
 4062TIP3    H133601   0.954   2.267   2.986  0.4091 -0.1333  1.1426
 4062TIP3    H233602   0.838   2.265   3.083  0.0439 -1.7167  0.6817
 4063TIP3   OH233603   4.928   4.781   2.532 -0.2681 -0.2204 -0.1747
 4063TIP3    H133604   5.000   4.843   2.537  0.2086 -0.9082  1.7809
 4063TIP3    H233605   4.940   4.736   2.448  2.1520 -1.0173  0.5703
 4064TIP3   OH233606   2.444   2.420   6.437 -0.2994  0.1980 -0.3575
 4064TIP3    H133607   2.375   2.359   6.461  0.1097 -0.2492 -0.2978
 4064TIP3    H233608   2.521   2.365   6.425 -0.1918  0.5711 -1.4211
 4065TIP3   OH233609   6.140   3.008   5.848  0.2569 -0.2244 -0.3187
 4065TIP3    H133610   6.066   3.065   5.868  0.5712  0.1933 -0.3440
 4065TIP3    H233611   6.127   2.931   5.903 -0.9485 -0.7678 -1.3363
 4066TIP3   OH233612   2.514   3.469  16.635  0.4718 -0.0682 -0.2008
 4066TIP3    H133613   2.547   3.531  16.701  1.8605  0.5800 -1.4706
 4066TIP3    H233614   2.432   3.436  16.672 -0.2996  2.5355  0.5210
 4067TIP3   OH233615   0.641   2.450   0.090  0.3796  0.0923 -0.4160
 4067TIP3    H133616   0.586   2.527   0.105 -0.3258 -0.7927  1.7333
 4067TIP3    H233617   0.730   2.482   0.105  0.1609  0.6891 -0.3568
 4068TIP3   OH233618   0.649   4.448   0.337 -0.0153 -0.0007  0.6790
 4068TIP3    H133619   0.686   4.501   0.407 -1.5582  2.1949 -0.1038
 4068TIP3    H233620   0.712   4.454   0.266 -0.5834  1.5107  0.2933
 4069TIP3   OH233621   5.141   0.483   1.085  0.1139 -0.5188  0.0083
 4069TIP3    H133622   5.108   0.453   1.000 -0.0780  0.1801 -0.1691
 4069TIP3    H233623   5.101   0.424   1.148 -2.0598  0.7519 -0.1449
 4070TIP3   OH233624   1.375   6.095   4.088  0.3967  0.7119 -0.0388
 4070TIP3    H133625   1.441   6.093   4.019 -0.2339  0.5848 -0.6339
 4070TIP3    H233626   1.302   6.143   4.051  0.3761  1.3755  0.8331
 4071TIP3   OH233627   6.466   4.792  14.423 -0.1938 -0.0045  0.1081
 4071TIP3    H133628   6.461   4.887  14.432  0.7737 -0.1325  2.2245
 4071TIP3    H233629   6.409   4.759  14.493 -1.5525 -0.9729 -1.4328
 4072TIP3   OH233630   1.517   5.703  11.705  0.0708 -0.3907  0.1004
 4072TIP3    H133631   1.538   5.692  11.798 -1.0723 -2.0648  0.1787
 4072TIP3    H233632   1.497   5.615  11.674 -0.0467  0.2182 -1.6233
 4073TIP3   OH233633   2.405   0.554   2.506 -0.0157  0.1266 -0.3099
 4073TIP3    H133634   2.398   0.586   2.416 -1.1010  1.3759  0.1976
 4073TIP3    H233635   2.452   0.622   2.553 -2.3076  1.0338  0.7745
 4074TIP3   OH233636   4.257   4.999  12.088 -0.4500 -0.4257  0.2867
 4074TIP3    H133637   4.236   5.086  12.055 -0.0378 -0.6486 -0.5822
 4074TIP3    H233638   4.183   4.944  12.060 -0.6111 -0.3942  0.6521
 4075TIP3   OH233639   2.425   4.331  11.795 -0.1416 -0.0182  0.0710
 4075TIP3    H133640   2.339   4.328  11.755 -0.3280  0.4735  0.4212
 4075TIP3    H233641   2.424   4.412  11.847  1.5674  1.6376 -2.3293
 4076TIP3   OH233642   3.546   3.189   3.499  0.5868  0.2247 -0.5979
 4076TIP3    H133643   3.536   3.101   3.463 -0.4782  0.9415 -2.1520
 4076TIP3    H233644   3.570   3.243   3.423  1.5336  1.2271  0.3882
 4077TIP3   OH233645   2.549   3.489   0.889  0.4508 -0.4861 -0.1207
 4077TIP3    H133646   2.455   3.501   0.875  0.3177 -0.5699  0.7094
 4077TIP3    H233647   2.578   3.568   0.934  0.4482 -1.2098  1.1659
 4078TIP3   OH233648   2.851   6.023   5.736  0.5341  0.4877  0.6462
 4078TIP3    H133649   2.885   5.985   5.654  1.9790 -0.0343  1.4711
 4078TIP3    H233650   2.823   6.111   5.712  0.5773  0.1995 -0.4965
 4079TIP3   OH233651   4.481   0.664   0.492  0.4463 -0.1148  0.5662
 4079TIP3    H133652   4.412   0.619   0.541  0.8319 -0.4650  0.7862
 4079TIP3    H233653   4.472   0.630   0.403 -0.1558  0.4094  0.4262
 4080TIP3   OH233654   3.814   3.691   2.529  0.4856  0.1603  0.3086
 4080TIP3    H133655   3.772   3.731   2.453 -1.1768  0.7757  1.5104
 4080TIP3    H233656   3.902   3.669   2.499 -0.2292  0.1271 -1.8645
 4081TIP3   OH233657   1.524   2.872   4.174  0.5853  0.3797 -0.3610
 4081TIP3    H133658   1.462   2.835   4.111  0.3709  0.2832 -0.0913
 4081TIP3    H233659   1.610   2.852   4.137  0.4767 -0.6050 -0.0867
 4082TIP3   OH233660   4.662   0.779  14.322 -0.3778  0.1440  0.1502
 4082TIP3    H133661   4.651   0.824  14.238  0.4466 -0.0603 -0.0687
 4082TIP3    H233662   4.611   0.831  14.384 -2.1691 -0.4985 -0.7467
 4083TIP3   OH233663   3.986   1.046   0.899 -0.1887 -0.0740 -0.3505
 4083TIP3    H133664   3.971   1.008   0.813  2.6511  1.0858 -1.4224
 4083TIP3    H233665   4.040   0.981   0.946  1.6949  1.0095 -0.9416
 4084TIP3   OH233666   3.944   1.777   0.633 -0.2692 -0.3328  0.1719
 4084TIP3    H133667   4.019   1.717   0.636 -0.8636 -1.0754  0.1784
 4084TIP3    H233668   3.934   1.798   0.540  1.7500  2.0527  0.4501
 4085TIP3   OH233669   0.952   6.168  14.072  0.0154  0.2383  0.9220
 4085TIP3    H133670   0.953   6.168  13.976  3.9302 -1.7063  0.8391
 4085TIP3    H233671   0.926   6.079  14.095  0.1657  0.3874  1.6576
 4086TIP3   OH233672   4.128   4.798  15.204  0.5591 -0.0590  0.4815
 4086TIP3    H133673   4.063   4.868  15.190 -0.3831 -0.5355  2.3522
 4086TIP3    H233674   4.183   4.831  15.275  1.2136 -0.4655  0.1578
 4087TIP3   OH233675   0.838   1.297   0.203 -0.1246  0.2671  0.2720
 4087TIP3    H133676   0.927   1.310   0.235 -0.1371 -1.0754  0.8908
 4087TIP3    H233677   0.849   1.247   0.121 -0.1132  3.3471 -1.6840
 4088TIP3   OH233678   1.467   3.095   5.046 -0.2090 -0.0975 -0.3349
 4088TIP3    H133679   1.485   3.007   5.014 -2.0554 -0.1405 -1.3638
 4088TIP3    H233680   1.468   3.087   5.141  3.3333 -0.4066 -0.3483
 4089TIP3   OH233681   0.858   5.891   3.103  0.2397  0.5139 -0.6549
 4089TIP3    H133682   0.826   5.914   3.191  2.3587  1.5604 -0.1117
 4089TIP3    H233683   0.893   5.803   3.112  0.3757  0.5876 -0.4665
 4090TIP3   OH233684   1.803   5.072   6.101 -0.2696 -0.1879  0.2199
 4090TIP3    H133685   1.793   4.979   6.122  2.1971 -1.0838 -2.3064
 4090TIP3    H233686   1.879   5.100   6.153 -1.7783  0.8098  1.9752
 4091TIP3   OH233687   2.588   1.625   4.671 -0.0821 -0.6658 -0.6921
 4091TIP3    H133688   2.524   1.675   4.722 -1.6319 -1.7586 -1.4817
 4091TIP3    H233689   2.627   1.564   4.734 -0.2842 -0.4232 -0.3307
 4092TIP3   OH233690   4.634   3.574  16.833 -0.6747 -0.2022 -0.3391
 4092TIP3    H133691   4.575   3.596  16.904  1.4393 -0.3311  1.5035
 4092TIP3    H233692   4.599   3.493  16.796 -2.6015  0.6410 -0.4256
 4093TIP3   OH233693   0.916   2.194  10.384 -0.4351 -0.4427  0.2083
 4093TIP3    H133694   0.955   2.279  10.365  0.8921 -0.8990  0.8207
 4093TIP3    H233695   0.838   2.214  10.435 -0.7864  0.4679 -0.6670
 4094TIP3   OH233696   2.207   5.850   1.179 -0.4931 -0.1218 -0.1520
 4094TIP3    H133697   2.247   5.764   1.166 -0.8113 -0.2059 -0.5827
 4094TIP3    H233698   2.211   5.864   1.274 -1.6592 -1.2066  0.0734
 4095TIP3   OH233699   0.091   3.070   2.306 -0.4424 -0.2805  0.6280
 4095TIP3    H133700   0.179   3.100   2.329 -1.0986 -0.1240  3.0255
 4095TIP3    H233701   0.104   3.017   2.227  1.6476  0.6111  0.3342
 4096TIP3   OH233702   1.046   1.331  11.193 -0.6505  1.1951 -0.3362
 4096TIP3    H133703   0.999   1.359  11.115 -0.6361 -0.9055 -1.1300
 4096TIP3    H233704   1.126   1.290  11.161 -1.9676 -2.2685  0.5459
 4097TIP3   OH233705   5.432   2.411  12.378 -0.3823 -0.7849  0.0482
 4097TIP3    H133706   5.445   2.338  12.317  0.7534  0.8299 -1.6856
 4097TIP3    H233707   5.496   2.396  12.447  0.8084 -0.7298 -1.0078
 4098TIP3   OH233708   5.744   6.352   5.694 -0.4946  0.6241  0.3793
 4098TIP3    H133709   5.835   6.363   5.722 -0.6269  1.1807  0.6119
 4098TIP3    H233710   5.723   6.261   5.714 -0.1671  0.6500  0.8589
 4099TIP3   OH233711   5.029   3.249   2.601  0.6542 -0.2042  0.3275
 4099TIP3    H133712   5.004   3.182   2.537 -0.3889 -1.4338  1.9689
 4099TIP3    H233713   4.954   3.253   2.660  0.0816  3.4420 -0.5250
 4100TIP3   OH233714   0.951   3.911  16.571  0.4084  1.1543  0.0337
 4100TIP3    H133715   0.950   3.815  16.573  0.0984  1.1355 -0.7556
 4100TIP3    H233716   0.872   3.937  16.618 -0.8052  0.9708 -1.8530
 4101TIP3   OH233717   2.708   3.834   3.691  0.5637 -0.0146  0.1700
 4101TIP3    H133718   2.728   3.893   3.764  0.7848 -0.7980  0.7508
 4101TIP3    H233719   2.671   3.756   3.733  0.4057 -0.3404 -0.5766
 4102TIP3   OH233720   1.280   6.037   4.651  0.7681  0.4180  0.3985
 4102TIP3    H133721   1.289   5.951   4.691  0.7729  1.2457  2.2120
 4102TIP3    H233722   1.309   6.024   4.560  1.6939 -1.2702  0.9085
 4103TIP3   OH233723   0.291   4.113   0.660 -0.2782  0.4320 -0.3918
 4103TIP3    H133724   0.298   4.206   0.680  1.4397  0.1102  0.7156
 4103TIP3    H233725   0.375   4.091   0.620  0.4741 -1.1826  1.9179
 4104TIP3   OH233726   3.896   0.732  12.779 -0.4000  0.0828  0.5203
 4104TIP3    H133727   3.822   0.761  12.726 -0.2548 -0.7014 -0.1329
 4104TIP3    H233728   3.879   0.639  12.795  1.1344 -0.4825 -0.8623
 4105TIP3   OH233729   0.476   4.369   2.479  0.0898  0.1909  0.4926
 4105TIP3    H133730   0.436   4.323   2.553  0.2560 -0.7922 -0.0305
 4105TIP3    H233731   0.566   4.385   2.507 -0.2178  1.0067  1.0355
 4106TIP3   OH233732   2.833   5.042   0.762  1.0694 -0.3104  0.6991
 4106TIP3    H133733   2.879   4.959   0.774  0.3162 -0.9223 -0.5192
 4106TIP3    H233734   2.764   5.022   0.698  0.1559  0.9776  1.2595
 4107TIP3   OH233735   6.444   1.085  11.198  0.3560 -0.2127 -0.2801
 4107TIP3    H133736   6.416   0.999  11.166  0.5877 -0.9778  1.4979
 4107TIP3    H233737   6.511   1.065  11.263 -0.9683  1.2142  1.5754
 4108TIP3   OH233738   5.624   0.788   3.944  0.4291  0.1150  0.0707
 4108TIP3    H133739   5.571   0.778   4.023 -1.1059 -1.1430 -1.0794
 4108TIP3    H233740   5.685   0.714   3.947  0.8517  0.4870  0.4643
 4109TIP3   OH233741   5.495   6.563   1.311  0.4340  0.4274 -0.1068
 4109TIP3    H133742   5.556   6.535   1.379  1.3458  0.1048 -1.0365
 4109TIP3    H233743   5.543   6.550   1.229 -1.1307 -0.4409 -0.8997
 4110TIP3   OH233744   1.899   1.892  11.845  0.0194 -0.5487  0.2597
 4110TIP3    H133745   1.983   1.849  11.860 -0.0833 -1.3816 -1.4007
 4110TIP3    H233746   1.834   1.823  11.858 -0.2873 -0.3641 -0.2742
 4111TIP3   OH233747   2.141   1.559  13.644  0.1476  0.3219  0.1862
 4111TIP3    H133748   2.180   1.521  13.565  0.9867  1.7007 -0.0748
 4111TIP3    H233749   2.167   1.498  13.714  3.3112  1.4684  0.1149
 4112TIP3   OH233750   5.591   4.290   6.459  0.4907 -0.4787  0.4894
 4112TIP3    H133751   5.511   4.300   6.511  0.0410  1.3541 -0.5114
 4112TIP3    H233752   5.560   4.286   6.369  1.2769 -3.4959  0.2910
 4113TIP3   OH233753   0.881   5.292  11.732  0.1505 -0.0656  0.6941
 4113TIP3    H133754   0.958   5.342  11.757  1.1662 -0.4472 -1.5564
 4113TIP3    H233755   0.811   5.357  11.723  1.1629  0.8094 -1.0050
 4114TIP3   OH233756   0.675   6.559  16.556  0.1800 -1.2098 -0.2961
 4114TIP3    H133757   0.745   6.625  16.560 -0.2844 -0.5755 -1.9366
 4114TIP3    H233758   0.606   6.594  16.612  0.6376 -1.1680  0.2445
 4115TIP3   OH233759   2.251   6.053  15.400 -0.0396 -0.2490  0.0733
 4115TIP3    H133760   2.280   6.015  15.317  0.0603 -0.7464  0.3341
 4115TIP3    H233761   2.332   6.074  15.447 -0.0751  1.8386 -0.7671
 4116TIP3   OH233762   1.612   1.385  14.670 -0.0883  0.4774 -0.2542
 4116TIP3    H133763   1.677   1.330  14.626 -0.5557  0.0895 -0.4645
 4116TIP3    H233764   1.616   1.468  14.623  0.8092  0.7203  0.2384
 4117TIP3   OH233765   2.516   5.181  13.137 -0.1775 -0.1792  0.2623
 4117TIP3    H133766   2.563   5.256  13.101 -0.5885  0.6044  1.3087
 4117TIP3    H233767   2.570   5.153  13.211  0.6852 -1.7992 -0.9446
 4118TIP3   OH233768   1.343   3.592  11.330  0.2672 -0.3607  0.6428
 4118TIP3    H133769   1.346   3.639  11.247  1.6259 -1.6194 -0.0325
 4118TIP3    H233770   1.355   3.660  11.396 -2.2795  0.8573 -0.0827
 4119TIP3   OH233771   6.305   6.491  12.865 -0.1805  0.5744 -0.1442
 4119TIP3    H133772   6.266   6.465  12.781 -1.7032 -1.2288  1.0714
 4119TIP3    H233773   6.237   6.543  12.908 -0.7819 -1.4467  1.4231
 4120TIP3   OH233774   2.291   6.440   2.340  0.2952  0.4176  0.3632
 4120TIP3    H133775   2.207   6.411   2.305  0.1787 -1.0753  1.8081
 4120TIP3    H233776   2.336   6.359   2.364  0.9011  1.3281  2.3968
 4121TIP3   OH233777   0.501   5.654  13.067 -0.0388  0.0785  0.2280
 4121TIP3    H133778   0.444   5.646  13.143 -0.7870  0.1655 -0.3172
 4121TIP3    H233779   0.565   5.584  13.077 -1.2570 -1.0828 -0.0258
 4122TIP3   OH233780   6.086   5.307  15.314  0.3566 -0.0880  0.0400
 4122TIP3    H133781   6.052   5.380  15.263  2.2044  0.9886  0.3067
 4122TIP3    H233782   6.025   5.297  15.386 -1.3427 -0.5138 -1.4386
 4123TIP3   OH233783   4.001   3.453   6.396  0.4000  0.1124  0.6709
 4123TIP3    H133784   3.968   3.523   6.340  1.6891  1.6416  1.7837
 4123TIP3    H233785   4.095   3.449   6.377  0.3274 -1.3796  0.5598
 4124TIP3   OH233786   1.836   2.585   1.031 -0.3064 -0.3701 -0.0898
 4124TIP3    H133787   1.823   2.495   1.001 -1.1740 -0.0312 -0.7579
 4124TIP3    H233788   1.893   2.624   0.965 -0.5159 -0.2243 -0.1848
 4125TIP3   OH233789   1.590   5.769   2.557  0.4143  0.3791 -0.3731
 4125TIP3    H133790   1.655   5.825   2.601  0.3394  1.1851 -1.2608
 4125TIP3    H233791   1.640   5.692   2.529  0.8980  0.7929 -0.6571
 4126TIP3   OH233792   6.509   4.170   3.952  0.4079 -0.6024  0.1741
 4126TIP3    H133793   6.421   4.135   3.965 -0.1175  0.8256  0.5189
 4126TIP3    H233794   6.539   4.131   3.870 -0.9656 -0.2520 -0.5083
 4127TIP3   OH233795   1.261   4.604  17.157  0.2574 -0.0719  0.4625
 4127TIP3    H133796   1.319   4.595  17.232 -0.2988  0.8093  0.9986
 4127TIP3    H233797   1.317   4.637  17.087  0.1793  1.9165  1.3045
 4128TIP3   OH233798   0.220   1.551  10.881  0.2049  0.0542  0.2724
 4128TIP3    H133799   0.268   1.625  10.844  1.2448 -0.6588  0.1716
 4128TIP3    H233800   0.128   1.574  10.870  0.4761  0.0933 -2.3330
 4129TIP3   OH233801   0.928   2.271  13.579 -0.6360  0.3608  0.3103
 4129TIP3    H133802   0.914   2.300  13.489 -0.8875  0.7138  0.4575
 4129TIP3    H233803   0.871   2.195  13.589  0.3283 -0.4359 -0.2022
 4130TIP3   OH233804   4.715   3.664  15.695  0.5941 -0.2394  0.0959
 4130TIP3    H133805   4.708   3.576  15.732  0.8016 -0.0911  0.4977
 4130TIP3    H233806   4.805   3.691  15.714  0.5914 -0.0222 -0.2027
 4131TIP3   OH233807   3.067   2.374  14.586  0.0081  0.2404  0.2998
 4131TIP3    H133808   2.986   2.425  14.595 -0.4344 -0.2217 -0.9894
 4131TIP3    H233809   3.111   2.385  14.670 -0.6937  1.7093  0.5023
 4132TIP3   OH233810   2.073   4.754  14.344 -0.3142  0.1423 -0.2020
 4132TIP3    H133811   2.125   4.834  14.344 -0.7445  0.4289  0.1002
 4132TIP3    H233812   2.070   4.728  14.436  0.3268 -0.5576 -0.3783
 4133TIP3   OH233813   2.222   6.650  14.984  0.0688 -0.6236  0.6066
 4133TIP3    H133814   2.236   6.737  14.947  0.1224 -1.4937 -1.5219
 4133TIP3    H233815   2.133   6.653  15.020 -1.1054 -0.5142 -2.1060
 4134TIP3   OH233816   0.492   3.069  15.454 -0.4786 -0.4090  0.3654
 4134TIP3    H133817   0.451   2.995  15.498  0.7310 -1.1267  0.3232
 4134TIP3    H233818   0.549   3.107  15.521  0.0018 -0.4049 -0.0406
 4135TIP3   OH233819   6.011   0.651  14.775 -0.5597 -0.1666 -0.2564
 4135TIP3    H133820   6.044   0.681  14.859  1.7319 -0.3035 -1.0707
 4135TIP3    H233821   5.957   0.723  14.743  0.0913  0.6635  0.4890
 4136TIP3   OH233822   6.326   4.471  14.473  0.0634 -0.6673 -0.2940
 4136TIP3    H133823   6.340   4.554  14.517 -0.4959 -0.7740  0.0972
 4136TIP3    H233824   6.411   4.429  14.472  1.0200  1.2088 -3.1799
 4137TIP3   OH233825   1.382   0.198  14.043  0.7204 -0.5988  0.3095
 4137TIP3    H133826   1.347   0.256  13.975  2.0235 -0.5232 -0.2982
 4137TIP3    H233827   1.368   0.247  14.124 -1.7463 -1.1091  0.2493
 4138TIP3   OH233828   4.844   0.274  14.498 -0.1795  0.0568  0.1530
 4138TIP3    H133829   4.787   0.208  14.458  1.7372 -2.1584  0.9447
 4138TIP3    H233830   4.826   0.354  14.449 -0.5476 -1.7114 -2.7177
 4139TIP3   OH233831   6.624   4.490  11.920 -0.3425 -0.2543  0.3043
 4139TIP3    H133832   6.605   4.551  11.992  0.1462 -0.3772  0.5432
 4139TIP3    H233833   6.539   4.458  11.892 -0.5448 -0.1114  0.7546
 4140TIP3   OH233834   6.315   2.775   2.169 -0.3728  0.7762 -0.4336
 4140TIP3    H133835   6.302   2.869   2.169  0.7071  0.9389  0.4975
 4140TIP3    H233836   6.282   2.746   2.084 -3.5751  1.5540  0.4694
 4141TIP3   OH233837   0.913   4.337  12.100 -0.4155  0.8045 -0.3214
 4141TIP3    H133838   0.859   4.415  12.089 -0.6252  0.5873 -0.8262
 4141TIP3    H233839   1.003   4.369  12.090 -0.5681  0.6984 -2.2963
 4142TIP3   OH233840   6.536   2.047   0.953  0.0530  0.4969  0.1629
 4142TIP3    H133841   6.555   1.957   0.927 -0.7166  1.0276 -2.3837
 4142TIP3    H233842   6.442   2.057   0.937  0.0859  1.6765  0.6900
 4143TIP3   OH233843   3.480   3.051   2.135 -0.4108 -0.5469 -0.1661
 4143TIP3    H133844   3.557   3.107   2.134 -1.5137  0.9922 -1.7953
 4143TIP3    H233845   3.511   2.968   2.172  1.9030  0.1797 -0.4131
 4144TIP3   OH233846   6.321   0.959  15.724 -0.0953 -0.7441 -0.3506
 4144TIP3    H133847   6.288   0.996  15.642 -1.0424 -0.8900 -0.0307
 4144TIP3    H233848   6.408   0.925  15.701 -0.3443 -0.7620 -1.2806
 4145TIP3   OH233849   4.804   5.641  13.527  0.1654  0.2694  0.0870
 4145TIP3    H133850   4.791   5.602  13.441  1.7656  0.6492 -0.3514
 4145TIP3    H233851   4.841   5.571  13.581 -1.6756 -0.2315  0.7540
 4146TIP3   OH233852   6.307   1.211   0.304  0.5737  0.2203  0.2403
 4146TIP3    H133853   6.278   1.187   0.216  0.0958  0.1161  0.4237
 4146TIP3    H233854   6.399   1.236   0.293  0.6197 -0.1388 -0.2277
 4147TIP3   OH233855   1.383   1.514   3.996 -0.2665  0.8025  0.0084
 4147TIP3    H133856   1.391   1.589   3.937  0.7553  0.2307 -0.5920
 4147TIP3    H233857   1.290   1.492   3.995 -0.2724  0.8495 -1.3112
 4148TIP3   OH233858   3.055   5.676  11.709  0.2677 -0.3903  0.1926
 4148TIP3    H133859   2.984   5.732  11.739  0.8542  1.5691 -1.9749
 4148TIP3    H233860   3.013   5.592  11.689 -1.1997  0.3390  0.1899
 4149TIP3   OH233861   3.751   6.167  13.958 -0.0388 -0.2768 -0.4739
 4149TIP3    H133862   3.786   6.083  13.929  1.2472 -0.3385  1.1818
 4149TIP3    H233863   3.814   6.198  14.022 -2.9680 -0.3709  2.5966
 4150TIP3   OH233864   4.373   0.246   3.564 -0.3826  0.0161  0.7143
 4150TIP3    H133865   4.295   0.205   3.602  0.0859  1.0296  2.8512
 4150TIP3    H233866   4.341   0.323   3.519 -0.8076 -0.5137  0.1045
 4151TIP3   OH233867   4.864   5.835   2.783  0.1159  0.4856 -0.0235
 4151TIP3    H133868   4.866   5.927   2.810 -1.5358  0.6623 -0.4620
 4151TIP3    H233869   4.776   5.821   2.749  0.8017 -0.8872 -1.3193
 4152TIP3   OH233870   4.554   1.678  16.228 -0.0922  0.1930 -0.3726
 4152TIP3    H133871   4.645   1.701  16.209  0.8040 -2.6210  0.2782
 4152TIP3    H233872   4.503   1.730  16.167  1.8751  2.7102  0.0532
 4153TIP3   OH233873   0.999   4.619  15.735  0.0240 -0.7114 -0.0715
 4153TIP3    H133874   0.906   4.600  15.745 -0.2389  0.7916  0.3509
 4153TIP3    H233875   1.008   4.648  15.644 -0.3088  1.2774  0.5057
 4154TIP3   OH233876   0.242   2.015   5.706  0.5445 -0.5233 -0.5150
 4154TIP3    H133877   0.330   2.007   5.743  0.7047  0.7183 -0.6034
 4154TIP3    H233878   0.210   2.100   5.737 -0.3265 -0.6241 -1.1041
 4155TIP3   OH233879   5.125   5.416   1.792  0.4627 -0.9033 -0.0058
 4155TIP3    H133880   5.082   5.442   1.873 -0.3778 -1.1397 -0.3687
 4155TIP3    H233881   5.121   5.320   1.793  0.3833 -0.9039 -0.3573
 4156TIP3   OH233882   6.706   1.733  16.655  0.4572  0.1833 -0.3712
 4156TIP3    H133883   6.677   1.820  16.628  2.1178  0.9047  0.0999
 4156TIP3    H233884   6.651   1.673  16.605 -0.3044  1.4998 -1.1481
 4157TIP3   OH233885   4.910   4.523   5.870  0.1226  0.1511  0.2764
 4157TIP3    H133886   4.827   4.477   5.882  1.5137 -1.9540  2.2840
 4157TIP3    H233887   4.977   4.460   5.897  2.2158  2.8873  1.7438
 4158TIP3   OH233888   4.353   4.672  11.642 -0.6047  0.2492 -0.2702
 4158TIP3    H133889   4.375   4.582  11.667  1.1921  0.7768  0.0889
 4158TIP3    H233890   4.345   4.668  11.546 -0.9733 -0.3863 -0.2199
 4159TIP3   OH233891   0.356   2.369  16.403  0.2195 -0.2631 -0.0287
 4159TIP3    H133892   0.414   2.296  16.424 -1.8358 -1.9840 -0.2285
 4159TIP3    H233893   0.275   2.328  16.373 -0.3703  2.1020 -1.8571
 4160TIP3   OH233894   1.732   2.241   5.614 -0.0608 -0.2133 -0.2111
 4160TIP3    H133895   1.714   2.327   5.575 -1.1474  0.1845  1.0911
 4160TIP3    H233896   1.695   2.178   5.552 -1.7275  0.4015  0.1202
 4161TIP3   OH233897   6.601   5.805   3.121  0.5098  0.3094 -0.2414
 4161TIP3    H133898   6.603   5.794   3.026  1.8377 -1.8339  0.0148
 4161TIP3    H233899   6.597   5.900   3.134 -0.2384  0.6010 -2.4347
 4162TIP3   OH233900   3.515   1.905   3.144 -0.0603 -0.2916 -0.0681
 4162TIP3    H133901   3.540   1.948   3.226  1.5462  0.3794 -0.8898
 4162TIP3    H233902   3.420   1.891   3.152 -0.8697  4.4585 -0.2432
 4163TIP3   OH233903   2.472   2.737   0.999 -0.0081 -0.4829 -0.8963
 4163TIP3    H133904   2.442   2.792   0.926  0.1126  2.3527  1.0961
 4163TIP3    H233905   2.567   2.750   1.002 -0.2758  1.4347  1.2349
 4164TIP3   OH233906   5.946   4.230   4.459 -0.3950  0.4879 -0.2731
 4164TIP3    H133907   6.003   4.293   4.503 -1.3174  0.1219  1.4944
 4164TIP3    H233908   6.001   4.192   4.391  1.5499  0.0199  1.4967
 4165TIP3   OH233909   4.986   4.762  13.851  0.1802  0.2104 -0.3216
 4165TIP3    H133910   4.999   4.833  13.913  0.5956 -0.3970  0.3039
 4165TIP3    H233911   5.073   4.747  13.814 -0.5486  2.3346 -3.0274
 4166TIP3   OH233912   1.652   4.573   3.924  0.2449 -0.3770 -0.2644
 4166TIP3    H133913   1.583   4.550   3.986  0.3912  1.0328  0.4536
 4166TIP3    H233914   1.674   4.663   3.947  1.6376 -0.4943 -1.1332
 4167TIP3   OH233915   4.187   2.349  13.802 -0.0491  0.5861 -0.5104
 4167TIP3    H133916   4.125   2.290  13.761 -0.7093  0.6834  0.3330
 4167TIP3    H233917   4.153   2.362  13.891  1.6873 -0.1384  0.2949
 4168TIP3   OH233918   5.890   3.190   3.832  0.4910 -0.0759  0.3698
 4168TIP3    H133919   5.900   3.256   3.764 -1.7934 -0.8997 -0.8216
 4168TIP3    H233920   5.971   3.139   3.829 -0.3349 -1.3071 -3.0448
 4169TIP3   OH233921   3.859   5.479   2.006  0.3921 -0.4452 -0.8788
 4169TIP3    H133922   3.766   5.490   2.024 -0.2398 -1.7705 -3.2067
 4169TIP3    H233923   3.898   5.460   2.091 -1.9228 -2.9204 -0.3051
 4170TIP3   OH233924   6.538   5.634  10.785  0.1691  0.0122 -0.0200
 4170TIP3    H133925   6.478   5.706  10.803 -0.1893 -0.5081  0.8792
 4170TIP3    H233926   6.500   5.559  10.830  1.8282 -0.1829  1.0861
 4171TIP3   OH233927   0.415   0.158   0.612  0.2068 -0.2098 -0.0053
 4171TIP3    H133928   0.471   0.099   0.663  1.8290  2.5186  1.4849
 4171TIP3    H233929   0.453   0.158   0.524  0.3280 -1.2045  0.0476
 4172TIP3   OH233930   1.922   5.614  12.979  0.0547 -0.3811 -0.4090
 4172TIP3    H133931   1.845   5.569  13.014 -0.0643  0.2524  0.1504
 4172TIP3    H233932   1.957   5.553  12.913 -1.1814 -0.4764 -0.9878
 4173TIP3   OH233933   2.807   2.988  14.359  0.2910 -0.0130 -0.5177
 4173TIP3    H133934   2.838   2.969  14.447 -0.4319 -0.4063 -0.3434
 4173TIP3    H233935   2.858   2.931  14.302  1.0470  0.5328 -0.3992
 4174TIP3   OH233936   4.106   3.852   1.292 -0.7123 -0.3718  0.3679
 4174TIP3    H133937   4.131   3.935   1.251 -1.2032 -0.2678  0.2798
 4174TIP3    H233938   4.164   3.844   1.368 -2.4820  1.3930  1.9725
 4175TIP3   OH233939   0.810   0.728   3.041 -0.2569  0.0013  0.2573
 4175TIP3    H133940   0.726   0.774   3.033 -0.4964 -0.1933  1.4621
 4175TIP3    H233941   0.799   0.650   2.987 -0.2647  0.7766 -0.8748
 4176TIP3   OH233942   3.483   2.167  16.450  0.0786  0.5628  0.0222
 4176TIP3    H133943   3.400   2.135  16.415  0.5076  1.7210 -2.1461
 4176TIP3    H233944   3.458   2.227  16.521 -1.0974  3.1619 -2.4859
 4177TIP3   OH233945   0.165   3.210   4.462  0.5671 -0.1517 -0.6181
 4177TIP3    H133946   0.080   3.253   4.454 -0.0937 -1.5892 -1.5219
 4177TIP3    H233947   0.196   3.201   4.372  0.3908 -2.1234 -0.5075
 4178TIP3   OH233948   0.840   4.564  15.134  0.3759 -0.5860  0.1646
 4178TIP3    H133949   0.859   4.503  15.206  2.8710  1.1364  1.0620
 4178TIP3    H233950   0.865   4.649  15.169  0.7810  0.4077 -2.4413
 4179TIP3   OH233951   6.389   4.753  11.274 -0.2917 -0.1843  0.7794
 4179TIP3    H133952   6.377   4.674  11.222  2.0560 -0.0863  0.0029
 4179TIP3    H233953   6.445   4.809  11.220  0.0391  1.0128  2.3086
 4180TIP3   OH233954   4.869   0.427  14.903 -0.1369 -0.1407 -0.9199
 4180TIP3    H133955   4.791   0.483  14.894 -0.4283 -0.4612 -0.3810
 4180TIP3    H233956   4.841   0.357  14.962  0.9607  0.4893  0.3735
 4181TIP3   OH233957   1.203   3.686   3.891 -0.0794 -0.2628  0.3550
 4181TIP3    H133958   1.167   3.673   3.803  1.5268  1.4843 -0.6107
 4181TIP3    H233959   1.158   3.764   3.924  0.9479  0.4406  0.1374
 4182TIP3   OH233960   4.129   4.077   5.737  0.2222 -0.6399 -0.5352
 4182TIP3    H133961   4.036   4.088   5.758  0.0317 -3.8636  0.6226
 4182TIP3    H233962   4.174   4.145   5.787 -1.4348  0.5155 -0.5670
 4183TIP3   OH233963   2.015   5.581   0.334  0.2506  0.2909 -0.1154
 4183TIP3    H133964   2.020   5.507   0.273 -1.0943 -0.7365  0.9837
 4183TIP3    H233965   1.944   5.635   0.300 -0.1469 -0.0070  0.2380
 4184TIP3   OH233966   4.495   6.079   0.603 -0.3478 -0.2420  0.3389
 4184TIP3    H133967   4.591   6.071   0.599 -0.4351 -0.8843 -0.7562
 4184TIP3    H233968   4.480   6.168   0.634  0.6090 -0.0085  0.1551
 4185TIP3   OH233969   0.708   2.264  15.384  0.0951  0.0235  0.0656
 4185TIP3    H133970   0.641   2.196  15.394  1.5991 -1.3797  0.7518
 4185TIP3    H233971   0.749   2.272  15.470  0.9703  0.7234 -0.4014
 4186TIP3   OH233972   3.211   6.344   3.206 -0.0612  0.1325 -0.0750
 4186TIP3    H133973   3.217   6.386   3.120  1.2735  1.7475  0.7854
 4186TIP3    H233974   3.117   6.327   3.217 -0.1302 -1.3275 -2.4046
 4187TIP3   OH233975   3.076   5.672  15.569 -0.0704  0.2383 -0.7122
 4187TIP3    H133976   3.099   5.746  15.625  1.0109 -0.3258 -0.4162
 4187TIP3    H233977   3.156   5.621  15.560 -0.0832  0.5482 -3.1365
 4188TIP3   OH233978   3.797   3.987   2.400  0.2466  0.3338 -0.0901
 4188TIP3    H133979   3.758   4.002   2.314  2.1711 -0.9861 -1.2307
 4188TIP3    H233980   3.891   3.984   2.383  0.9180  3.3492  2.5717
 4189TIP3   OH233981   6.550   5.342   6.084 -0.5470 -0.3713 -0.5741
 4189TIP3    H133982   6.463   5.306   6.098 -1.1467  1.3691  0.2853
 4189TIP3    H233983   6.576   5.375   6.170  1.0008 -0.9390 -0.7982
 4190TIP3   OH233984   6.531   4.828  12.889  0.3951 -0.0251 -0.3334
 4190TIP3    H133985   6.577   4.844  12.971 -0.4675  3.0974 -0.3979
 4190TIP3    H233986   6.439   4.845  12.909 -0.1636 -1.7243 -1.3382
 4191TIP3   OH233987   5.802   0.496   0.340 -0.4172  0.0533 -0.1877
 4191TIP3    H133988   5.755   0.503   0.424  1.3508 -0.1307  0.8461
 4191TIP3    H233989   5.771   0.571   0.289 -1.2662  0.3700  0.7747
 4192TIP3   OH233990   3.887   5.762   2.707  0.4481 -0.6294  0.2065
 4192TIP3    H133991   3.866   5.688   2.649  0.4610 -0.6807  0.2671
 4192TIP3    H233992   3.848   5.838   2.664 -1.3080 -0.9762  1.1509
 4193TIP3   OH233993   3.409   3.664   0.222 -0.4298 -0.3862  0.5386
 4193TIP3    H133994   3.443   3.575   0.213 -0.0656 -0.0362 -2.1329
 4193TIP3    H233995   3.324   3.653   0.264  0.1386 -1.8753  1.3391
 4194TIP3   OH233996   3.980   0.219  12.679  0.1870  0.2823  0.9126
 4194TIP3    H133997   4.074   0.237  12.688  0.2011  0.8083 -0.2518
 4194TIP3    H233998   3.972   0.177  12.594 -0.5764 -0.2251  1.2350
 4195TIP3   OH233999   6.179   6.643   6.270  0.3746 -0.1325 -0.2081
 4195TIP3    H134000   6.202   6.601   6.353 -0.1929 -0.8236 -0.3968
 4195TIP3    H234001   6.227   6.595   6.203  1.1448  0.6832 -0.2422
 4196TIP3   OH234002   3.832   0.543  15.449  0.9672 -0.6211  0.0926
 4196TIP3    H134003   3.827   0.631  15.411  2.0147  0.1741  1.7033
 4196TIP3    H234004   3.757   0.497  15.414  0.3829  0.9389 -0.7653
 4197TIP3   OH234005   1.695   3.452  15.124 -0.6316 -0.3659  0.0116
 4197TIP3    H134006   1.607   3.415  15.124 -0.8773  0.1841  1.3079
 4197TIP3    H234007   1.698   3.506  15.046 -1.5108 -0.2376  0.0600
 4198TIP3   OH234008   5.142   1.475  16.622  0.1706  0.3805  0.2735
 4198TIP3    H134009   5.098   1.510  16.545  1.5870  1.8371  0.1113
 4198TIP3    H234010   5.170   1.552  16.671  1.7557 -0.5205  0.8160
 4199TIP3   OH234011   1.694   6.632  14.845  0.0076  0.0681  0.2864
 4199TIP3    H134012   1.615   6.686  14.844 -1.1661 -1.6066  1.3456
 4199TIP3    H234013   1.731   6.645  14.932  1.2369  1.2836 -0.3914
 4200TIP3   OH234014   3.910   2.589  11.096  0.3836  0.3859 -0.3287
 4200TIP3    H134015   3.820   2.622  11.093  0.5396  0.8790  0.3024
 4200TIP3    H234016   3.904   2.499  11.065 -0.0760  0.9436 -1.9183
 4201TIP3   OH234017   6.447   0.665  11.893 -0.0711  0.0352  0.3543
 4201TIP3    H134018   6.468   0.578  11.926  1.7036  0.9775  1.8122
 4201TIP3    H234019   6.404   0.709  11.966  1.1373  1.1196  0.4378
 4202TIP3   OH234020   5.101   2.447   0.427  0.7588  0.7568  0.5070
 4202TIP3    H134021   5.177   2.452   0.485 -0.1162 -3.2029  2.1087
 4202TIP3    H234022   5.029   2.482   0.480  0.2636 -1.4482  1.3540
 4203TIP3   OH234023   1.223   3.851   1.439 -0.6669 -0.2485 -0.3420
 4203TIP3    H134024   1.263   3.917   1.382 -0.5950 -0.7206 -0.8337
 4203TIP3    H234025   1.130   3.854   1.418 -1.1224  1.8221  1.7735
 4204TIP3   OH234026   0.566   4.771   1.547 -0.3994  0.1610 -0.2836
 4204TIP3    H134027   0.592   4.851   1.592 -1.5983 -0.3120  1.2791
 4204TIP3    H234028   0.592   4.700   1.606 -2.2795 -0.4502 -0.1508
 4205TIP3   OH234029   2.253   2.468  13.887 -0.1310 -0.1386  0.2227
 4205TIP3    H134030   2.201   2.422  13.954  2.0243 -1.0344  1.3396
 4205TIP3    H234031   2.269   2.401  13.820  0.4545 -0.1606  0.3850
 4206TIP3   OH234032   6.766   0.432   0.433 -0.3738  0.0992 -0.3547
 4206TIP3    H134033   6.725   0.346   0.442 -1.8137  0.6085 -1.7314
 4206TIP3    H234034   6.736   0.482   0.508  0.2963 -0.5274  0.3341
 4207TIP3   OH234035   4.468   0.080  16.503 -0.4936  0.1244  0.9921
 4207TIP3    H134036   4.517   0.030  16.569 -1.8157 -0.1789  1.7515
 4207TIP3    H234037   4.472   0.171  16.533 -2.2751 -0.1933  2.2558
 4208TIP3   OH234038   1.205   5.724  11.298 -0.4618  0.4435 -0.4808
 4208TIP3    H134039   1.244   5.636  11.295 -0.7698  0.2174  1.8368
 4208TIP3    H234040   1.124   5.716  11.248  0.6986  0.0324 -2.3477
 4209TIP3   OH234041   5.220   3.899  12.444  0.1195  0.0433 -0.2061
 4209TIP3    H134042   5.243   3.817  12.489 -1.4312 -1.1957 -1.6296
 4209TIP3    H234043   5.136   3.924  12.481  0.0536  0.3911 -0.5907
 4210TIP3   OH234044   4.619   1.061   1.551 -0.2824 -0.5724 -0.1411
 4210TIP3    H134045   4.594   1.088   1.462  0.6866 -0.9021 -0.5311
 4210TIP3    H234046   4.714   1.045   1.544 -0.4492 -1.9627  0.5950
 4211TIP3   OH234047   5.504   2.524  13.956 -0.3403  0.1768  0.1305
 4211TIP3    H134048   5.425   2.494  13.911 -0.4752  0.8106 -0.0630
 4211TIP3    H234049   5.473   2.590  14.017 -0.1072 -0.4198  0.9042
 4212TIP3   OH234050   3.234   4.427   0.403  0.9406  0.2232 -0.2344
 4212TIP3    H134051   3.294   4.500   0.420 -0.2733  1.3842 -0.8200
 4212TIP3    H234052   3.148   4.468   0.398 -0.0480 -1.5491  1.5912
 4213TIP3   OH234053   4.751   0.418   2.003 -0.3328  0.4855  0.1022
 4213TIP3    H134054   4.819   0.428   1.935  0.8587 -2.2478  0.8289
 4213TIP3    H234055   4.800   0.402   2.083 -1.8222  0.1677  0.9597
 4214TIP3   OH234056   4.509   2.111   5.788  0.1896 -0.0507  0.1497
 4214TIP3    H134057   4.602   2.089   5.778 -0.3539 -2.1086 -0.8574
 4214TIP3    H234058   4.483   2.070   5.870 -0.4040 -1.7459 -0.8446
 4215TIP3   OH234059   4.116   5.141  15.735  1.1051  0.1218  0.6097
 4215TIP3    H134060   4.143   5.057  15.770 -0.1319 -0.3962  0.3653
 4215TIP3    H234061   4.084   5.190  15.811 -0.6602 -0.6364  0.3875
 4216TIP3   OH234062   4.074   0.146   3.669  0.0935 -0.1989  0.2230
 4216TIP3    H134063   3.979   0.135   3.672  0.0208 -0.3218 -1.8995
 4216TIP3    H234064   4.090   0.204   3.594  1.7612 -1.1798 -0.2222
 4217TIP3   OH234065   5.614   0.790   6.030 -0.6156  0.1429  0.7760
 4217TIP3    H134066   5.705   0.766   6.046 -1.3544 -2.4450  1.2995
 4217TIP3    H234067   5.593   0.852   6.099  0.5593  0.2385  1.0540
 4218TIP3   OH234068   3.733   4.024   3.448  0.2897  0.1228 -0.0121
 4218TIP3    H134069   3.727   3.941   3.494 -0.1046  0.5236  0.6657
 4218TIP3    H234070   3.720   4.002   3.356  0.3282 -0.5780  0.1484
 4219TIP3   OH234071   2.008   1.024  15.885 -0.0244  0.2322 -0.7769
 4219TIP3    H134072   1.932   0.966  15.883 -2.4039  3.1665  0.3374
 4219TIP3    H234073   2.048   1.014  15.799 -0.4031 -2.9342 -0.6473
 4220TIP3   OH234074   5.886   2.295  12.593  0.2374  0.2983  0.3704
 4220TIP3    H134075   5.926   2.366  12.643 -0.5376  1.8464 -1.1714
 4220TIP3    H234076   5.955   2.267  12.533  0.4487 -0.0839  0.7841
 4221TIP3   OH234077   2.054   5.694   4.211 -0.0945  0.4813  0.4648
 4221TIP3    H134078   2.130   5.641   4.184 -0.0814  1.1977 -0.9577
 4221TIP3    H234079   2.091   5.763   4.265  0.1595  0.3308  0.4855
 4222TIP3   OH234080   2.539   1.924   0.782 -0.0385 -0.0908  0.1686
 4222TIP3    H134081   2.510   2.004   0.826  0.0187 -0.4813  0.9178
 4222TIP3    H234082   2.614   1.894   0.833 -1.5300 -1.9421  1.3438
 4223TIP3   OH234083   4.201   4.099  10.576 -0.1077 -0.2305 -0.1451
 4223TIP3    H134084   4.170   4.013  10.604 -1.6365  0.5306  0.6280
 4223TIP3    H234085   4.204   4.150  10.657  0.2691  0.5964 -0.6750
 4224TIP3   OH234086   6.247   3.393   5.906  0.5502 -0.0710  0.1302
 4224TIP3    H134087   6.338   3.379   5.931  0.5750  0.2628  0.2244
 4224TIP3    H234088   6.227   3.481   5.937  0.6541  0.4478 -1.2457
 4225TIP3   OH234089   2.885   1.199  11.462 -0.0511  0.0469  0.0614
 4225TIP3    H134090   2.795   1.183  11.492 -0.4354 -0.4057 -1.2879
 4225TIP3    H234091   2.876   1.214  11.368  1.2078  0.7801  0.0538
 4226TIP3   OH234092   1.240   3.090  10.601  0.3362 -0.0191  0.1277
 4226TIP3    H134093   1.237   3.107  10.506  0.9718  1.4862  0.3654
 4226TIP3    H234094   1.192   3.008  10.612  0.9228 -0.6142 -1.5959
 4227TIP3   OH234095   4.680   5.157  15.522 -0.1371 -0.1899 -1.1575
 4227TIP3    H134096   4.749   5.171  15.587 -0.5466 -2.2833 -0.2285
 4227TIP3    H234097   4.633   5.240  15.519  1.3314  0.6783 -0.4810
 4228TIP3   OH234098   0.868   6.233   2.032 -0.0331 -0.5446 -0.0153
 4228TIP3    H134099   0.854   6.141   2.011  2.4349 -0.9106 -0.2203
 4228TIP3    H234100   0.867   6.277   1.946 -1.1780 -0.3533  0.0796
 4229TIP3   OH234101   2.746   0.888   5.166  0.7524 -0.7375  0.1625
 4229TIP3    H134102   2.813   0.858   5.227 -0.2161 -1.4954  0.8886
 4229TIP3    H234103   2.792   0.900   5.083  2.0004 -0.1142  0.9411
 4230TIP3   OH234104   3.969   0.390  12.001 -0.6404  0.7774  0.4433
 4230TIP3    H134105   4.039   0.343  11.956 -2.7439 -0.9433 -1.0632
 4230TIP3    H234106   3.999   0.395  12.092  1.0158 -0.7111 -0.0004
 4231TIP3   OH234107   3.150   0.059   4.815 -0.0516 -0.3204  0.0061
 4231TIP3    H134108   3.066   0.055   4.769 -1.0458 -0.5351  1.7981
 4231TIP3    H234109   3.147  -0.013   4.877  2.0424 -1.1477 -0.8348
 4232TIP3   OH234110   3.288   6.007  12.322  0.3878  0.1968  0.2366
 4232TIP3    H134111   3.285   6.048  12.409  1.4748  0.8072 -0.0111
 4232TIP3    H234112   3.265   5.915  12.339  1.6700  0.0680  1.3366
 4233TIP3   OH234113   3.227   5.360  13.829 -0.1217 -0.0769 -0.9267
 4233TIP3    H134114   3.169   5.368  13.753 -0.6047  1.7880 -0.3814
 4233TIP3    H234115   3.172   5.324  13.898  0.2876 -1.6587 -1.4003
 4234TIP3   OH234116   2.186   5.608   3.238  0.2362  0.7508 -0.0975
 4234TIP3    H134117   2.253   5.572   3.180  0.2633  2.0333 -0.8826
 4234TIP3    H234118   2.129   5.534   3.258  0.3392  0.2475 -1.6206
 4235TIP3   OH234119   5.956   4.087  13.715 -0.4832  0.2711  0.1901
 4235TIP3    H134120   5.982   4.082  13.807  2.1080 -1.2554 -0.5763
 4235TIP3    H234121   6.020   4.145  13.675 -0.2132 -0.9051 -1.1016
 4236TIP3   OH234122   0.530   6.461   5.518 -0.7495  0.1000  0.3420
 4236TIP3    H134123   0.612   6.488   5.477 -1.1111  0.3587 -0.2162
 4236TIP3    H234124   0.547   6.373   5.552 -0.0226  0.4328  0.8549
 4237TIP3   OH234125   1.281   0.085  17.167  0.0355 -0.3480 -0.0812
 4237TIP3    H134126   1.318   0.012  17.117 -1.4471 -1.8485  0.9825
 4237TIP3    H234127   1.351   0.109  17.228  0.4319 -1.0628 -0.2433
 4238TIP3   OH234128   0.382   1.294   5.440 -0.3276  0.0790  0.3988
 4238TIP3    H134129   0.369   1.204   5.410 -0.7280  0.2435  0.0714
 4238TIP3    H234130   0.334   1.348   5.377  0.9553  0.6213 -0.1410
 4239TIP3   OH234131   1.972   6.233  15.582 -0.4912  0.2252 -0.0237
 4239TIP3    H134132   2.000   6.155  15.628 -0.2573 -1.0636 -2.2651
 4239TIP3    H234133   2.043   6.296  15.595 -0.0921 -0.3827  0.7196
 4240TIP3   OH234134   5.208   3.400   4.749 -0.1162  0.4932 -0.3659
 4240TIP3    H134135   5.133   3.342   4.740  0.1807 -0.1394  1.0982
 4240TIP3    H234136   5.236   3.389   4.840  2.3837 -0.0573 -1.1635
 4241TIP3   OH234137   1.183   3.850   0.777  0.1545  0.0587  0.0913
 4241TIP3    H134138   1.112   3.879   0.720 -0.3990 -0.1461  0.6697
 4241TIP3    H234139   1.241   3.800   0.720 -1.2861 -1.6105  0.0500
 4242TIP3   OH234140   2.553   1.765   6.183  0.2466  0.6017 -0.4069
 4242TIP3    H134141   2.623   1.700   6.173  0.8018  0.7041  2.4164
 4242TIP3    H234142   2.487   1.722   6.236 -1.8861  0.5405 -2.9876
 4243TIP3   OH234143   0.545   1.029  12.990  0.4650  0.0386  0.6250
 4243TIP3    H134144   0.629   0.984  12.994 -0.5176 -1.7765  1.4209
 4243TIP3    H234145   0.495   0.980  12.924  0.6795  2.2637 -1.2456
 4244TIP3   OH234146   0.239   6.162  14.078 -0.0104  0.0634  0.1422
 4244TIP3    H134147   0.279   6.207  14.151  0.4029 -0.3398  0.1671
 4244TIP3    H234148   0.294   6.183  14.003  1.3267 -1.9572  0.5099
 4245TIP3   OH234149   2.023   4.185   5.505 -0.0097 -0.0361 -0.2715
 4245TIP3    H134150   2.058   4.106   5.547  1.6843  0.8712  0.0693
 4245TIP3    H234151   2.004   4.158   5.415 -1.3747 -1.3509  0.3818
 4246TIP3   OH234152   4.616   4.169  11.004 -0.5192  0.0977 -0.3231
 4246TIP3    H134153   4.569   4.222  10.939  0.3385 -0.8178 -1.7113
 4246TIP3    H234154   4.708   4.196  10.994 -0.6317  1.4906  2.0062
 4247TIP3   OH234155   5.445   4.628   3.380 -0.2345 -0.0055 -0.5335
 4247TIP3    H134156   5.418   4.602   3.293  0.9778 -0.4956 -0.7739
 4247TIP3    H234157   5.532   4.589   3.391 -1.4642 -2.1771  1.9120
 4248TIP3   OH234158   0.343   5.031   0.643 -0.2437  0.4306  0.1085
 4248TIP3    H134159   0.434   5.010   0.667 -0.0102 -0.7193 -1.6761
 4248TIP3    H234160   0.346   5.044   0.548 -1.8099  1.1870  0.1543
 4249TIP3   OH234161   2.116   5.837  14.723 -0.3578 -0.7859  0.0251
 4249TIP3    H134162   2.081   5.891  14.653 -0.9545  0.7504  1.4726
 4249TIP3    H234163   2.068   5.865  14.801  1.4425 -1.3095  1.3517
 4250TIP3   OH234164   1.989   0.665  15.920 -0.1877  0.2450 -0.4700
 4250TIP3    H134165   1.910   0.702  15.881 -1.5645 -3.0258 -1.0126
 4250TIP3    H234166   2.060   0.695  15.863 -1.1339  2.4131 -0.5537
 4251TIP3   OH234167   3.401   2.176   4.691 -0.1980 -0.1538  0.1581
 4251TIP3    H134168   3.369   2.094   4.652  0.5072 -0.5382  0.3836
 4251TIP3    H234169   3.383   2.242   4.625 -0.3000 -0.5719 -0.2377
 4252TIP3   OH234170   6.075   1.898  14.584 -0.4097 -0.3660  0.3880
 4252TIP3    H134171   6.129   1.827  14.619 -0.6279 -0.4061  0.6453
 4252TIP3    H234172   6.036   1.940  14.661 -0.2363  0.0713  0.2430
 4253TIP3   OH234173   1.454   2.805  14.733  0.0768 -0.2578 -0.1023
 4253TIP3    H134174   1.394   2.819  14.807  1.0710 -1.4769  0.9557
 4253TIP3    H234175   1.396   2.782  14.660 -0.8462  0.0499  0.5154
 4254TIP3   OH234176   1.136   2.470  14.453  0.0775  0.1565  0.0693
 4254TIP3    H134177   1.180   2.452  14.370 -0.0097  1.0142 -0.1752
 4254TIP3    H234178   1.102   2.386  14.482 -1.7967  0.2290 -1.8553
 4255TIP3   OH234179   1.386   6.499   4.268  0.2924 -0.0122 -0.0459
 4255TIP3    H134180   1.461   6.543   4.229  1.0577 -0.9274  0.3606
 4255TIP3    H234181   1.365   6.550   4.345  0.8582 -0.0633  0.1452
 4256TIP3   OH234182   4.139   1.203  11.620 -0.0902 -0.5443  0.0999
 4256TIP3    H134183   4.069   1.169  11.565 -0.4297 -1.2182  0.9338
 4256TIP3    H234184   4.219   1.179  11.575 -0.3822 -0.3413 -0.5296
 4257TIP3   OH234185   6.676   3.759  14.107  0.3761  0.3214 -0.0624
 4257TIP3    H134186   6.615   3.688  14.087 -0.1150  1.4157 -2.6351
 4257TIP3    H234187   6.620   3.832  14.133  0.6145  1.1006 -1.7065
 4258TIP3   OH234188   0.934   5.481   4.633 -0.1195  0.3433 -0.6626
 4258TIP3    H134189   0.979   5.403   4.600 -0.1064 -0.8972  2.1330
 4258TIP3    H234190   0.843   5.468   4.609 -0.3614 -1.2718  0.9998
 4259TIP3   OH234191   1.407   0.589   0.837  0.1960 -0.4107 -0.1743
 4259TIP3    H134192   1.501   0.596   0.853  0.1712  0.9634 -0.5532
 4259TIP3    H234193   1.395   0.619   0.746 -0.5914 -0.6584 -0.1624
 4260TIP3   OH234194   4.964   4.712   0.757 -0.4995 -0.3377  0.3290
 4260TIP3    H134195   4.979   4.769   0.832 -0.5086 -0.6307  0.5550
 4260TIP3    H234196   4.965   4.771   0.681 -3.1432  0.3411  0.7731
 4261TIP3   OH234197   2.774   4.857  12.724  0.9538  0.7058 -0.0124
 4261TIP3    H134198   2.722   4.896  12.653  0.3466  0.8966  0.5321
 4261TIP3    H234199   2.751   4.909  12.801 -1.3138 -1.9189  1.1401
 4262TIP3   OH234200   4.814   1.721  10.307 -0.5148 -0.6134  0.1026
 4262TIP3    H134201   4.871   1.653  10.345  0.6882 -0.3911 -1.2698
 4262TIP3    H234202   4.803   1.785  10.378 -0.0849 -1.2904  0.7924
 4263TIP3   OH234203   4.163   3.039  12.528 -0.7488  0.1994  0.5824
 4263TIP3    H134204   4.131   2.953  12.501 -1.2008  0.2684  0.9112
 4263TIP3    H234205   4.238   3.020  12.584  0.2938  0.0535 -0.8167
 4264TIP3   OH234206   3.878   1.083   0.207 -0.0344 -0.0069  0.1369
 4264TIP3    H134207   3.832   1.032   0.275  0.1207  0.7144  0.7914
 4264TIP3    H234208   3.927   1.149   0.256 -1.4123  1.7499 -0.7736
 4265TIP3   OH234209   6.486   1.585  16.223  0.0880  0.3503 -0.0018
 4265TIP3    H134210   6.574   1.549  16.215 -0.0898  0.0766 -0.7369
 4265TIP3    H234211   6.468   1.584  16.317  0.8616  0.3939  0.1525
 4266TIP3   OH234212   4.075   2.057   0.428  0.5962  0.4199 -0.1269
 4266TIP3    H134213   4.079   2.008   0.511  0.8164 -1.1635 -1.0457
 4266TIP3    H234214   4.150   2.026   0.378  0.1215  0.9199 -1.1590
 4267TIP3   OH234215   1.519   2.214  11.353 -0.1533  0.6034  0.2276
 4267TIP3    H134216   1.464   2.141  11.323 -0.6226  0.8231  0.5394
 4267TIP3    H234217   1.605   2.196  11.315 -0.5258  0.4265 -0.5510
 4268TIP3   OH234218   4.921   3.839   4.621  0.2571 -0.1551 -0.2477
 4268TIP3    H134219   4.967   3.854   4.704  0.2075  0.5510 -0.3514
 4268TIP3    H234220   4.970   3.890   4.557 -0.9373  0.9395 -0.2822
 4269TIP3   OH234221   4.459   3.776  15.675 -0.1509  0.3182 -0.0683
 4269TIP3    H134222   4.549   3.744  15.668 -0.1699  0.2414  0.0371
 4269TIP3    H234223   4.418   3.751  15.593 -0.5253 -1.0552  0.5197
 4270TIP3   OH234224   3.363   4.809   3.280  0.3528 -0.6364 -0.2600
 4270TIP3    H134225   3.273   4.815   3.246  0.2637  0.9245  0.1730
 4270TIP3    H234226   3.368   4.723   3.321 -1.7469  0.2115  1.8887
 4271TIP3   OH234227   3.789   3.138  10.296  0.0493  0.1655  0.0977
 4271TIP3    H134228   3.731   3.088  10.354 -0.5180  1.2877  0.5037
 4271TIP3    H234229   3.870   3.148  10.346 -0.3361  0.8796  0.5797
 4272TIP3   OH234230   3.841   0.804   2.520  0.3072  0.3963  0.0419
 4272TIP3    H134231   3.826   0.838   2.608 -0.6153  1.5637 -0.5605
 4272TIP3    H234232   3.814   0.712   2.525  1.3063  0.1495  1.2538
 4273TIP3   OH234233   2.769   0.657   1.217 -0.4603  0.1770  0.4376
 4273TIP3    H134234   2.834   0.663   1.147 -0.5564  1.1839  0.4223
 4273TIP3    H234235   2.807   0.597   1.280  1.3911  2.2436  1.3521
 4274TIP3   OH234236   6.658   0.757  12.113  0.1071 -0.2646 -0.7857
 4274TIP3    H134237   6.572   0.717  12.115  0.1864 -0.3605  0.6749
 4274TIP3    H234238   6.644   0.847  12.143  0.3509  0.0296 -1.5361
 4275TIP3   OH234239   5.276   4.676   2.242  0.2834  0.0782  0.3185
 4275TIP3    H134240   5.251   4.585   2.225 -0.1496  0.2737 -0.0979
 4275TIP3    H234241   5.258   4.722   2.161 -1.4858  0.9361  1.1659
 4276TIP3   OH234242   2.579   3.959  10.647  0.0838 -0.1308 -0.0813
 4276TIP3    H134243   2.628   4.037  10.621  0.5023  0.2447  1.7498
 4276TIP3    H234244   2.488   3.980  10.628  0.2084  0.7761  0.2992
 4277TIP3   OH234245   0.853   6.320  16.552  0.7600 -0.1036  0.5094
 4277TIP3    H134246   0.773   6.353  16.510  0.4446 -0.2812  0.9612
 4277TIP3    H234247   0.838   6.226  16.560  0.6988 -0.0311  1.2668
 4278TIP3   OH234248   1.115   5.680   3.482 -0.3397  0.2703 -0.3208
 4278TIP3    H134249   1.036   5.630   3.505 -0.7251  0.1118 -1.9193
 4278TIP3    H234250   1.150   5.710   3.566 -1.6500 -0.3475  0.4599
 4279TIP3   OH234251   5.294   2.716   2.427 -0.5378  0.3335 -0.4695
 4279TIP3    H134252   5.339   2.733   2.510 -0.1555 -1.1119 -0.3711
 4279TIP3    H234253   5.363   2.689   2.367 -1.0324 -0.1922 -0.8051
 4280TIP3   OH234254   3.812   0.672   0.823  0.1627 -0.1191  0.1604
 4280TIP3    H134255   3.887   0.681   0.882  0.7272 -1.6858 -0.2932
 4280TIP3    H234256   3.761   0.752   0.837  0.2663 -0.4633  2.7962
 4281TIP3   OH234257   5.908   4.512   2.154 -0.5277 -0.0927 -0.2776
 4281TIP3    H134258   5.846   4.491   2.223 -1.7566  0.6220 -1.1568
 4281TIP3    H234259   5.895   4.605   2.138  1.8127  0.4304  0.5533
 4282TIP3   OH234260   2.256   5.265  14.320  0.1531  0.6005 -0.3057
 4282TIP3    H134261   2.342   5.224  14.309 -0.4302 -1.7708  3.1902
 4282TIP3    H234262   2.273   5.359  14.321  2.7507  0.1477  0.6492
 4283TIP3   OH234263   1.378   1.642  16.042 -0.0207  0.1515  0.0552
 4283TIP3    H134264   1.312   1.627  16.110  1.0456 -2.8672  0.4796
 4283TIP3    H234265   1.333   1.620  15.960 -0.2765  0.4883  0.1038
 4284TIP3   OH234266   5.338   4.434  16.707 -0.1445  1.2177  0.1907
 4284TIP3    H134267   5.364   4.439  16.798 -0.6063  1.2867  0.3189
 4284TIP3    H234268   5.310   4.343  16.695  0.9646  0.9068 -0.1706
 4285TIP3   OH234269   1.974   2.772  16.106  0.3481 -0.2473  0.0808
 4285TIP3    H134270   1.892   2.733  16.076  0.8409 -0.2011 -1.3940
 4285TIP3    H234271   1.951   2.861  16.132 -0.0512 -0.2073 -0.4182
 4286TIP3   OH234272   0.235   4.206  11.744  0.1425 -0.6713  0.3249
 4286TIP3    H134273   0.235   4.113  11.767 -0.6692 -0.4665  1.1879
 4286TIP3    H234274   0.195   4.209  11.657  0.6499 -1.1745  0.0669
 4287TIP3   OH234275   3.887   0.002  13.966 -0.4031  0.0311 -0.3551
 4287TIP3    H134276   3.824  -0.069  13.955  0.5047 -0.5824 -1.6819
 4287TIP3    H234277   3.853   0.073  13.911  0.5143 -0.6152 -1.7813
 4288TIP3   OH234278   1.677   0.077   4.684  0.3027  0.3365  0.4869
 4288TIP3    H134279   1.681   0.089   4.589 -1.8702  1.1739  0.4749
 4288TIP3    H234280   1.688  -0.017   4.697 -4.8776 -0.6511 -1.0331
 4289TIP3   OH234281   3.630   1.830  10.819  1.1041  0.0795 -0.3232
 4289TIP3    H134282   3.552   1.849  10.768  2.8505  0.4633 -2.9215
 4289TIP3    H234283   3.667   1.751  10.779  1.6461 -0.5638  1.3820
 4290TIP3   OH234284   5.007   4.366   1.435  0.4561 -0.6028 -0.1964
 4290TIP3    H134285   4.951   4.331   1.504  0.8815 -2.3013 -0.6913
 4290TIP3    H234286   5.096   4.348   1.465  0.7628  1.8654  0.4733
 4291TIP3   OH234287   1.165   6.153   2.789  0.0357  0.4375  0.2708
 4291TIP3    H134288   1.104   6.080   2.778  0.6607 -0.1466  0.6494
 4291TIP3    H234289   1.179   6.160   2.883  0.6392  0.4989  0.1817
 4292TIP3   OH234290   4.798   1.315   1.927 -0.0007  1.0315 -0.4583
 4292TIP3    H134291   4.842   1.398   1.911 -0.6830  1.5077  0.0420
 4292TIP3    H234292   4.718   1.319   1.874  0.4819  0.2420 -1.2522
 4293TIP3   OH234293   5.319   0.222   2.475 -0.1746 -0.4491  0.3307
 4293TIP3    H134294   5.363   0.137   2.478 -0.0926 -0.3539  2.4737
 4293TIP3    H234295   5.266   0.224   2.555  0.7516  2.0191  0.9298
 4294TIP3   OH234296   3.913   5.724   3.373  0.1534  0.2406 -0.5159
 4294TIP3    H134297   3.822   5.710   3.347 -0.6300 -0.9829  2.6132
 4294TIP3    H234298   3.909   5.793   3.439  1.4629 -0.0391 -0.1238
 4295TIP3   OH234299   4.750   2.299   5.049  0.6905  0.3348  0.1165
 4295TIP3    H134300   4.818   2.367   5.051 -0.8099  1.9326 -1.0774
 4295TIP3    H234301   4.781   2.237   4.983  1.1800  0.8589 -0.1554
 4296TIP3   OH234302   4.364   4.384   3.872 -0.1803 -0.4506  0.4852
 4296TIP3    H134303   4.425   4.372   3.945 -0.9387  0.7802  1.3223
 4296TIP3    H234304   4.332   4.295   3.853  2.4240 -1.2412 -0.4814
 4297TIP3   OH234305   4.285   1.087  12.283 -0.0897 -0.1539 -0.2434
 4297TIP3    H134306   4.319   1.115  12.368 -1.0287  1.3098 -0.3377
 4297TIP3    H234307   4.290   1.165  12.228  1.0269 -1.2193 -1.7125
 4298TIP3   OH234308   1.792   4.862   5.885 -0.2022 -0.3709  0.3976
 4298TIP3    H134309   1.798   4.836   5.977 -1.6142 -1.7322  0.1135
 4298TIP3    H234310   1.699   4.878   5.870 -0.1837 -1.6125 -1.1692
 4299TIP3   OH234311   5.680   3.605   0.291  0.2970 -0.9703 -0.2254
 4299TIP3    H134312   5.757   3.549   0.283  0.6277 -0.4227 -0.8717
 4299TIP3    H234313   5.606   3.544   0.295  0.6588 -1.4552 -0.8895
 4300TIP3   OH234314   2.658   2.007  14.791  0.1675  0.1531 -0.8680
 4300TIP3    H134315   2.704   1.962  14.863 -0.2381 -1.9808 -1.8817
 4300TIP3    H234316   2.727   2.054  14.745  0.3599  1.9072  1.1681
 4301TIP3   OH234317   5.584   0.053   5.851  0.2678 -0.5606  0.2895
 4301TIP3    H134318   5.531   0.131   5.865  1.2039  0.0422  0.4698
 4301TIP3    H234319   5.674   0.080   5.871  0.4587 -1.9666  1.4343
 4302TIP3   OH234320   6.386   4.698  13.243  0.4569  0.3407  0.0628
 4302TIP3    H134321   6.403   4.642  13.167  0.7259  0.4256  0.0603
 4302TIP3    H234322   6.469   4.697  13.292  0.4756  0.7743  0.0399
 4303TIP3   OH234323   1.438   6.138  16.401  0.4590  0.4502 -0.2029
 4303TIP3    H134324   1.396   6.064  16.444  2.8557 -0.0321  1.4601
 4303TIP3    H234325   1.468   6.104  16.317 -0.9421  0.3323 -0.6562
 4304TIP3   OH234326   4.155   2.099   3.776  0.2602 -0.1407  0.1693
 4304TIP3    H134327   4.207   2.069   3.700 -2.8473 -0.4669 -1.9287
 4304TIP3    H234328   4.157   2.025   3.836  0.9157 -0.7595 -0.5928
 4305TIP3   OH234329   0.513   3.139  17.059 -1.2981 -0.5940 -0.5015
 4305TIP3    H134330   0.573   3.125  16.986 -0.3435  1.0845 -0.0796
 4305TIP3    H234331   0.548   3.084  17.129 -0.8662 -0.4685 -0.6128
 4306TIP3   OH234332   0.667   1.095   3.766  0.2685  0.1761  0.3508
 4306TIP3    H134333   0.580   1.120   3.795  0.3820 -0.3326  1.1662
 4306TIP3    H234334   0.720   1.094   3.846  0.9776  0.3083 -0.1053
 4307TIP3   OH234335   1.163   0.050  11.945  0.2781  0.6767 -0.0666
 4307TIP3    H134336   1.177   0.143  11.931 -2.0169  1.0577 -0.0014
 4307TIP3    H234337   1.068   0.039  11.944  0.4764 -1.4810  1.0662
 4308TIP3   OH234338   5.874   3.942  14.524 -1.1950 -0.7962  0.1727
 4308TIP3    H134339   5.888   3.902  14.438 -1.2477  0.1721 -0.3036
 4308TIP3    H234340   5.803   4.005  14.509  0.6875  1.4299  0.2244
 4309TIP3   OH234341   4.748   2.119  13.530 -0.0611 -0.7277 -0.5509
 4309TIP3    H134342   4.768   2.138  13.621 -1.2516  0.6779 -0.5728
 4309TIP3    H234343   4.833   2.123  13.485  0.0210  2.5276 -0.1963
 4310TIP3   OH234344   5.560   5.284   5.005 -0.1762 -0.2430 -0.4230
 4310TIP3    H134345   5.640   5.265   4.955 -0.8744  1.2512 -2.1415
 4310TIP3    H234346   5.492   5.233   4.961 -0.8227  1.1654 -1.0599
 4311TIP3   OH234347   2.847   5.083  14.632  0.6366  0.2099  0.1908
 4311TIP3    H134348   2.764   5.103  14.590  0.8028  0.6323  0.0644
 4311TIP3    H234349   2.864   4.991  14.610 -1.3731 -0.8746  2.8483
 4312TIP3   OH234350   0.618   0.926  16.784 -0.2045 -0.2644 -0.5455
 4312TIP3    H134351   0.583   1.011  16.811 -0.4445 -0.8921  1.1607
 4312TIP3    H234352   0.711   0.930  16.809  0.5022  0.6122 -3.1788
 4313TIP3   OH234353   1.468   0.994   3.295  0.3359  0.2991 -0.9552
 4313TIP3    H134354   1.540   0.959   3.346 -0.3166  0.1432 -0.1252
 4313TIP3    H234355   1.425   0.917   3.258  0.2691  0.3587 -1.0023
 4314TIP3   OH234356   6.184   5.174   3.471 -0.1999  0.1390  0.1628
 4314TIP3    H134357   6.237   5.167   3.551 -1.2511 -0.8227  0.7910
 4314TIP3    H234358   6.245   5.151   3.401  0.5034  0.1009  0.7703
 4315TIP3   OH234359   0.332   0.410  13.544 -0.3784  0.5786 -0.5930
 4315TIP3    H134360   0.257   0.352  13.558  0.1519 -0.2387 -1.1295
 4315TIP3    H234361   0.359   0.437  13.631 -1.0901  0.6179 -0.3796
 4316TIP3   OH234362   4.561   5.264   4.792 -0.2768  0.6424  0.0312
 4316TIP3    H134363   4.534   5.292   4.879  0.7152  0.0669  0.5295
 4316TIP3    H234364   4.637   5.318   4.772 -0.0530  0.2568 -0.1651
 4317TIP3   OH234365   2.186   0.778   4.276 -0.1067  0.4439 -0.1041
 4317TIP3    H134366   2.151   0.689   4.268  0.5073  0.2930 -1.2506
 4317TIP3    H234367   2.176   0.800   4.368 -0.1929 -0.8518  0.2025
 4318TIP3   OH234368   5.335   6.042  17.239  0.6933 -0.0801 -0.1896
 4318TIP3    H134369   5.401   6.111  17.232 -0.5330  0.8893 -2.9441
 4318TIP3    H234370   5.373   5.968  17.193  0.8209 -0.2806  0.2418
 4319TIP3   OH234371   2.024   3.211  14.626  0.3163  0.3362 -0.4136
 4319TIP3    H134372   2.001   3.118  14.618 -0.4713  0.5241 -0.4146
 4319TIP3    H234373   2.031   3.227  14.720 -0.3138  0.4542 -0.3857
 4320TIP3   OH234374   0.907   2.767  13.770  0.3211  0.0131 -0.4948
 4320TIP3    H134375   0.978   2.727  13.819  0.4500  2.2678  1.2750
 4320TIP3    H234376   0.921   2.740  13.679  0.8381 -3.1910  0.4809
 4321TIP3   OH234377   3.522   4.440  12.115  0.1807  0.3360 -0.2803
 4321TIP3    H134378   3.430   4.442  12.142  0.6027  1.7704  1.1841
 4321TIP3    H234379   3.530   4.362  12.061 -1.6950 -0.3188  0.3432
 4322TIP3   OH234380   2.919   6.481  11.063  0.2124 -0.6925  0.4106
 4322TIP3    H134381   2.853   6.548  11.083  0.7044 -0.0373 -0.1492
 4322TIP3    H234382   2.880   6.430  10.993  0.3758 -0.1841 -0.0553
 4323TIP3   OH234383   5.012   4.915   3.320 -0.2988  0.6601 -0.0962
 4323TIP3    H134384   5.106   4.901   3.335 -0.4183  0.8763  0.8615
 4323TIP3    H234385   5.000   4.895   3.227  0.6576  0.4218 -0.1774
 4324TIP3   OH234386   6.308   2.029   2.960 -0.0863  0.2606  0.3810
 4324TIP3    H134387   6.341   1.956   3.012 -0.0369  0.3204  0.4330
 4324TIP3    H234388   6.255   1.987   2.892 -2.5735  0.3487  2.2243
 4325TIP3   OH234389   6.767   1.689   2.191  0.2776 -0.3934 -0.2116
 4325TIP3    H134390   6.800   1.607   2.155 -0.2063 -0.5150 -0.3804
 4325TIP3    H234391   6.744   1.741   2.113  0.7302 -0.0370 -0.1095
 4326TIP3   OH234392   5.185   2.821   1.347 -0.0758  0.6754 -0.1028
 4326TIP3    H134393   5.105   2.862   1.315 -0.4610  1.6797  2.0664
 4326TIP3    H234394   5.156   2.764   1.418  1.0627  0.5930  0.3093
 4327TIP3   OH234395   4.826   1.978   5.687  0.4586  0.2919 -0.0226
 4327TIP3    H134396   4.803   1.926   5.763 -0.8853  1.1510  0.1816
 4327TIP3    H234397   4.831   2.068   5.720  1.6801  0.4383 -0.5820
 4328TIP3   OH234398   2.389   6.536   5.624  0.4209  0.6732 -0.2183
 4328TIP3    H134399   2.471   6.549   5.671 -0.7668  1.3790  1.7408
 4328TIP3    H234400   2.351   6.457   5.662 -1.1677  1.9724  0.9756
 4329TIP3   OH234401   1.367   4.311  11.743 -0.0264 -0.0167  0.3271
 4329TIP3    H134402   1.446   4.266  11.772 -1.8476 -3.2869  0.5706
 4329TIP3    H234403   1.303   4.295  11.813 -1.9374 -0.6165 -1.4991
 4330TIP3   OH234404   4.806   4.808  12.853  0.1733 -0.1149  0.2759
 4330TIP3    H134405   4.838   4.846  12.771 -2.1077  1.2544 -0.0383
 4330TIP3    H234406   4.841   4.719  12.853  1.9773  0.5534 -1.1334
 4331TIP3   OH234407   0.004   2.872  14.016  0.2241 -0.4667 -0.0625
 4331TIP3    H134408   0.077   2.810  14.016  0.6298 -0.0153 -1.3252
 4331TIP3    H234409   0.044   2.957  14.034  0.0532 -0.1879 -0.9589
 4332TIP3   OH234410   0.764   3.376  15.485 -0.2874 -0.1116  0.3270
 4332TIP3    H134411   0.856   3.355  15.469  0.3284  1.7393  1.2952
 4332TIP3    H234412   0.721   3.359  15.402  1.6167  2.7011 -1.3410
 4333TIP3   OH234413   1.208   1.177  15.201 -0.5867 -0.0692 -0.2892
 4333TIP3    H134414   1.246   1.238  15.138  0.1553 -0.1946  0.0332
 4333TIP3    H234415   1.206   1.093  15.155 -0.0143 -0.1674 -0.1373
 4334TIP3   OH234416   4.966   1.398   3.941  0.3736  0.0171 -0.2952
 4334TIP3    H134417   4.938   1.489   3.936  2.0924  0.4822 -1.6570
 4334TIP3    H234418   5.058   1.398   3.914  0.1614 -2.2251 -1.2099
 4335TIP3   OH234419   1.162   6.283  11.275  0.5531  0.5432 -0.8729
 4335TIP3    H134420   1.213   6.291  11.356  1.3685  3.0564 -1.6061
 4335TIP3    H234421   1.124   6.195  11.279  0.3171  0.7519  2.3819
 4336TIP3   OH234422   3.629   6.535   0.570 -0.2732 -0.5770  0.1156
 4336TIP3    H134423   3.545   6.508   0.609  0.2061 -1.1616  0.7537
 4336TIP3    H234424   3.694   6.509   0.635  0.5763 -1.9569 -1.2590
 4337TIP3   OH234425   1.084   6.680   5.863  0.2269  0.0134  0.3330
 4337TIP3    H134426   1.038   6.637   5.935 -0.1628 -1.3853 -0.7125
 4337TIP3    H234427   1.173   6.646   5.867  0.6011  1.0625  1.0406
 4338TIP3   OH234428   4.732   2.618   1.706 -0.0517 -0.4373 -0.8845
 4338TIP3    H134429   4.723   2.532   1.749  1.5758  0.4203  1.2725
 4338TIP3    H234430   4.651   2.663   1.727  0.5982 -0.1365  1.1648
 4339TIP3   OH234431   5.595   2.001  15.118 -0.4881 -0.2828 -0.3869
 4339TIP3    H134432   5.559   1.934  15.176  0.7188 -1.2922 -0.7916
 4339TIP3    H234433   5.659   1.954  15.064  1.5061  1.4928  0.3781
 4340TIP3   OH234434   5.653   5.057  11.436  0.3088  0.0107 -0.2765
 4340TIP3    H134435   5.626   4.966  11.450  0.9900 -0.1140  0.2633
 4340TIP3    H234436   5.684   5.086  11.522 -0.9383  1.1107 -0.1790
 4341TIP3   OH234437   0.431   5.703   0.925 -0.0078  0.2798 -0.2003
 4341TIP3    H134438   0.447   5.751   0.844 -0.8093  0.6424 -0.1551
 4341TIP3    H234439   0.474   5.618   0.912  1.1660  0.9010 -0.3928
 4342TIP3   OH234440   2.061   4.874   2.125 -0.1211  0.2243  0.2190
 4342TIP3    H134441   1.990   4.819   2.090  1.0364  0.0162 -1.8768
 4342TIP3    H234442   2.101   4.914   2.048  1.4837  1.0392  1.4413
 4343TIP3   OH234443   5.208   5.889   1.181 -0.0969 -0.1343 -0.0526
 4343TIP3    H134444   5.224   5.825   1.250  3.0100 -0.5842 -1.0969
 4343TIP3    H234445   5.127   5.933   1.207 -0.2515 -1.8826  2.6322
 4344TIP3   OH234446   3.907   1.733  13.547 -0.3985  0.2738 -0.5441
 4344TIP3    H134447   3.855   1.760  13.471  0.0433  0.4644 -0.7820
 4344TIP3    H234448   3.996   1.722  13.513 -0.3708 -0.4981 -0.2336
 4345TIP3   OH234449   5.552   0.832   5.055  0.1459 -0.3879  0.1306
 4345TIP3    H134450   5.632   0.799   5.095  0.8719  1.8412  0.5610
 4345TIP3    H234451   5.488   0.834   5.126  0.3752  0.0459  0.3229
 4346TIP3   OH234452   2.320   5.028   0.758  0.0939  0.5007  0.1256
 4346TIP3    H134453   2.408   5.045   0.791 -1.2863  0.4293  4.0400
 4346TIP3    H234454   2.318   4.933   0.743  0.4223  0.3835  0.8034
 4347TIP3   OH234455   1.385   5.579   5.120  0.6851  0.4727  0.2531
 4347TIP3    H134456   1.396   5.575   5.215  2.2122  0.6358  0.0973
 4347TIP3    H234457   1.389   5.672   5.099 -2.4805  0.6522  0.3277
 4348TIP3   OH234458   3.248   3.153   5.876  0.6522 -0.5536 -0.9008
 4348TIP3    H134459   3.333   3.119   5.904  1.0974 -0.0637 -1.6452
 4348TIP3    H234460   3.267   3.206   5.799 -0.0094  1.6536  0.4204
 4349TIP3   OH234461   0.480   4.314   1.108 -0.1457  0.2303  0.1747
 4349TIP3    H134462   0.440   4.227   1.101  0.7026 -0.2044  0.6149
 4349TIP3    H234463   0.505   4.322   1.201 -1.0271  1.3068  0.3276
 4350TIP3   OH234464   2.873   1.114   0.527 -0.1808 -0.0257  0.0693
 4350TIP3    H134465   2.806   1.173   0.493  0.1604  1.1208  1.3258
 4350TIP3    H234466   2.955   1.151   0.495 -0.0628 -0.7015 -0.4116
 4351TIP3   OH234467   2.427   2.995  14.891  0.3139 -0.2443 -0.1687
 4351TIP3    H134468   2.384   2.913  14.868  0.7869  0.4187 -3.7321
 4351TIP3    H234469   2.357   3.051  14.924 -0.7393 -0.7414 -1.5257
 4352TIP3   OH234470   0.948   2.808   4.617 -0.3113  0.4458 -0.2054
 4352TIP3    H134471   0.895   2.739   4.578 -0.6893  0.7645 -0.2570
 4352TIP3    H234472   0.976   2.772   4.701 -1.5720  0.7096  0.3422
 4353TIP3   OH234473   2.879   1.903   0.136  0.1083 -0.3890 -0.7643
 4353TIP3    H134474   2.792   1.944   0.136 -0.6037 -1.8760  0.9138
 4353TIP3    H234475   2.923   1.941   0.212  0.0274 -1.5134 -0.1556
 4354TIP3   OH234476   2.671   4.111   4.445 -0.4091  0.0071  0.3742
 4354TIP3    H134477   2.630   4.100   4.531 -2.1824  1.1626 -0.2872
 4354TIP3    H234478   2.725   4.190   4.453 -1.9888  1.1634 -0.0510
 4355TIP3   OH234479   5.181   1.826   3.761 -0.1728  0.0436  0.8654
 4355TIP3    H134480   5.097   1.840   3.718  0.7044 -2.5075 -1.8956
 4355TIP3    H234481   5.165   1.755   3.824 -0.0352 -0.7997 -0.0244
 4356TIP3   OH234482   6.472   0.069   4.635  0.1040  0.3471 -0.1420
 4356TIP3    H134483   6.534   0.011   4.679  1.4178  1.4798 -0.4615
 4356TIP3    H234484   6.463   0.144   4.694 -1.1164  0.1119 -0.0108
 4357TIP3   OH234485   2.740   5.546   1.446  0.2327  0.0138  0.2920
 4357TIP3    H134486   2.817   5.529   1.392  1.5120 -0.3965  2.1791
 4357TIP3    H234487   2.708   5.459   1.470 -0.3138  0.1866  0.1980
 4358TIP3   OH234488   2.959   3.516   1.059  0.0594  0.3829 -0.1544
 4358TIP3    H134489   2.993   3.604   1.044  2.1213 -0.6042 -1.4675
 4358TIP3    H234490   3.019   3.477   1.122 -1.8837  0.4986  1.8331
 4359TIP3   OH234491   6.421   2.057   0.326 -0.6970 -0.1556 -0.0414
 4359TIP3    H134492   6.388   2.017   0.406 -0.6052  2.0491  1.1510
 4359TIP3    H234493   6.481   2.125   0.357 -0.2845  0.3931 -1.9981
 4360TIP3   OH234494   2.885   6.365  13.155 -0.1468 -0.0032 -0.3324
 4360TIP3    H134495   2.813   6.344  13.215  0.2587  1.8351  0.8499
 4360TIP3    H234496   2.899   6.459  13.167  2.9129 -0.4480  0.0075
 4361TIP3   OH234497   3.223   1.969   4.564  0.0215  1.0005 -0.1174
 4361TIP3    H134498   3.208   1.889   4.615  0.9277  0.3755 -0.8261
 4361TIP3    H234499   3.138   1.986   4.522 -0.4905  1.0475  0.9222
 4362TIP3   OH234500   3.856   3.336   5.692  0.1237  0.7325 -0.0234
 4362TIP3    H134501   3.821   3.333   5.603 -2.4084  3.3697  0.7969
 4362TIP3    H234502   3.931   3.396   5.686  1.8942 -1.4901 -0.9173
 4363TIP3   OH234503   3.949   3.381   3.031  0.3047  0.3701  0.1300
 4363TIP3    H134504   3.858   3.373   3.001  0.6600  1.4371 -1.2999
 4363TIP3    H234505   3.983   3.291   3.027 -0.8015 -0.1132  1.1131
 4364TIP3   OH234506   2.615   6.542   2.587 -0.1844  0.1121  0.3651
 4364TIP3    H134507   2.542   6.508   2.639 -1.1163 -1.3363 -1.8229
 4364TIP3    H234508   2.682   6.475   2.591 -0.4748 -0.2523 -0.7295
 4365TIP3   OH234509   5.396   2.264  14.113 -1.2545  0.3376  0.7393
 4365TIP3    H134510   5.473   2.267  14.170 -1.0563 -1.0534  0.5730
 4365TIP3    H234511   5.346   2.343  14.135 -0.5167  0.4933  1.8900
 4366TIP3   OH234512   2.051   2.429  12.566  0.0608  0.3548  0.3518
 4366TIP3    H134513   1.966   2.472  12.566 -0.2247 -0.1941  1.0032
 4366TIP3    H234514   2.077   2.427  12.658  0.7163  0.4064  0.1706
 4367TIP3   OH234515   0.932   0.452  14.307 -0.1301  0.0087  0.0202
 4367TIP3    H134516   0.844   0.479  14.281 -0.1703 -0.7268 -0.6280
 4367TIP3    H234517   0.920   0.363  14.341  0.3952 -0.1818 -0.2885
 4368TIP3   OH234518   0.543   5.614   3.164  0.2041 -0.0163  0.1511
 4368TIP3    H134519   0.548   5.698   3.118  0.3650 -0.5074 -0.7352
 4368TIP3    H234520   0.450   5.604   3.184  0.2279  0.5307  0.5680
 4369TIP3   OH234521   4.195   6.429   5.446  0.2612  0.6709 -0.6666
 4369TIP3    H134522   4.264   6.386   5.496  1.2128  2.7585 -0.1460
 4369TIP3    H234523   4.236   6.450   5.362  0.0055  1.2060 -0.6539
 4370TIP3   OH234524   3.043   3.655   4.297  0.3586  0.6502  0.0173
 4370TIP3    H134525   3.083   3.735   4.332  0.6039  0.8168 -0.6341
 4370TIP3    H234526   2.985   3.686   4.227 -0.0576  0.3116  0.2060
 4371TIP3   OH234527   6.697   4.272  12.085 -0.3529 -0.0340 -0.3173
 4371TIP3    H134528   6.789   4.284  12.111 -0.2647  0.1609 -0.7178
 4371TIP3    H234529   6.682   4.341  12.020 -1.2372  0.9228  0.8880
 4372TIP3   OH234530   5.665   3.046   0.446  0.5269 -0.0957  0.0421
 4372TIP3    H134531   5.737   2.983   0.440  0.5941 -0.0796  0.6051
 4372TIP3    H234532   5.587   2.995   0.422  0.5519 -0.4534  0.6866
 4373TIP3   OH234533   2.079   5.324  13.191 -0.2291  0.7796  0.1558
 4373TIP3    H134534   2.144   5.360  13.131  0.8739  3.8548  3.0546
 4373TIP3    H234535   2.128   5.299  13.269 -2.2585  1.5105  1.7191
 4374TIP3   OH234536   3.883   4.669  13.030 -0.2047 -0.7826 -0.7870
 4374TIP3    H134537   3.964   4.622  13.012  0.7445  0.7883 -0.7506
 4374TIP3    H234538   3.879   4.736  12.961  0.5332  1.6263  1.4426
 4375TIP3   OH234539   4.435   6.608  11.809 -0.6950 -0.2879 -0.2100
 4375TIP3    H134540   4.452   6.547  11.881 -0.2459  1.5420  1.2810
 4375TIP3    H234541   4.492   6.578  11.738  0.6409 -0.7160  1.0195
 4376TIP3   OH234542   0.321   2.597   5.730 -0.0299 -0.1973 -0.1028
 4376TIP3    H134543   0.332   2.508   5.697 -0.7955 -0.2854 -0.1300
 4376TIP3    H234544   0.350   2.592   5.821 -1.3441 -0.8004  0.3027
 4377TIP3   OH234545   0.964   1.874   3.612  0.4168  0.6137  0.1251
 4377TIP3    H134546   0.916   1.941   3.660  2.4642  0.2658  2.7840
 4377TIP3    H234547   0.897   1.821   3.569 -1.4504  1.4430  1.9715
 4378TIP3   OH234548   3.862   5.602   2.487 -0.1397  0.1910 -0.4439
 4378TIP3    H134549   3.874   5.526   2.543  1.7798  0.9000  0.1598
 4378TIP3    H234550   3.780   5.586   2.441 -0.7372 -1.3163  1.1200
 4379TIP3   OH234551   4.603   2.756  11.732 -0.3931 -0.3082 -0.3513
 4379TIP3    H134552   4.597   2.796  11.645 -1.1435 -0.0908 -0.1974
 4379TIP3    H234553   4.660   2.815  11.781  1.0076 -1.0627 -1.0489
 4380TIP3   OH234554   4.934   1.972  11.530 -0.4337  0.3286  0.1625
 4380TIP3    H134555   4.958   1.893  11.578 -1.5045 -0.1254 -0.0465
 4380TIP3    H234556   4.895   2.029  11.597  1.1233  1.0463  0.4914
 4381TIP3   OH234557   5.095   2.985  16.035 -0.2156  0.0629  0.0182
 4381TIP3    H134558   5.147   2.990  15.955  1.4657  0.1309  1.0903
 4381TIP3    H234559   5.004   2.995  16.006  0.3391 -0.3659 -1.9181
 4382TIP3   OH234560   3.645   6.021  13.379  0.9752  0.6499  0.3341
 4382TIP3    H134561   3.739   6.033  13.365  1.1043 -1.1678 -0.6025
 4382TIP3    H234562   3.614   5.979  13.299 -0.8294  2.0559  0.2606
 4383TIP3   OH234563   4.076   5.600   3.883  0.2628 -0.3230 -0.7853
 4383TIP3    H134564   4.126   5.603   3.964  0.8245 -1.7581 -1.0604
 4383TIP3    H234565   4.135   5.636   3.817  0.0153  0.3021 -0.6728
 4384TIP3   OH234566   4.709   0.796   3.619 -0.2338  0.2740 -0.2840
 4384TIP3    H134567   4.757   0.867   3.577  0.3048  0.2785  0.3294
 4384TIP3    H234568   4.726   0.808   3.713 -1.6917  0.4693 -0.0420
 4385TIP3   OH234569   1.571   6.354  12.430 -0.2536  0.4023 -0.4383
 4385TIP3    H134570   1.573   6.420  12.361  0.0005  1.7338  0.8290
 4385TIP3    H234571   1.660   6.353  12.466  0.0076 -1.3227 -1.0812
 4386TIP3   OH234572   0.305   0.946   2.770 -0.8563  0.4538 -0.1251
 4386TIP3    H134573   0.238   0.956   2.703 -1.4125 -2.3683 -0.0737
 4386TIP3    H234574   0.258   0.956   2.853 -0.8911  0.2577 -0.1198
 4387TIP3   OH234575   1.701   6.439   6.262  0.1106  0.6172  0.0556
 4387TIP3    H134576   1.705   6.397   6.176  0.9644 -0.2108  0.5077
 4387TIP3    H234577   1.762   6.513   6.255  0.3975  0.3790  0.0517
 4388TIP3   OH234578   5.772   1.711  13.225 -0.0191  0.0768 -0.2409
 4388TIP3    H134579   5.690   1.674  13.192 -0.3360  0.3234  0.2648
 4388TIP3    H234580   5.745   1.784  13.280  0.6378  1.9050 -2.2552
 4389TIP3   OH234581   2.922   0.461  14.336  0.0652 -0.5938 -0.7134
 4389TIP3    H134582   2.878   0.475  14.252 -0.1353 -2.3404 -0.9144
 4389TIP3    H234583   2.979   0.537  14.346 -2.3648  1.3323 -0.8389
 4390TIP3   OH234584   5.954   6.572   2.844 -0.2208 -0.5153 -0.6454
 4390TIP3    H134585   5.990   6.606   2.926 -1.1248  0.0867 -0.4973
 4390TIP3    H234586   5.942   6.478   2.860  0.4198 -0.5550 -0.3894
 4391TIP3   OH234587   4.274   3.460  15.401  0.1933 -0.2576  1.1862
 4391TIP3    H134588   4.263   3.458  15.496  1.2259  2.4558  1.3942
 4391TIP3    H234589   4.363   3.491  15.388 -0.0732 -0.2153 -0.6986
 4392TIP3   OH234590   1.472   5.261   2.661  0.2622 -0.0615 -0.1437
 4392TIP3    H134591   1.561   5.251   2.626 -0.7846 -3.1525 -2.1657
 4392TIP3    H234592   1.417   5.212   2.600 -2.9047  2.0009  0.9183
 4393TIP3   OH234593   2.179   6.045  13.331  0.3094  0.0975 -0.0081
 4393TIP3    H134594   2.099   5.995  13.320  1.8309 -1.9331 -2.3021
 4393TIP3    H234595   2.189   6.093  13.249  2.0433 -0.5720 -0.2024
 4394TIP3   OH234596   2.401   0.089  16.314  0.5939  0.0938 -0.4471
 4394TIP3    H134597   2.379   0.163  16.370 -0.9368  1.1134 -2.3672
 4394TIP3    H234598   2.495   0.076  16.327  0.7487  1.9380  0.3676
 4395TIP3   OH234599   6.636   0.477  13.691  0.6705  0.3162  0.2966
 4395TIP3    H134600   6.575   0.408  13.664  0.6362 -0.2160  1.7175
 4395TIP3    H234601   6.684   0.499  13.611  0.3992 -1.0705 -0.2630
 4396TIP3   OH234602   1.463   6.220   2.190  0.2660 -0.0809 -0.2544
 4396TIP3    H134603   1.397   6.213   2.259 -1.7067  2.1203 -1.8474
 4396TIP3    H234604   1.450   6.141   2.138 -0.9369  0.2045 -0.3971
 4397TIP3   OH234605   5.755   2.055  13.878  0.3603  0.3859 -0.4272
 4397TIP3    H134606   5.690   2.122  13.898  0.2130 -0.0260  0.5107
 4397TIP3    H234607   5.838   2.092  13.907  0.2703  0.1431  0.1466
 4398TIP3   OH234608   4.441   6.350   3.769  0.0855 -0.2015 -0.2122
 4398TIP3    H134609   4.353   6.363   3.734 -0.4213  0.3063  1.2135
 4398TIP3    H234610   4.483   6.436   3.761 -0.3201  0.1368  1.1877
 4399TIP3   OH234611   6.630   1.153   1.758 -0.1103 -0.1881  0.6533
 4399TIP3    H134612   6.559   1.204   1.799  0.4054 -1.2759  2.9622
 4399TIP3    H234613   6.595   1.065   1.751  0.9394 -0.6951  1.6541
 4400TIP3   OH234614   0.274   6.303  16.010 -0.1321  0.4594  0.3564
 4400TIP3    H134615   0.253   6.325  15.919  0.0494  0.3656  0.2903
 4400TIP3    H234616   0.368   6.321  16.017 -0.3588  1.4660  0.8197
 4401TIP3   OH234617   5.008   2.119   4.931 -0.2678 -0.2070 -0.4321
 4401TIP3    H134618   5.041   2.108   5.020  0.1800 -2.9049 -0.8900
 4401TIP3    H234619   4.936   2.056   4.924 -1.5496  1.3143 -1.4048
 4402TIP3   OH234620   0.444   0.197   6.257 -0.2279 -0.2148  0.1041
 4402TIP3    H134621   0.488   0.279   6.279 -1.3491  0.4325 -0.0391
 4402TIP3    H234622   0.390   0.177   6.333 -0.2654 -0.6196 -0.0258
 4403TIP3   OH234623   3.046   2.167  11.527 -0.6784  0.1823  0.0907
 4403TIP3    H134624   3.070   2.075  11.539 -1.1348 -0.1132 -1.1291
 4403TIP3    H234625   3.064   2.208  11.611 -0.4032 -1.0138  0.6279
 4404TIP3   OH234626   3.405   3.430  13.373  0.0604 -0.1561  0.4924
 4404TIP3    H134627   3.458   3.498  13.412  0.5150 -0.6174  0.6837
 4404TIP3    H234628   3.428   3.350  13.421 -2.8405  0.1140  2.4991
 4405TIP3   OH234629   6.083   6.685   3.052  0.2823  0.7708 -0.1503
 4405TIP3    H134630   6.155   6.635   3.091 -0.8358 -0.2854  0.6065
 4405TIP3    H234631   6.125   6.760   3.010  1.7285  0.6552  1.0708
 4406TIP3   OH234632   6.488   5.903  14.406 -0.1475 -0.1554  0.1126
 4406TIP3    H134633   6.525   5.880  14.492  2.2489 -1.2361 -1.1603
 4406TIP3    H234634   6.429   5.831  14.386 -1.2569  0.4479  1.1552
 4407TIP3   OH234635   6.488   0.391   1.119  0.2376 -0.2689 -0.3224
 4407TIP3    H134636   6.539   0.371   1.198  3.1514  5.9467 -0.2979
 4407TIP3    H234637   6.544   0.361   1.047  1.2151  1.1570 -0.1654
 4408TIP3   OH234638   1.635   3.469   1.169 -0.9584  0.5879  0.2423
 4408TIP3    H134639   1.666   3.386   1.134 -3.3172 -0.0780 -0.3481
 4408TIP3    H234640   1.715   3.514   1.198  0.4472 -1.3965 -0.4294
 4409TIP3   OH234641   4.468   1.657  16.975  0.4039 -0.4045  0.1301
 4409TIP3    H134642   4.406   1.667  16.904  1.3758 -1.1634 -0.8344
 4409TIP3    H234643   4.520   1.737  16.973  0.0447 -0.1627  0.3762
 4410TIP3   OH234644   0.639   1.248   3.539 -0.3253 -0.3498 -0.1482
 4410TIP3    H134645   0.555   1.277   3.573 -0.9408 -1.5454 -0.6417
 4410TIP3    H234646   0.684   1.210   3.615  0.6068  2.0859  0.5710
 4411TIP3   OH234647   3.504   0.812  16.450  0.4780 -0.3986  0.1607
 4411TIP3    H134648   3.485   0.884  16.510  0.9902  0.2094 -0.3957
 4411TIP3    H234649   3.429   0.809  16.391  0.9313  0.3663 -0.4655
 4412TIP3   OH234650   5.459   1.748  13.938  0.2928 -0.1747 -0.0546
 4412TIP3    H134651   5.422   1.836  13.951 -0.3341 -0.6132  1.1938
 4412TIP3    H234652   5.552   1.759  13.955  0.1871  0.2137  0.2945
 4413TIP3   OH234653   2.355   2.753   1.252 -0.5369 -0.3312  0.4272
 4413TIP3    H134654   2.271   2.708   1.255  0.1599 -1.6807 -0.2612
 4413TIP3    H234655   2.392   2.732   1.166  1.0870 -0.8003  1.2125
 4414TIP3   OH234656   0.252   2.289   1.616 -0.9443  0.1550  0.2243
 4414TIP3    H134657   0.200   2.210   1.628  0.9057 -1.1912 -0.4206
 4414TIP3    H234658   0.282   2.313   1.704 -0.5888 -0.4915  0.2757
 4415TIP3   OH234659   5.618   3.515   2.333  1.1533 -0.2695  0.8722
 4415TIP3    H134660   5.546   3.485   2.389  1.4608 -0.0265  1.4009
 4415TIP3    H234661   5.669   3.435   2.316  0.5496 -0.5092  0.1901
 4416TIP3   OH234662   5.143   5.142   0.617  0.4500 -0.0183  0.4379
 4416TIP3    H134663   5.166   5.189   0.537  0.5933  0.3953  0.7195
 4416TIP3    H234664   5.055   5.108   0.601  0.7671 -0.5475 -0.1696
 4417TIP3   OH234665   6.716   1.433   0.838  0.6834  0.3633  0.6217
 4417TIP3    H134666   6.781   1.452   0.905  1.3156  0.7357 -0.0856
 4417TIP3    H234667   6.726   1.505   0.775 -0.0684  0.1509  0.2545
 4418TIP3   OH234668   4.447   3.731   2.631 -0.4576  0.6376 -0.0795
 4418TIP3    H134669   4.525   3.676   2.616 -0.7779  0.0852  0.2552
 4418TIP3    H234670   4.378   3.669   2.655 -1.3209  1.0130 -1.5380
 4419TIP3   OH234671   5.097   5.755   2.628 -0.0428 -0.0338  0.2844
 4419TIP3    H134672   5.085   5.791   2.541  1.4309 -0.9672 -0.3261
 4419TIP3    H234673   5.018   5.781   2.676 -2.0377 -1.6379 -2.0117
 4420TIP3   OH234674   4.279   3.610  16.916  0.0561 -0.2064  0.4149
 4420TIP3    H134675   4.199   3.571  16.950 -0.1131 -0.3326 -0.1161
 4420TIP3    H234676   4.342   3.605  16.988 -0.2260 -0.6738  0.6250
 4421TIP3   OH234677   0.147   2.424  11.349 -0.5161 -0.0066 -0.1963
 4421TIP3    H134678   0.193   2.451  11.428 -1.7639  0.5155  0.3689
 4421TIP3    H234679   0.208   2.442  11.278  0.1551  0.6427  0.5324
 4422TIP3   OH234680   1.106   3.464   3.363 -0.0881 -0.1142 -0.1484
 4422TIP3    H134681   1.200   3.465   3.340 -0.0616  0.9133 -0.0210
 4422TIP3    H234682   1.069   3.397   3.306  0.8595 -1.0839  0.3450
 4423TIP3   OH234683   1.731   3.890   4.083  0.4601  0.4885  0.3482
 4423TIP3    H134684   1.794   3.948   4.041 -1.3390  1.7768 -0.6190
 4423TIP3    H234685   1.707   3.934   4.164  0.7257  0.0432  0.6738
 4424TIP3   OH234686   2.037   5.590   5.020 -0.4609  0.5373 -0.4080
 4424TIP3    H134687   2.008   5.632   5.101 -0.5543  0.1862 -0.2591
 4424TIP3    H234688   2.005   5.500   5.027  0.6416  0.1520 -0.2564
 4425TIP3   OH234689   4.563   4.149  11.271 -0.2112  0.4332 -0.3577
 4425TIP3    H134690   4.569   4.159  11.176  1.2461 -1.6239 -0.5123
 4425TIP3    H234691   4.559   4.054  11.286 -0.2094  0.7107  1.6348
 4426TIP3   OH234692   0.553   1.343   2.217 -0.1154 -0.2202  0.4218
 4426TIP3    H134693   0.570   1.249   2.209  0.3039 -0.2052  1.1034
 4426TIP3    H234694   0.569   1.378   2.130 -0.5334 -0.8236  0.0972
 4427TIP3   OH234695   3.439   2.256  11.846  0.0166  0.4006  0.6943
 4427TIP3    H134696   3.430   2.329  11.907  1.4818  1.5154 -0.3836
 4427TIP3    H234697   3.490   2.291  11.773  0.0485 -1.4682 -0.2299
 4428TIP3   OH234698   0.780   2.948  12.052  0.1832 -0.1057  0.4613
 4428TIP3    H134699   0.733   2.894  12.116  1.1446 -0.7828  0.5997
 4428TIP3    H234700   0.737   2.927  11.968 -0.1290 -0.3026  0.6648
 4429TIP3   OH234701   0.617   4.427   3.317  0.6768  0.7038 -0.5814
 4429TIP3    H134702   0.593   4.451   3.407 -0.6042  1.5632 -1.1388
 4429TIP3    H234703   0.663   4.504   3.284 -0.7790  1.2667 -1.3660
 4430TIP3   OH234704   4.400   3.537   1.366 -0.3769  0.2680 -0.4195
 4430TIP3    H134705   4.422   3.630   1.365 -0.7424  0.3519 -0.5257
 4430TIP3    H234706   4.315   3.532   1.410  0.9602 -0.3028  2.2313
 4431TIP3   OH234707   3.107   0.748   6.733  0.0437 -0.1179 -0.2392
 4431TIP3    H134708   3.027   0.736   6.785 -0.5447  0.4903 -1.0092
 4431TIP3    H234709   3.159   0.669   6.751 -1.7356 -1.6154 -1.5513
 4432TIP3   OH234710   2.583   4.314  15.272  0.4838 -0.2949 -0.2961
 4432TIP3    H134711   2.498   4.279  15.299  0.0748  0.7817 -0.1362
 4432TIP3    H234712   2.629   4.332  15.354  0.2462  0.5768 -0.3443
 4433TIP3   OH234713   4.389   5.364  11.477 -0.6090 -0.5481  0.7511
 4433TIP3    H134714   4.398   5.293  11.413 -1.3420 -0.3220  0.3865
 4433TIP3    H234715   4.358   5.321  11.557 -2.6056 -0.4429  0.0634
 4434TIP3   OH234716   5.473   3.987  11.825  0.1491 -0.3859  0.0902
 4434TIP3    H134717   5.404   3.940  11.872  1.3398 -3.4823 -1.1101
 4434TIP3    H234718   5.442   3.988  11.734  0.6496  0.1682 -0.0680
 4435TIP3   OH234719   5.314   5.633   5.568  0.8298 -0.5702 -0.1144
 4435TIP3    H134720   5.227   5.641   5.527  0.3292 -1.7505  0.6781
 4435TIP3    H234721   5.325   5.539   5.582  2.0790 -0.3879  0.1347
 4436TIP3   OH234722   4.392   2.810   4.322  0.2246  0.1862  0.5489
 4436TIP3    H134723   4.378   2.721   4.289  2.1707  0.2481 -0.5036
 4436TIP3    H234724   4.447   2.799   4.399  2.1381  0.6210 -0.7444
 4437TIP3   OH234725   5.300   6.529  12.096 -0.3004  0.5829 -0.4525
 4437TIP3    H134726   5.391   6.553  12.081 -0.5184  1.3533 -0.5718
 4437TIP3    H234727   5.273   6.580  12.172 -0.2404 -0.6693  0.4248
 4438TIP3   OH234728   0.507   1.252  13.872 -0.3017 -0.3821 -0.3435
 4438TIP3    H134729   0.559   1.193  13.927 -1.7649 -1.5747 -0.2126
 4438TIP3    H234730   0.440   1.196  13.834 -0.8640  0.9453 -1.3286
 4439TIP3   OH234731   3.208   5.039  11.784 -0.1351  0.0985  0.8423
 4439TIP3    H134732   3.268   4.972  11.752  1.3023  1.2139  1.1530
 4439TIP3    H234733   3.193   5.095  11.708 -1.7048 -0.8223  0.4537
 4440TIP3   OH234734   4.404   2.738  12.297  0.5208  0.1013  0.3926
 4440TIP3    H134735   4.443   2.727  12.211 -0.7920 -0.1171 -0.1794
 4440TIP3    H234736   4.335   2.803  12.284 -0.0674 -0.3657  1.1569
 4441TIP3   OH234737   4.826   2.094   1.547 -0.2164 -0.4000 -0.0339
 4441TIP3    H134738   4.842   2.010   1.505 -0.2675  0.4015 -1.7061
 4441TIP3    H234739   4.838   2.077   1.640  1.1365 -1.9479 -0.4592
 4442TIP3   OH234740   5.081   2.520   4.176 -0.2976  0.3812  0.7494
 4442TIP3    H134741   5.018   2.592   4.181 -0.2325  0.5058 -0.1165
 4442TIP3    H234742   5.040   2.448   4.224 -1.2897  0.3160 -0.2010
 4443TIP3   OH234743   6.573   4.362  14.516 -0.3943  0.6230 -0.1094
 4443TIP3    H134744   6.605   4.316  14.439 -1.4951 -0.7564  0.2407
 4443TIP3    H234745   6.615   4.317  14.590  1.4655  2.5854  0.0718
 4444TIP3   OH234746   5.123   3.677   1.797  0.0421 -0.0711 -0.2340
 4444TIP3    H134747   5.190   3.730   1.755 -0.1133  0.0827 -0.2922
 4444TIP3    H234748   5.170   3.605   1.839  0.2868  0.2983  0.1296
 4445TIP3   OH234749   0.780   1.520  15.901  0.1775 -0.2119  0.4738
 4445TIP3    H134750   0.835   1.490  15.829 -0.4609 -1.3611  0.4517
 4445TIP3    H234751   0.737   1.599  15.868  1.1978  0.2461  0.2171
 4446TIP3   OH234752   0.279   6.146   4.037 -0.2015 -0.2701  0.2148
 4446TIP3    H134753   0.350   6.116   4.094 -0.7839 -0.6789  0.7246
 4446TIP3    H234754   0.280   6.085   3.963  0.4380  0.1534 -0.1363
 4447TIP3   OH234755   0.302   1.026   5.274 -0.1671  0.2243 -0.1191
 4447TIP3    H134756   0.259   0.952   5.230  0.6080  0.9928 -2.2271
 4447TIP3    H234757   0.247   1.101   5.252  0.8083  0.7847 -0.6589
 4448TIP3   OH234758   0.249   6.052   2.247 -0.0670 -0.2534 -0.3880
 4448TIP3    H134759   0.327   6.059   2.301  0.2262 -2.0980 -0.5374
 4448TIP3    H234760   0.191   5.994   2.296 -0.8697  0.1480 -0.8452
 4449TIP3   OH234761   2.582   4.473  17.146  0.1338 -0.2945  0.7700
 4449TIP3    H134762   2.529   4.535  17.095  0.0930  0.6747  1.9542
 4449TIP3    H234763   2.660   4.459  17.093 -0.8476 -0.9456 -0.5227
 4450TIP3   OH234764   6.075   4.517  16.498  0.4653 -0.1545  0.7566
 4450TIP3    H134765   6.054   4.517  16.592 -1.4315  2.4016  0.3976
 4450TIP3    H234766   5.992   4.496  16.456  1.3439 -1.4156 -0.3798
 4451TIP3   OH234767   2.469   3.717   0.313  0.6723  0.1130  0.5528
 4451TIP3    H134768   2.441   3.732   0.403  0.0849 -0.3001  0.4403
 4451TIP3    H234769   2.547   3.661   0.321  0.2439 -0.4555  0.7791
 4452TIP3   OH234770   0.550   3.535   2.255  0.1865 -0.6259  0.8545
 4452TIP3    H134771   0.478   3.480   2.223 -0.9443  1.0177  0.5467
 4452TIP3    H234772   0.624   3.474   2.264 -0.9953 -2.1665  0.3659
 4453TIP3   OH234773   6.272   0.145   1.773  0.4187 -0.1723  0.2331
 4453TIP3    H134774   6.322   0.100   1.841  0.2843 -1.0716 -0.2491
 4453TIP3    H234775   6.284   0.091   1.695  0.1739  0.5887 -0.3341
 4454TIP3   OH234776   5.233   3.745  16.546  0.3441 -0.0701 -0.2682
 4454TIP3    H134777   5.164   3.685  16.574 -0.0047  1.1344  1.5191
 4454TIP3    H234778   5.311   3.691  16.540 -0.1695 -0.8928  0.3852
 4455TIP3   OH234779   2.945   0.803   3.567  0.7914  0.1942 -0.1950
 4455TIP3    H134780   3.023   0.850   3.597  1.8199 -0.6495 -1.4984
 4455TIP3    H234781   2.979   0.719   3.535 -0.5316  0.2203 -1.7114
 4456TIP3   OH234782   1.927   4.697   0.381  0.5273  0.3093  0.1736
 4456TIP3    H134783   1.932   4.602   0.369 -2.4141  0.3350 -2.0035
 4456TIP3    H234784   2.013   4.729   0.354  0.9574 -1.5934 -0.8351
 4457TIP3   OH234785   3.140   0.985   3.603  0.3056  0.3341  0.3172
 4457TIP3    H134786   3.102   1.068   3.632  0.8089  0.5693  0.2966
 4457TIP3    H234787   3.227   1.008   3.570 -0.5707  0.2235 -2.2004
 4458TIP3   OH234788   3.353   1.277   3.605 -0.2765  0.0307  0.0237
 4458TIP3    H134789   3.380   1.205   3.549 -0.8500 -1.8975  2.1621
 4458TIP3    H234790   3.433   1.326   3.622 -0.0695  0.5697 -2.3230
 4459TIP3   OH234791   6.456   0.678  10.892  0.1806 -0.0261  0.1486
 4459TIP3    H134792   6.410   0.604  10.852 -0.4504  0.9180 -0.8880
 4459TIP3    H234793   6.549   0.653  10.886 -0.0606 -1.0103  0.3726
 4460TIP3   OH234794   4.840   3.575  12.131  0.1114 -0.0645 -0.3241
 4460TIP3    H134795   4.885   3.612  12.207 -0.2753  0.0651 -0.1525
 4460TIP3    H234796   4.818   3.651  12.077  0.4488 -0.1639 -0.6014
 4461TIP3   OH234797   0.505   4.622  16.161  0.2738  0.9412 -0.5664
 4461TIP3    H134798   0.453   4.572  16.223  1.4336  0.3536 -0.0521
 4461TIP3    H234799   0.452   4.700  16.142 -0.4039  0.7647  0.5849
 4462TIP3   OH234800   3.281   4.187   0.491 -0.2754 -0.0333 -0.2001
 4462TIP3    H134801   3.253   4.274   0.465  0.6814  0.6277  0.9397
 4462TIP3    H234802   3.273   4.187   0.586  1.1515 -0.6941 -0.0797
 4463TIP3   OH234803   3.168   6.456  15.860  0.6511  0.0317 -0.3206
 4463TIP3    H134804   3.137   6.370  15.890  1.2649  0.0146  0.2851
 4463TIP3    H234805   3.256   6.463  15.897 -0.3277  1.9910  1.6888
 4464TIP3   OH234806   2.747   3.107  12.428 -0.3228  0.0602  0.5284
 4464TIP3    H134807   2.704   3.117  12.343  1.4804  0.8460 -0.3178
 4464TIP3    H234808   2.725   3.186  12.476  0.9774  0.9281 -0.2778
 4465TIP3   OH234809   3.307   1.798  15.931  0.1696  0.5171 -0.1947
 4465TIP3    H134810   3.266   1.792  15.845 -0.2927 -0.3971  0.0859
 4465TIP3    H234811   3.366   1.722  15.935 -0.2655  0.2178  0.5319
 4466TIP3   OH234812   1.569   0.052   1.116  0.6661 -0.2639 -0.0670
 4466TIP3    H134813   1.524   0.123   1.162  0.7184 -0.0547 -0.3426
 4466TIP3    H234814   1.607   0.093   1.039 -0.8640 -0.9384 -1.2242
 4467TIP3   OH234815   2.820   2.756   5.737  0.1235 -0.0809  0.3078
 4467TIP3    H134816   2.871   2.836   5.752 -1.1946  0.8738 -0.2024
 4467TIP3    H234817   2.857   2.719   5.657 -0.5679  1.1143 -0.5959
 4468TIP3   OH234818   4.728   4.969  17.070  0.2510  0.6441  0.6033
 4468TIP3    H134819   4.823   4.963  17.087  0.2173  0.3196  0.6751
 4468TIP3    H234820   4.689   4.905  17.129  0.1857 -1.0834 -1.2818
 4469TIP3   OH234821   1.249   2.119   1.805 -0.4316 -0.1635 -0.7010
 4469TIP3    H134822   1.322   2.176   1.831 -0.9437  0.4109 -0.5101
 4469TIP3    H234823   1.202   2.102   1.887 -0.7181 -0.2380 -0.8817
 4470TIP3   OH234824   5.342   3.217  14.094 -0.2653  0.1447 -0.1580
 4470TIP3    H134825   5.394   3.179  14.024  0.3774 -0.1505  0.4741
 4470TIP3    H234826   5.369   3.309  14.097  0.3164 -0.0375  0.2531
 4471TIP3   OH234827   5.172   0.737  10.822 -0.4985  0.5199  0.2614
 4471TIP3    H134828   5.242   0.764  10.763 -0.0853  1.0321  0.9715
 4471TIP3    H234829   5.198   0.650  10.852 -2.2530 -1.1274 -2.6844
 4472TIP3   OH234830   4.209   3.627  14.498  0.4888  0.2059 -0.1321
 4472TIP3    H134831   4.226   3.698  14.559  1.3856 -0.3327  0.2615
 4472TIP3    H234832   4.295   3.589  14.481  0.0676 -0.5496 -0.6251
 4473TIP3   OH234833   4.006   3.343   3.868  0.2834 -0.3655 -0.4107
 4473TIP3    H134834   3.934   3.346   3.804  0.5171 -0.0872 -0.6581
 4473TIP3    H234835   4.015   3.250   3.888 -1.2932 -0.2562  0.9111
 4474TIP3   OH234836   5.637   0.634   4.282  0.0122  0.3578  1.0101
 4474TIP3    H134837   5.576   0.696   4.242 -0.7686 -0.2721  1.2323
 4474TIP3    H234838   5.587   0.592   4.352  0.6621 -0.2351  1.1224
 4475TIP3   OH234839   5.554   0.704  16.565 -0.2540 -0.5193  0.7872
 4475TIP3    H134840   5.491   0.681  16.497  2.2727  0.1290 -1.8595
 4475TIP3    H234841   5.617   0.632  16.565  0.3284 -0.0299  1.7851
 4476TIP3   OH234842   2.400   4.850  11.094  0.0034  0.3363 -0.1581
 4476TIP3    H134843   2.489   4.831  11.124 -0.2252  0.9633  0.9595
 4476TIP3    H234844   2.382   4.782  11.029  1.4040  0.3865 -0.6184
 4477TIP3   OH234845   1.291   3.416  12.088 -0.7200  0.3334 -0.2417
 4477TIP3    H134846   1.299   3.408  11.993 -0.0936  1.6569 -0.3080
 4477TIP3    H234847   1.199   3.397  12.106 -0.8442  0.0943 -1.1189
 4478TIP3   OH234848   6.633   4.933   0.588  0.0339  0.1476  0.3897
 4478TIP3    H134849   6.727   4.917   0.580 -0.0506 -0.4234  0.5610
 4478TIP3    H234850   6.595   4.895   0.509  0.1177  1.8025 -0.4802
 4479TIP3   OH234851   5.225   6.770   3.202  0.1249 -0.1135 -0.4029
 4479TIP3    H134852   5.142   6.726   3.186 -0.3442  0.8644 -0.7320
 4479TIP3    H234853   5.225   6.844   3.140  0.2947  1.0855  0.9894
 4480TIP3   OH234854   2.017   5.065  15.453 -0.0357 -0.2855 -0.7203
 4480TIP3    H134855   2.055   5.148  15.483  0.2644 -0.4035 -0.7788
 4480TIP3    H234856   1.923   5.076  15.469  0.0646 -0.1598 -0.1865
 4481TIP3   OH234857   5.459   4.870   5.713 -0.3193  0.5680 -0.0787
 4481TIP3    H134858   5.397   4.802   5.739 -1.8206  2.1607  0.6220
 4481TIP3    H234859   5.437   4.889   5.621  1.0996 -0.9169 -0.7549
 4482TIP3   OH234860   4.687   5.662  15.974 -0.2185 -0.0894  0.1943
 4482TIP3    H134861   4.749   5.684  15.904  0.3034  2.1494  1.3083
 4482TIP3    H234862   4.741   5.642  16.050 -0.8229  1.0169  0.9311
 4483TIP3   OH234863   3.772   5.282  13.140  0.3963 -0.2676 -0.6562
 4483TIP3    H134864   3.829   5.257  13.067 -0.4615 -1.7461 -0.8385
 4483TIP3    H234865   3.805   5.368  13.168  2.6230 -1.0259 -0.8408
 4484TIP3   OH234866   2.990   1.796   2.059 -0.0590  0.8203 -0.0895
 4484TIP3    H134867   3.011   1.729   1.994 -2.1520  1.2503 -1.2434
 4484TIP3    H234868   3.069   1.850   2.064  1.3134 -1.1731  0.1899
 4485TIP3   OH234869   5.285   3.986   5.444  0.2681  0.9390 -0.0312
 4485TIP3    H134870   5.273   3.963   5.536  2.3685  1.6444  0.4656
 4485TIP3    H234871   5.321   3.907   5.404 -1.1692  0.4523 -0.3867
 4486TIP3   OH234872   6.226   6.275  13.117 -0.0218 -0.0087 -0.3733
 4486TIP3    H134873   6.182   6.194  13.144 -2.8911  1.5435 -0.2602
 4486TIP3    H234874   6.247   6.261  13.025 -1.4987 -0.4338 -0.6461
 4487TIP3   OH234875   2.143   2.750  11.686 -0.2169 -0.7340 -0.1528
 4487TIP3    H134876   2.233   2.726  11.664 -1.1488 -2.1004 -2.6568
 4487TIP3    H234877   2.131   2.836  11.644 -0.3732 -0.9852 -0.6242
 4488TIP3   OH234878   1.254   4.565   2.399  0.7845 -0.0638 -0.0415
 4488TIP3    H134879   1.299   4.485   2.374  1.2220  0.0797  0.2844
 4488TIP3    H234880   1.268   4.572   2.493 -2.2884 -1.5167  0.5950
 4489TIP3   OH234881   0.238   2.913  13.327  0.2707 -0.2344 -0.3592
 4489TIP3    H134882   0.202   2.940  13.242  0.2715  1.8837  0.2671
 4489TIP3    H234883   0.333   2.925  13.318  0.2456  0.2845  0.0232
 4490TIP3   OH234884   3.876   6.084  16.662 -0.6020 -0.2043  0.3514
 4490TIP3    H134885   3.944   6.053  16.722 -0.1464 -1.2358 -0.6812
 4490TIP3    H234886   3.912   6.163  16.623  0.0949 -0.8495 -0.3279
 4491TIP3   OH234887   0.755   2.957  10.512 -0.4427 -0.1666 -0.6955
 4491TIP3    H134888   0.689   2.926  10.574 -0.2307  1.2103  0.2481
 4491TIP3    H234889   0.708   3.018  10.455 -0.5474 -1.1216 -1.6366
 4492TIP3   OH234890   2.327   5.054  16.239 -0.2327  0.1107  0.4165
 4492TIP3    H134891   2.411   5.092  16.264 -0.1086  0.9235 -1.1563
 4492TIP3    H234892   2.272   5.130  16.217  0.0129 -0.5480 -2.7413
 4493TIP3   OH234893   6.024   3.144  15.812  0.0026 -0.4205  0.0418
 4493TIP3    H134894   6.069   3.063  15.786  3.2539  0.5467  2.3371
 4493TIP3    H234895   6.015   3.137  15.907 -2.9299  0.3817 -0.1282
 4494TIP3   OH234896   3.524   4.671   2.474 -0.3253  0.6292 -0.1181
 4494TIP3    H134897   3.563   4.678   2.561 -3.2909  0.5335  1.2782
 4494TIP3    H234898   3.535   4.758   2.435  2.2739  0.2722 -0.2331
 4495TIP3   OH234899   3.161   2.278   1.080 -0.4387 -0.3280  0.0595
 4495TIP3    H134900   3.233   2.215   1.074  0.5221  0.7657 -0.0723
 4495TIP3    H234901   3.190   2.352   1.027 -2.0918 -0.2734 -0.7862
 4496TIP3   OH234902   1.174   5.286  14.828 -0.5581  0.0009 -0.3913
 4496TIP3    H134903   1.122   5.353  14.784 -1.7098 -1.5589 -1.4893
 4496TIP3    H234904   1.252   5.275  14.773 -0.7605 -0.1353 -0.6510
 4497TIP3   OH234905   1.046   3.044   0.824 -0.4612  0.2495 -0.0520
 4497TIP3    H134906   1.070   3.091   0.904 -1.4538 -0.1974  0.5215
 4497TIP3    H234907   0.960   3.080   0.800 -0.4680 -0.0850 -0.5452
 4498TIP3   OH234908   3.963   0.173   5.042  0.4787  0.9885 -0.3678
 4498TIP3    H134909   3.907   0.204   4.969  0.5575 -0.5160 -1.0762
 4498TIP3    H234910   3.903   0.125   5.099  0.9991 -0.4410 -1.0149
 4499TIP3   OH234911   3.967   1.878  15.911 -0.2161  0.2485 -0.2100
 4499TIP3    H134912   3.971   1.929  15.991  0.7170  0.1200 -0.1659
 4499TIP3    H234913   3.876   1.848  15.906 -0.4944  0.9918  0.3307
 4500TIP3   OH234914   4.414   5.360  14.677 -0.3028  0.0269 -0.1248
 4500TIP3    H134915   4.395   5.408  14.597  0.8251 -0.7670 -0.8884
 4500TIP3    H234916   4.339   5.377  14.734 -1.5387 -0.1279 -1.6838
 4501TIP3   OH234917   6.174   0.699  11.742 -0.4940 -0.0349 -0.2767
 4501TIP3    H134918   6.262   0.705  11.705 -0.6482 -1.5245 -0.9139
 4501TIP3    H234919   6.167   0.609  11.773 -2.4608 -0.4981 -1.9608
 4502TIP3   OH234920   3.409   4.199   6.173 -0.0512 -0.0955  0.2407
 4502TIP3    H134921   3.395   4.150   6.254 -3.6032 -0.1729 -0.3642
 4502TIP3    H234922   3.363   4.282   6.186  0.4479  0.4316 -1.1973
 4503TIP3   OH234923   0.021   3.143  14.170 -0.2073 -0.0872 -0.0314
 4503TIP3    H134924   0.107   3.151  14.130 -0.0275 -1.0881  0.1262
 4503TIP3    H234925   0.035   3.084  14.244 -1.0084 -0.1704  0.0553
 4504TIP3   OH234926   3.904   0.555   3.068 -0.0149  0.0976  0.1615
 4504TIP3    H134927   3.936   0.505   2.992 -1.0781 -0.6048  0.1676
 4504TIP3    H234928   3.828   0.505   3.098 -0.3553  1.0788  0.9118
 4505TIP3   OH234929   3.296   0.278   4.851 -0.7513  0.2611 -0.1877
 4505TIP3    H134930   3.255   0.192   4.854 -0.4576  0.1390  0.6941
 4505TIP3    H234931   3.223   0.340   4.844 -0.9976 -0.0243 -0.1304
 4506TIP3   OH234932   2.273   1.972  15.263 -0.2255 -0.1160 -0.0586
 4506TIP3    H134933   2.350   2.027  15.278  0.1751 -0.6404 -0.1828
 4506TIP3    H234934   2.238   1.954  15.350  0.3398 -0.6555  0.0583
 4507TIP3   OH234935   5.284   2.245   1.787 -0.6453 -0.7816  0.2980
 4507TIP3    H134936   5.320   2.235   1.699  1.0637 -0.3987  0.9371
 4507TIP3    H234937   5.189   2.238   1.775 -0.4739 -0.0674 -1.6647
 4508TIP3   OH234938   4.622   5.868  11.807 -0.6109  0.4358 -1.1046
 4508TIP3    H134939   4.673   5.944  11.779 -1.0865  1.1523 -0.0410
 4508TIP3    H234940   4.650   5.798  11.748  2.4500  0.5140  0.2090
 4509TIP3   OH234941   3.909   6.514   6.737  0.1702 -0.5741 -0.2501
 4509TIP3    H134942   3.914   6.425   6.772 -1.8742  0.4160  2.7435
 4509TIP3    H234943   3.825   6.517   6.691 -0.3985  0.2047  0.8354
 4510TIP3   OH234944   4.370   4.924  13.119 -0.1237 -0.6776  0.1636
 4510TIP3    H134945   4.374   4.961  13.207  1.0784 -0.2578 -0.0686
 4510TIP3    H234946   4.456   4.886  13.104 -0.1293 -0.2262 -1.0590
 4511TIP3   OH234947   6.051   3.686  13.053 -0.1385 -0.4750 -0.0432
 4511TIP3    H134948   5.958   3.707  13.044  0.2951  0.3502 -2.8032
 4511TIP3    H234949   6.054   3.591  13.049 -1.0606 -0.6560  2.3871
 4512TIP3   OH234950   2.976   2.929   3.367 -0.2541 -0.5006 -0.3760
 4512TIP3    H134951   2.930   3.013   3.377 -0.1953 -0.3924 -0.9876
 4512TIP3    H234952   3.069   2.953   3.370 -0.2286 -0.7478  1.1039
 4513TIP3   OH234953   2.068   5.600  12.494  0.1732 -0.1659  0.3932
 4513TIP3    H134954   2.029   5.681  12.525 -2.5777 -1.1007 -0.5164
 4513TIP3    H234955   2.062   5.605  12.399  0.9319 -1.0045  0.2915
 4514TIP3   OH234956   0.286   1.096  13.718 -0.0412 -0.4067  0.3707
 4514TIP3    H134957   0.305   1.104  13.624  2.0072 -0.4206  0.7708
 4514TIP3    H234958   0.197   1.129  13.727 -0.0117  0.2444 -1.4850
 4515TIP3   OH234959   1.231   6.322  14.970  0.3672 -0.3754  0.0871
 4515TIP3    H134960   1.240   6.250  15.032 -1.5463  0.6820  1.6438
 4515TIP3    H234961   1.137   6.340  14.966  0.4680 -0.2184 -2.9143
 4516TIP3   OH234962   6.550   2.990   5.309  0.3850 -0.4024  0.2827
 4516TIP3    H134963   6.528   2.899   5.291  0.0437 -0.9409  3.1586
 4516TIP3    H234964   6.538   3.000   5.404  2.0266  2.1890  0.2902
 4517TIP3   OH234965   5.419   1.800   1.930  0.4368  0.2664 -0.2276
 4517TIP3    H134966   5.368   1.814   1.850  1.3327  0.3041 -0.7981
 4517TIP3    H234967   5.421   1.705   1.941  0.0442  0.2738 -0.0659
 4518TIP3   OH234968   5.406   2.818  17.214  0.4107  0.0162  0.5392
 4518TIP3    H134969   5.354   2.877  17.160  1.4327 -0.0509 -0.5501
 4518TIP3    H234970   5.421   2.741  17.159  2.9052  0.6524  0.2512
 4519TIP3   OH234971   5.189   3.258  15.508 -0.3030 -0.0546  0.2590
 4519TIP3    H134972   5.130   3.187  15.484 -1.0759  1.6336 -3.1394
 4519TIP3    H234973   5.244   3.271  15.431 -0.3299  3.1540  0.6893
 4520TIP3   OH234974   6.544   1.606   5.491 -0.0166  0.0945  0.4737
 4520TIP3    H134975   6.479   1.570   5.431  1.1468 -1.6239  0.1918
 4520TIP3    H234976   6.503   1.597   5.578  0.7853 -3.3722  0.5839
 4521TIP3   OH234977   2.464   3.097  13.845  0.1731 -0.0085 -0.6655
 4521TIP3    H134978   2.412   3.064  13.772 -0.7917  0.6506 -0.2882
 4521TIP3    H234979   2.437   3.189  13.854  0.9592  0.1743 -0.0732
 4522TIP3   OH234980   4.406   5.268   4.157 -0.1798  0.5111 -0.4097
 4522TIP3    H134981   4.455   5.264   4.076  0.9689 -0.9075  0.3244
 4522TIP3    H234982   4.455   5.329   4.213  2.2528 -2.8201  1.2423
 4523TIP3   OH234983   0.373   3.903  11.396  0.6549 -0.1484 -0.0446
 4523TIP3    H134984   0.425   3.963  11.450  0.9783 -0.2903 -0.1968
 4523TIP3    H234985   0.336   3.841  11.459 -0.8325  1.0374  0.2843
 4524TIP3   OH234986   0.791   0.960  11.931 -0.0598 -0.1452  0.1241
 4524TIP3    H134987   0.705   0.984  11.895 -0.8055 -2.8153  0.0128
 4524TIP3    H234988   0.811   1.030  11.993 -1.6293  1.2790 -0.9031
 4525TIP3   OH234989   2.275   6.302   0.447  0.0809 -0.3568  0.1455
 4525TIP3    H134990   2.276   6.275   0.538  1.0847  0.1804  0.3111
 4525TIP3    H234991   2.348   6.364   0.440 -0.5889  0.3495 -0.7901
 4526TIP3   OH234992   6.764   6.704   2.054  0.0213  0.0081  0.8834
 4526TIP3    H134993   6.776   6.799   2.046  0.2265 -0.0595  0.3871
 4526TIP3    H234994   6.775   6.671   1.965  1.2628 -0.6275  1.2605
 4527TIP3   OH234995   5.201   0.863   3.300  0.5907  0.2434  0.8713
 4527TIP3    H134996   5.135   0.828   3.359 -0.3929 -0.6220 -0.6825
 4527TIP3    H234997   5.161   0.941   3.262  0.2801 -0.4671 -0.3230
 4528TIP3   OH234998   2.289   1.498   3.235  0.8662 -0.1903  0.2069
 4528TIP3    H134999   2.215   1.460   3.281 -1.1800  0.7109 -2.1955
 4528TIP3    H235000   2.329   1.424   3.188  1.2462 -0.5975  1.1614
 4529TIP3   OH235001   5.773   3.098  15.651 -0.1987  0.2440 -0.1806
 4529TIP3    H135002   5.793   3.096  15.745 -0.1670 -2.5172 -0.1959
 4529TIP3    H235003   5.817   3.021  15.616 -1.6092  0.3166 -2.1746
 4530TIP3   OH235004   5.961   6.218  13.914  0.0173  0.4286 -0.3201
 4530TIP3    H135005   6.009   6.160  13.854 -3.4518 -2.6986 -0.2126
 4530TIP3    H235006   5.900   6.265  13.858 -1.4934 -0.6712  0.3580
 4531TIP3   OH235007   0.639   2.423  13.438 -1.0548  0.0510 -0.8679
 4531TIP3    H135008   0.546   2.435  13.417 -0.7710 -0.4722 -2.5463
 4531TIP3    H235009   0.667   2.508  13.471 -2.4598 -0.1875  0.9991
 4532TIP3   OH235010   5.392   5.180   1.322 -0.3485  0.0906 -0.3919
 4532TIP3    H135011   5.418   5.226   1.402  3.6452 -1.0869 -0.8987
 4532TIP3    H235012   5.312   5.133   1.346 -0.1683  1.0978  2.3719
 4533TIP3   OH235013   4.102   5.715   4.242 -0.2573  0.0812  0.4181
 4533TIP3    H135014   4.160   5.662   4.187  0.1072  0.5840  0.3133
 4533TIP3    H235015   4.093   5.797   4.194 -0.7217  0.1641  0.6430
 4534TIP3   OH235016   2.918   4.858   3.626 -0.2256  0.3926  0.4398
 4534TIP3    H135017   3.011   4.877   3.613 -0.3545  0.6479 -0.1035
 4534TIP3    H235018   2.901   4.881   3.717  0.7729 -1.7675  1.2156
 4535TIP3   OH235019   0.603   4.715   2.369 -0.1654 -0.1900  0.0962
 4535TIP3    H135020   0.685   4.703   2.417 -0.1170 -0.4619 -0.0536
 4535TIP3    H235021   0.611   4.802   2.330 -0.1248 -0.0454  0.4235
 4536TIP3   OH235022   6.657   3.813  12.219  0.7008  0.1872 -0.3573
 4536TIP3    H135023   6.729   3.794  12.279  1.6627 -0.4100 -1.6755
 4536TIP3    H235024   6.589   3.750  12.243  1.0270  0.0303  0.1682
 4537TIP3   OH235025   6.731   0.228   2.784 -0.5170 -0.4025 -0.4260
 4537TIP3    H135026   6.825   0.216   2.768 -0.2401  0.4650  0.5086
 4537TIP3    H235027   6.699   0.272   2.705 -0.4437 -2.0243 -1.3975
 4538TIP3   OH235028   2.237   4.486  12.206  0.1801 -0.3670 -0.1161
 4538TIP3    H135029   2.237   4.579  12.185  0.1340 -0.5041 -0.7423
 4538TIP3    H235030   2.183   4.446  12.138 -0.1374 -0.8022  0.3847
 4539TIP3   OH235031   1.412   0.827  16.524  0.1255  0.2782  0.3725
 4539TIP3    H135032   1.396   0.921  16.532 -2.6237 -0.0576 -0.6652
 4539TIP3    H235033   1.375   0.803  16.439 -0.3601 -1.9638  1.1805
 4540TIP3   OH235034   3.441   1.686  15.516  0.4108 -0.2685  0.8539
 4540TIP3    H135035   3.524   1.719  15.550  0.2687  0.4809  0.4896
 4540TIP3    H235036   3.417   1.748  15.447  1.7818 -2.9881 -2.1669
 4541TIP3   OH235037   0.229   0.063  13.680 -0.0647 -0.1017 -0.3592
 4541TIP3    H135038   0.141   0.026  13.683 -0.6298  1.3299  0.9512
 4541TIP3    H235039   0.272   0.015  13.608 -1.0975 -2.5332  0.5882
 4542TIP3   OH235040   3.434   4.302   1.022  0.0271  0.0888  0.0414
 4542TIP3    H135041   3.503   4.236   1.021 -0.1019 -0.0623  1.2655
 4542TIP3    H235042   3.443   4.346   0.937  1.3370 -0.2312  0.0001
 4543TIP3   OH235043   6.245   2.613  16.160  0.7437 -0.2610  0.1223
 4543TIP3    H135044   6.236   2.635  16.253  1.2509  0.2078  0.0663
 4543TIP3    H235045   6.246   2.518  16.157 -0.2523 -0.2848  0.4993
 4544TIP3   OH235046   1.721   1.121   2.975  0.1871 -0.4720 -0.3562
 4544TIP3    H135047   1.753   1.112   3.065  0.9187  0.3429 -0.5157
 4544TIP3    H235048   1.735   1.214   2.955 -2.9176  0.0705 -0.2185
 4545TIP3   OH235049   4.644   4.698   1.880 -0.0779  0.1535 -0.2860
 4545TIP3    H135050   4.674   4.615   1.842  0.5913  1.2840 -2.2848
 4545TIP3    H235051   4.661   4.689   1.973 -1.7331 -2.6922 -0.2071
 4546TIP3   OH235052   6.308   3.801   1.545 -0.0532 -0.0639 -0.1794
 4546TIP3    H135053   6.306   3.716   1.501  0.4039 -0.5890  0.7944
 4546TIP3    H235054   6.245   3.855   1.496 -0.0925 -0.8540 -1.0097
 4547TIP3   OH235055   0.341   0.871  12.839 -0.0719 -0.0606  0.3149
 4547TIP3    H135056   0.296   0.804  12.788 -0.7650 -0.5584  1.5476
 4547TIP3    H235057   0.276   0.899  12.904 -0.1013  2.4776 -0.7771
 4548TIP3   OH235058   6.783   5.671   5.086 -0.5405  0.2556 -0.5973
 4548TIP3    H135059   6.706   5.712   5.046  1.3921  1.5883 -3.1494
 4548TIP3    H235060   6.856   5.726   5.058  1.3958 -1.2519  1.3669
 4549TIP3   OH235061   3.690   0.023   0.645  0.0375 -0.3583 -0.9929
 4549TIP3    H135062   3.691  -0.072   0.656  0.1201 -0.0035  2.8041
 4549TIP3    H235063   3.601   0.049   0.667  0.1658  0.4896 -1.4619
 4550TIP3   OH235064   4.697   6.430  13.561 -0.2755 -0.1465  0.1709
 4550TIP3    H135065   4.781   6.476  13.567  0.6373 -1.7278 -0.1922
 4550TIP3    H235066   4.716   6.342  13.594 -1.6882 -0.6509 -0.3407
 4551TIP3   OH235067   0.050   5.281   6.031 -0.3177 -0.1093 -0.5625
 4551TIP3    H135068   0.029   5.189   6.014 -0.0558  0.0156 -1.6012
 4551TIP3    H235069  -0.033   5.327   6.019 -0.6002 -0.3050  0.6680
 4552TIP3   OH235070   0.769   3.211   3.711 -0.2001  0.3922  0.2710
 4552TIP3    H135071   0.822   3.254   3.778 -0.0567 -0.3511  0.6290
 4552TIP3    H235072   0.775   3.270   3.635  0.2746  0.8362  0.6494
 4553TIP3   OH235073   5.340   2.993  15.563 -0.1021  0.2421 -0.7141
 4553TIP3    H135074   5.330   3.007  15.469  1.2306  1.1920 -0.7270
 4553TIP3    H235075   5.397   2.917  15.570 -0.6140 -0.1423 -0.6612
 4554TIP3   OH235076   5.748   4.356  13.757  0.4867  0.5770 -0.0406
 4554TIP3    H135077   5.669   4.410  13.752 -0.2717 -0.5565 -0.4503
 4554TIP3    H235078   5.741   4.297  13.682  1.6717  0.4014 -0.0129
 4555TIP3   OH235079   1.703   4.665   2.766 -0.4866 -0.3134 -0.4399
 4555TIP3    H135080   1.640   4.622   2.707  0.7312 -1.4580 -0.9295
 4555TIP3    H235081   1.772   4.600   2.779 -0.9891 -0.3242  2.7222
 4556TIP3   OH235082   2.772   5.992  11.247 -0.4695 -0.0470  0.5575
 4556TIP3    H135083   2.732   5.926  11.191  0.1421  0.6594 -0.7206
 4556TIP3    H235084   2.865   5.989  11.225 -0.4579  1.3271  0.4040
 4557TIP3   OH235085   1.909   5.530  11.361  0.2678 -0.5389  0.2281
 4557TIP3    H135086   1.888   5.547  11.453 -0.4061 -2.2353  0.4038
 4557TIP3    H235087   1.973   5.598  11.338  0.1195  0.1613  1.8189
 4558TIP3   OH235088   4.745   1.941  11.040  0.0075 -0.5544  0.0844
 4558TIP3    H135089   4.665   1.991  11.025 -0.4129 -0.5013  2.3221
 4558TIP3    H235090   4.765   1.901  10.955 -2.5842 -0.8595 -0.4204
 4559TIP3   OH235091   1.382   5.694   0.179 -0.1191  0.0108  0.0545
 4559TIP3    H135092   1.362   5.750   0.254  0.9296  2.3388 -1.3573
 4559TIP3    H235093   1.420   5.753   0.114 -1.3365 -1.8665 -2.4817
 4560TIP3   OH235094   0.235   3.599  11.522 -0.1503 -0.3052 -0.4059
 4560TIP3    H135095   0.285   3.538  11.576  0.1086  0.1235 -0.1636
 4560TIP3    H235096   0.163   3.628  11.579 -1.5718 -2.0816 -1.2377
 4561TIP3   OH235097   3.551   5.361   4.527 -0.2145 -0.2775  0.1204
 4561TIP3    H135098   3.494   5.427   4.487 -0.4289 -0.0524  0.7774
 4561TIP3    H235099   3.565   5.295   4.459  1.0292  1.0780 -0.9754
 4562TIP3   OH235100   1.816   3.534   2.746  0.4791 -0.6006 -0.2303
 4562TIP3    H135101   1.872   3.553   2.671  0.6296 -2.2503 -0.5633
 4562TIP3    H235102   1.727   3.550   2.716  0.6814  0.9028 -0.0592
 4563TIP3   OH235103   3.597   2.994  10.498 -0.2561 -0.6541 -0.1364
 4563TIP3    H135104   3.526   2.950  10.452 -0.4679 -1.4903  0.9778
 4563TIP3    H235105   3.610   2.942  10.578  0.3582  0.5450  0.5612
 4564TIP3   OH235106   2.952   6.264   3.292  0.3487 -0.0458 -0.6631
 4564TIP3    H135107   2.932   6.199   3.224 -0.3490 -1.4484  0.8624
 4564TIP3    H235108   2.868   6.305   3.311  0.1393 -1.1419  0.8524
 4565TIP3   OH235109   5.519   1.357  14.755  0.4216 -0.3724  0.3603
 4565TIP3    H135110   5.499   1.319  14.840  1.3669 -0.3420  0.6061
 4565TIP3    H235111   5.548   1.447  14.775  1.1936 -0.5484  0.0726
 4566TIP3   OH235112   4.557   4.253  14.023 -0.5476 -0.0453  0.3961
 4566TIP3    H135113   4.469   4.244  13.985 -1.2763  1.1431  1.7823
 4566TIP3    H235114   4.601   4.316  13.966 -0.8457 -0.0339  0.1727
 4567TIP3   OH235115   5.400   4.235   2.309  0.1155  0.7379  0.5974
 4567TIP3    H135116   5.442   4.168   2.255 -1.6682  0.6990 -0.8019
 4567TIP3    H235117   5.371   4.187   2.387 -1.9595 -0.3787 -0.8042
 4568TIP3   OH235118   4.053   5.351  15.978  0.3244  0.1499 -0.2885
 4568TIP3    H135119   4.130   5.407  15.976  0.2469  0.3757  1.9153
 4568TIP3    H235120   4.006   5.376  16.058 -2.0074 -0.0457 -1.5354
 4569TIP3   OH235121   4.093   6.461   2.400  0.1689 -0.5389 -0.3860
 4569TIP3    H135122   4.112   6.476   2.307  1.5920 -0.0182 -0.0180
 4569TIP3    H235123   4.033   6.386   2.400 -3.0438  1.9278 -1.9350
 4570TIP3   OH235124   2.937   1.053  13.983 -0.1852 -0.1668 -0.2595
 4570TIP3    H135125   2.873   1.124  13.975  0.5237  0.4616 -0.4886
 4570TIP3    H235126   3.022   1.096  13.969  0.5662 -0.4237  3.0335
 4571TIP3   OH235127   1.822   1.103  13.179 -0.1319 -0.3616 -0.1095
 4571TIP3    H135128   1.783   1.057  13.105  1.9343  0.3045 -1.6619
 4571TIP3    H235129   1.777   1.188  13.181 -1.6568 -1.1729  0.7308
 4572TIP3   OH235130   4.454   3.995  13.721 -0.2175 -0.2864  0.1268
 4572TIP3    H135131   4.455   3.916  13.775  0.1726  0.4434  1.2015
 4572TIP3    H235132   4.387   4.051  13.760 -1.5626 -0.6767 -1.5305
 4573TIP3   OH235133   1.180   2.424   2.220  0.5286 -0.2705  0.6172
 4573TIP3    H135134   1.127   2.425   2.299  0.9261 -0.2088  0.8852
 4573TIP3    H235135   1.262   2.383   2.246  0.8984  0.3150  0.3940
 4574TIP3   OH235136   6.155   3.928   1.795  0.6654  0.2780  0.0479
 4574TIP3    H135137   6.214   3.974   1.736 -0.6038  2.9995  0.7960
 4574TIP3    H235138   6.069   3.932   1.753  0.3996 -0.8222  0.4548
 4575TIP3   OH235139   5.957   1.535  15.570  0.1713  0.1937  0.4453
 4575TIP3    H135140   5.972   1.449  15.531 -2.1946  0.2038 -0.5421
 4575TIP3    H235141   5.996   1.529  15.657  0.3973 -1.7377  0.2321
 4576TIP3   OH235142   4.824   3.362  15.814  0.1315 -0.1914 -0.0184
 4576TIP3    H135143   4.907   3.356  15.860  0.0828  1.9331  0.3874
 4576TIP3    H235144   4.764   3.401  15.877 -1.2656 -1.8776 -0.2399
 4577TIP3   OH235145   5.752   2.110  14.470 -0.4128  0.0003 -0.1768
 4577TIP3    H135146   5.730   2.194  14.511 -3.8460 -0.3083 -1.2534
 4577TIP3    H235147   5.712   2.044  14.527  1.3379 -0.8669  0.0747
 4578TIP3   OH235148   5.124   2.469   1.215  0.2405  0.0179 -0.2568
 4578TIP3    H135149   5.063   2.539   1.240 -0.7330 -0.6063 -0.8282
 4578TIP3    H235150   5.169   2.503   1.138 -2.3898 -1.1088 -2.4053
 4579TIP3   OH235151   6.481   4.115  13.084  0.8450 -0.4677 -0.3380
 4579TIP3    H135152   6.391   4.088  13.103  0.6556  1.1276  1.1788
 4579TIP3    H235153   6.473   4.179  13.014  0.6437  0.7864  0.8157
 4580TIP3   OH235154   2.612   3.703  12.784  0.6258  0.4628 -0.3205
 4580TIP3    H135155   2.533   3.674  12.828  0.5661 -1.0308 -1.3808
 4580TIP3    H235156   2.681   3.693  12.849  0.1874  0.3440  0.1295
 4581TIP3   OH235157   3.673   3.801   2.102  0.1676  0.8306  0.0232
 4581TIP3    H135158   3.663   3.742   2.177 -0.3010  0.0874 -0.6129
 4581TIP3    H235159   3.596   3.783   2.047  0.2004  1.7907 -0.3504
 4582TIP3   OH235160   4.387   1.246  16.813  0.6044  0.6011 -0.1432
 4582TIP3    H135161   4.384   1.151  16.802  1.6414  0.4776  0.5566
 4582TIP3    H235162   4.413   1.259  16.904 -1.2383  1.5631  0.2700
 4583TIP3   OH235163   6.708   4.267  14.767 -0.2456 -0.3039 -0.0732
 4583TIP3    H135164   6.772   4.336  14.780 -1.3179  0.3236  2.0859
 4583TIP3    H235165   6.753   4.187  14.794 -0.0554 -0.0054  0.4900
 4584TIP3   OH235166   1.258   5.029   2.566 -0.0145 -0.2612  0.3146
 4584TIP3    H135167   1.235   4.958   2.506  1.3675 -0.0176 -0.5198
 4584TIP3    H235168   1.202   5.014   2.643 -2.4880 -0.0303 -1.3645
 4585TIP3   OH235169   1.069   0.458   5.596  0.3159 -0.3261 -0.1135
 4585TIP3    H135170   1.007   0.400   5.640  1.2028 -0.4808  0.9484
 4585TIP3    H235171   1.152   0.410   5.596  0.6369  0.2119 -0.8073
 4586TIP3   OH235172   4.074   3.193  14.718  0.5094 -0.9501  0.7284
 4586TIP3    H135173   3.983   3.214  14.695  0.4945  1.2788  2.5652
 4586TIP3    H235174   4.073   3.099  14.736 -0.9084 -1.4182 -1.4860
 4587TIP3   OH235175   4.634   5.861  11.484  0.5262 -0.5587  0.0578
 4587TIP3    H135176   4.594   5.775  11.477 -0.8336  0.1361 -0.9596
 4587TIP3    H235177   4.585   5.916  11.422  0.9103  1.1218  1.1996
 4588TIP3   OH235178   4.857   6.113   2.908  0.3992 -0.1671  0.1918
 4588TIP3    H135179   4.905   6.076   2.982  1.5455 -0.2271 -0.5658
 4588TIP3    H235180   4.765   6.114   2.937  0.9166  0.5268  1.8969
 4589TIP3   OH235181   5.233   2.794   1.090  0.0501  0.5272  0.1602
 4589TIP3    H135182   5.213   2.774   1.182 -0.7106  0.6476  0.0271
 4589TIP3    H235183   5.282   2.876   1.093  3.0837 -1.2087  0.7056
 4590TIP3   OH235184   3.093   1.327   2.390 -0.1074 -0.0091 -0.2431
 4590TIP3    H135185   3.183   1.324   2.359  0.0275 -0.5294  0.1939
 4590TIP3    H235186   3.041   1.302   2.314  0.2751 -2.1209  0.1645
 4591TIP3   OH235187   3.394   3.991  13.112  0.2211  0.7471 -0.2206
 4591TIP3    H135188   3.355   3.904  13.108  0.2319  0.8403 -4.5048
 4591TIP3    H235189   3.479   3.978  13.153  0.0307 -1.1888 -0.3963
 4592TIP3   OH235190   6.436   2.755  17.020 -0.2220 -0.5264  0.5741
 4592TIP3    H135191   6.480   2.670  17.012 -0.4322 -0.5175 -0.7150
 4592TIP3    H235192   6.490   2.815  16.968 -1.1610 -0.2838 -0.1269
 4593TIP3   OH235193   5.076   0.984   5.555 -0.0086  0.2685  0.1866
 4593TIP3    H135194   5.066   0.906   5.610  1.9537  0.4645  0.8450
 4593TIP3    H235195   5.113   0.951   5.473 -1.0656  0.2542 -0.3002
 4594TIP3   OH235196   4.663   6.573  14.981 -0.0257 -0.1371  0.3850
 4594TIP3    H135197   4.595   6.641  14.975 -0.5894 -0.8061 -1.1534
 4594TIP3    H235198   4.668   6.553  15.074 -1.4734  0.4128  0.6071
 4595TIP3   OH235199   4.017   3.003   2.953 -0.4759 -0.8073 -0.8521
 4595TIP3    H135200   4.003   3.001   3.047  0.9678  0.6439 -0.5815
 4595TIP3    H235201   3.930   3.017   2.916 -0.7121  1.2077  0.4037
 4596TIP3   OH235202   5.605   5.394   3.267  0.2862  0.4705 -0.0983
 4596TIP3    H135203   5.572   5.425   3.183  0.5900  1.2901  0.0826
 4596TIP3    H235204   5.628   5.474   3.316  1.3160 -0.0288  0.2640
 4597TIP3   OH235205   6.738   4.025  13.868 -0.4412 -0.2496 -1.2808
 4597TIP3    H135206   6.810   4.076  13.832 -0.1229  0.6320  0.5138
 4597TIP3    H235207   6.775   3.982  13.945 -0.9981 -2.3483 -2.1430
 4598TIP3   OH235208   6.649   5.916   1.870  0.2555  0.2733  0.1684
 4598TIP3    H135209   6.605   5.998   1.895  0.5114 -0.4253  3.0717
 4598TIP3    H235210   6.595   5.881   1.800 -0.4386  2.4193 -0.4142
 4599TIP3   OH235211   6.144   0.894  14.007  0.3462  0.1066 -0.0933
 4599TIP3    H135212   6.167   0.804  14.030  1.0300 -0.3698 -2.4523
 4599TIP3    H235213   6.227   0.941  14.010  0.1513  0.4348  0.1564
 4600TIP3   OH235214   2.116   5.900   3.696 -0.6290  0.1311  0.2817
 4600TIP3    H135215   2.159   5.856   3.623 -0.5691  0.3196  0.2028
 4600TIP3    H235216   2.093   5.987   3.662  0.1505  0.5233  0.7470
 4601TIP3   OH235217   3.298   4.386   4.182 -0.1420  0.3555  0.6632
 4601TIP3    H135218   3.224   4.441   4.210 -0.1937  0.1584  0.9238
 4601TIP3    H235219   3.375   4.428   4.221 -0.4170 -0.9688  2.6963
 4602TIP3   OH235220   3.409   1.092   0.148  0.4546 -0.2498 -0.1833
 4602TIP3    H135221   3.407   1.090   0.052 -1.3468 -1.3562 -0.1380
 4602TIP3    H235222   3.498   1.067   0.171  0.8120 -0.2698 -1.5734
 4603TIP3   OH235223   1.893   0.276  10.932  0.2072  0.4342  0.9096
 4603TIP3    H135224   1.853   0.189  10.939  0.3206  0.3460  0.5191
 4603TIP3    H235225   1.962   0.277  10.998  2.4178 -1.0074 -1.2958
 4604TIP3   OH235226   3.811   3.369   3.656 -0.3609  0.6459 -0.0152
 4604TIP3    H135227   3.726   3.390   3.617 -0.2688 -0.2606 -0.7244
 4604TIP3    H235228   3.866   3.444   3.634 -0.9591  1.2143  0.3987
 4605TIP3   OH235229   5.441   4.976   1.643 -0.3272 -0.1436 -0.1407
 4605TIP3    H135230   5.472   5.062   1.670  0.1860 -1.0666  2.3968
 4605TIP3    H235231   5.452   4.975   1.548  0.0797  2.4052 -0.1634
 4606TIP3   OH235232   0.413   2.951   0.210  0.8662  0.3448 -0.2581
 4606TIP3    H135233   0.346   2.891   0.243 -1.0706  2.6265  0.1298
 4606TIP3    H235234   0.464   2.976   0.288  0.4827  0.6217 -0.0916
 4607TIP3   OH235235   3.768   1.320   5.344 -0.2032 -0.2892 -0.2984
 4607TIP3    H135236   3.833   1.389   5.355 -1.7748  1.2162 -0.3401
 4607TIP3    H235237   3.776   1.267   5.423  0.1790  0.6507  0.3035
 4608TIP3   OH235238   4.753   1.981  13.214 -0.1122  0.0173 -0.4859
 4608TIP3    H135239   4.715   1.926  13.283  2.1188 -0.5312  0.3506
 4608TIP3    H235240   4.737   2.070  13.244 -1.7155 -0.1917 -0.6984
 4609TIP3   OH235241   3.473   0.049  13.158 -0.0924  0.7534  0.0204
 4609TIP3    H135242   3.474   0.113  13.087 -0.8978  0.3262 -0.3909
 4609TIP3    H235243   3.460  -0.035  13.113 -2.2959  0.6482  0.7812
 4610TIP3   OH235244   5.266   4.087   3.703 -0.1972  0.5283  0.5305
 4610TIP3    H135245   5.358   4.105   3.684 -0.6531  2.0145 -0.3346
 4610TIP3    H235246   5.227   4.172   3.722 -1.8067  0.1897 -0.9956
 4611TIP3   OH235247   0.807   0.762   4.890 -0.0508  0.0298  0.5818
 4611TIP3    H135248   0.888   0.718   4.866 -0.1058  0.9310 -1.3762
 4611TIP3    H235249   0.741   0.693   4.888  0.7204 -0.8178  2.7203
 4612TIP3   OH235250   0.031   0.961  17.099  0.7669  0.4073  0.4196
 4612TIP3    H135251   0.106   0.922  17.144  1.0228  0.6782  0.2349
 4612TIP3    H235252  -0.027   0.888  17.081  0.9794  0.1972  0.5807
 4613TIP3   OH235253   3.348   4.358   2.823  0.1102 -0.3929 -0.3749
 4613TIP3    H135254   3.343   4.406   2.740 -0.3727 -1.3458 -0.9004
 4613TIP3    H235255   3.257   4.343   2.848  0.0896  4.1653  2.8662
 4614TIP3   OH235256   5.950   4.485  15.404  0.2201  0.6482  0.3003
 4614TIP3    H135257   5.995   4.505  15.486  0.1852 -1.1615  0.7789
 4614TIP3    H235258   6.018   4.445  15.349 -0.4089 -0.6209  0.4436
 4615TIP3   OH235259   4.438   4.607   4.500 -0.3731 -0.1503  0.4649
 4615TIP3    H135260   4.529   4.636   4.492 -0.9139  1.7818  1.0318
 4615TIP3    H235261   4.387   4.689   4.505 -2.0762 -1.2062  0.7794
 4616TIP3   OH235262   6.681   4.798  11.660  0.3211  0.2223  0.5390
 4616TIP3    H135263   6.634   4.715  11.653  0.7694  0.0286 -0.2748
 4616TIP3    H235264   6.772   4.772  11.676  0.9961  0.4637 -2.6066
 4617TIP3   OH235265   5.690   3.060   3.509  0.3028  0.1715 -0.3598
 4617TIP3    H135266   5.683   3.142   3.459  1.0795  0.0965 -0.5974
 4617TIP3    H235267   5.781   3.057   3.537 -0.4676  0.9263  2.3064
 4618TIP3   OH235268   3.119   2.327  11.298 -0.1692  0.6573  0.2927
 4618TIP3    H135269   3.214   2.339  11.300  0.0147 -0.7240  1.2346
 4618TIP3    H235270   3.102   2.262  11.367 -1.8108  0.9973  0.2312
 4619TIP3   OH235271   4.949   6.408  15.951 -0.2164 -0.2685  0.3800
 4619TIP3    H135272   4.943   6.368  16.037  2.9073 -1.8092 -0.0393
 4619TIP3    H235273   5.038   6.442  15.946 -0.4670  0.1445 -2.0868
 4620TIP3   OH235274   3.756   1.925  17.067  0.2014 -0.1940  0.6565
 4620TIP3    H135275   3.772   1.998  17.007  0.9019  0.1691  1.2727
 4620TIP3    H235276   3.826   1.863  17.049 -0.3261 -0.6733  0.2140
 4621TIP3   OH235277   1.605   0.522   5.569  0.4253  0.3111  0.1668
 4621TIP3    H135278   1.515   0.525   5.538 -0.4804  1.9647  2.7507
 4621TIP3    H235279   1.603   0.460   5.642  1.5101 -0.0887 -0.1289
 4622TIP3   OH235280   2.018   1.474   5.431 -0.1008 -0.1803  0.1043
 4622TIP3    H135281   2.105   1.457   5.396 -0.4062 -0.0665 -0.7456
 4622TIP3    H235282   2.033   1.502   5.521  0.7983  0.5152 -0.2489
 4623TIP3   OH235283   6.556   2.540  14.531  0.4412  0.5540  0.7562
 4623TIP3    H135284   6.521   2.502  14.611  1.2023 -0.3286  0.6748
 4623TIP3    H235285   6.631   2.485  14.509  0.5426  1.0962 -0.2819
 4624TIP3   OH235286   2.785   4.330   5.111 -0.3308 -0.2218 -0.0455
 4624TIP3    H135287   2.832   4.292   5.185  1.0059 -0.2666 -0.8955
 4624TIP3    H235288   2.698   4.348   5.144 -0.4583 -2.4035  0.8989
 4625TIP3   OH235289   1.545   5.156   6.148  0.0915  0.1165  0.2151
 4625TIP3    H135290   1.630   5.123   6.118  0.7376  2.2762 -0.3862
 4625TIP3    H235291   1.565   5.201   6.230 -0.2291  1.8368 -0.6362
 4626TIP3   OH235292   3.780   4.178  11.983 -0.3877 -0.2654  0.4350
 4626TIP3    H135293   3.691   4.191  11.952 -0.1416  1.0703  0.2373
 4626TIP3    H235294   3.835   4.214  11.913  0.3392 -1.7667  0.2103
 4627TIP3   OH235295   1.106   0.459  15.892 -0.7052  0.0232 -0.1186
 4627TIP3    H135296   1.177   0.487  15.949  0.3968 -0.8314 -1.0544
 4627TIP3    H235297   1.068   0.541  15.858 -0.8417  0.5033  1.1794
 4628TIP3   OH235298   3.192   3.016  11.174  0.5605 -0.0336  0.4490
 4628TIP3    H135299   3.264   2.954  11.179 -0.4492 -1.2977 -0.3654
 4628TIP3    H235300   3.213   3.071  11.098 -0.2685 -1.6361 -0.9722
 4629TIP3   OH235301   2.437   2.433  13.624 -0.5898 -0.1871 -0.4726
 4629TIP3    H135302   2.352   2.438  13.580  0.5040 -1.3896 -2.8044
 4629TIP3    H235303   2.437   2.349  13.668 -0.2110 -0.6458 -1.3413
 4630TIP3   OH235304   1.957   0.833   1.821  0.3098  0.4941  0.3915
 4630TIP3    H135305   1.870   0.838   1.859  0.7431  0.3125  1.4400
 4630TIP3    H235306   1.984   0.924   1.809 -0.1081  0.5483 -0.1387
 4631TIP3   OH235307   3.206   4.008   4.035  0.1289 -0.5457 -0.1149
 4631TIP3    H135308   3.237   3.918   4.032  1.1421 -0.1722 -1.4004
 4631TIP3    H235309   3.271   4.054   4.088  1.3806  0.0801 -2.1637
 4632TIP3   OH235310   5.422   5.399  12.443  0.0808 -0.5437 -0.2722
 4632TIP3    H135311   5.483   5.378  12.514 -0.8599 -1.7452  0.1975
 4632TIP3    H235312   5.447   5.487  12.415  2.2097 -1.1297 -0.2808
 4633TIP3   OH235313   0.814   3.661   6.403 -0.5252  0.3051  0.5871
 4633TIP3    H135314   0.806   3.757   6.401 -1.5879  0.1846 -0.7572
 4633TIP3    H235315   0.909   3.646   6.405 -0.3376  1.3717  0.2142
 4634TIP3   OH235316   3.187   3.327   0.346  0.2384  0.4938 -0.0237
 4634TIP3    H135317   3.251   3.391   0.375  0.8175 -0.0318 -0.1412
 4634TIP3    H235318   3.141   3.300   0.425  1.8145 -0.9422  0.4322
 4635TIP3   OH235319   3.113   0.323   2.394 -0.6003  0.0380  0.1683
 4635TIP3    H135320   3.108   0.403   2.341  0.9265 -0.5736 -0.9629
 4635TIP3    H235321   3.179   0.343   2.461  0.2591 -0.4646 -0.5096
 4636TIP3   OH235322   1.315   0.236  15.342  0.2258 -0.2706 -0.1842
 4636TIP3    H135323   1.332   0.313  15.288 -0.3503 -0.7429 -1.0540
 4636TIP3    H235324   1.390   0.178  15.327 -0.0165 -0.4773 -0.6373
 4637TIP3   OH235325   5.989   2.857  13.337  0.1322 -0.1339 -0.4636
 4637TIP3    H135326   5.903   2.897  13.327 -0.0661 -0.3466  0.3436
 4637TIP3    H235327   6.025   2.854  13.249 -0.4058  0.5854 -0.7106
 4638TIP3   OH235328   3.171   5.004  15.878  0.0172 -0.0217  0.4687
 4638TIP3    H135329   3.264   5.024  15.878 -0.0946  0.5469 -0.6078
 4638TIP3    H235330   3.156   4.956  15.959  1.2529 -0.1467  0.6214
 4639TIP3   OH235331   5.258   4.797  15.829 -0.1541 -0.0722  0.2698
 4639TIP3    H135332   5.308   4.859  15.776 -0.5309 -0.5275 -0.6231
 4639TIP3    H235333   5.237   4.725  15.770  0.3307 -1.0960  1.3065
 4640TIP3   OH235334   3.997   6.135   1.767 -0.4633  0.3424 -0.2248
 4640TIP3    H135335   3.966   6.221   1.737  0.5092  0.8288  0.1648
 4640TIP3    H235336   3.919   6.093   1.803 -1.0440  0.8767 -0.8500
 4641TIP3   OH235337   6.489   1.919  14.681  0.0792 -0.1639  0.0693
 4641TIP3    H135338   6.549   1.879  14.742  0.0375  3.1100  2.3878
 4641TIP3    H235339   6.402   1.889  14.709  0.3649 -2.8085 -1.6824
 4642TIP3   OH235340   5.287   5.384   5.637 -0.3864 -0.1014 -0.1153
 4642TIP3    H135341   5.304   5.319   5.568 -1.4820 -0.3771 -0.1275
 4642TIP3    H235342   5.353   5.366   5.703 -0.8561 -1.4275  0.0133
 4643TIP3   OH235343   3.520   3.397  14.503  0.7612  0.0830 -0.0910
 4643TIP3    H135344   3.479   3.418  14.588  4.0364 -0.4820  1.7103
 4643TIP3    H235345   3.575   3.472  14.484  1.6035 -0.6826 -0.6954
 4644TIP3   OH235346   1.512   5.953  16.207 -0.5276 -0.1179 -0.5981
 4644TIP3    H135347   1.599   5.991  16.196  0.1327 -1.3128  0.4394
 4644TIP3    H235348   1.512   5.918  16.296 -2.2923  0.4454 -0.3578
 4645TIP3   OH235349   6.771   3.629  14.596 -0.5205  0.4204  0.0892
 4645TIP3    H135350   6.815   3.558  14.551 -1.7173  0.8402 -1.8176
 4645TIP3    H235351   6.697   3.587  14.641  0.1995  0.1232  1.0155
 4646TIP3   OH235352   4.644   2.054   6.140 -0.5125  0.1784  0.3510
 4646TIP3    H135353   4.629   2.045   6.234  0.4442  1.9954  0.6984
 4646TIP3    H235354   4.669   2.146   6.128 -1.1602  0.1117 -1.7554
 4647TIP3   OH235355   0.308   6.325  14.662  0.6340 -0.2691 -0.0578
 4647TIP3    H135356   0.327   6.364  14.747  0.4861  0.6803 -0.4597
 4647TIP3    H235357   0.264   6.394  14.613 -2.1913 -1.8202  0.1990
 4648TIP3   OH235358   5.197   6.089   3.039 -0.2510  0.8667 -0.0878
 4648TIP3    H135359   5.135   6.019   3.060 -0.2895  0.4065 -1.6523
 4648TIP3    H235360   5.281   6.058   3.073 -0.1127 -0.3203 -1.4592
 4649TIP3   OH235361   6.020   1.684  10.965 -0.3158  0.5295  0.8454
 4649TIP3    H135362   6.064   1.599  10.976  0.8934  1.3354  2.4153
 4649TIP3    H235363   5.928   1.667  10.985 -0.2283 -0.5795  0.3443
 4650TIP3   OH235364   2.090   2.727   0.155  0.5088 -0.2544 -0.5179
 4650TIP3    H135365   2.174   2.700   0.117  0.3096 -2.9761  0.8400
 4650TIP3    H235366   2.107   2.731   0.249 -0.5565  0.4439 -0.3519
 4651TIP3   OH235367   3.401   5.450   5.002 -0.8839  0.2690 -0.1236
 4651TIP3    H135368   3.315   5.424   5.035 -2.2518  1.7778 -2.3830
 4651TIP3    H235369   3.409   5.405   4.918  0.5978  0.0484  0.1221
 4652TIP3   OH235370   5.414   3.457   0.055  1.0589  0.0608 -0.6358
 4652TIP3    H135371   5.420   3.453   0.151  1.5809 -1.9650 -0.7480
 4652TIP3    H235372   5.320   3.462   0.038  0.8979 -0.9768 -0.0711
 4653TIP3   OH235373   0.766   3.924   2.805  0.7844  0.0692  0.3038
 4653TIP3    H135374   0.739   3.944   2.895  1.7796  0.5450  0.5082
 4653TIP3    H235375   0.693   3.876   2.768  0.5979 -0.6235  1.5497
 4654TIP3   OH235376   4.764   1.744  15.249  0.4750 -0.2683 -0.1934
 4654TIP3    H135377   4.738   1.830  15.282  0.3118 -1.0822  1.8908
 4654TIP3    H235378   4.707   1.728  15.174  0.6877  1.5407 -0.7550
 4655TIP3   OH235379   3.161   2.876  12.522 -0.3311  0.1172  0.4881
 4655TIP3    H135380   3.168   2.935  12.597 -1.1319  0.5922  0.2028
 4655TIP3    H235381   3.108   2.925  12.459  0.6083 -0.1397 -0.5180
 4656TIP3   OH235382   1.365   4.577   6.723  0.0495 -0.4675  0.2060
 4656TIP3    H135383   1.376   4.568   6.628 -0.0010 -1.4179  0.2822
 4656TIP3    H235384   1.314   4.657   6.734 -0.7534 -0.8598 -0.6122
 4657TIP3   OH235385   4.534   0.543   2.137 -0.6602 -0.5415 -1.1589
 4657TIP3    H135386   4.484   0.474   2.181 -0.4808  0.1362  0.1561
 4657TIP3    H235387   4.615   0.500   2.110  0.3232 -0.4218  1.4226
 4658TIP3   OH235388   4.489   3.743  14.780  0.5282 -0.4918 -0.0583
 4658TIP3    H135389   4.494   3.834  14.809  1.6260 -0.4339 -0.4141
 4658TIP3    H235390   4.580   3.716  14.768  0.1804 -1.3139 -0.9509
 4659TIP3   OH235391   5.482   4.318  11.608 -0.4958 -0.6859  0.0689
 4659TIP3    H135392   5.425   4.340  11.535 -0.3023 -1.5441 -0.3400
 4659TIP3    H235393   5.570   4.319  11.572 -0.3547 -0.5799  0.4134
 4660TIP3   OH235394   1.396   0.284  14.961  0.1248  0.3329  0.1615
 4660TIP3    H135395   1.427   0.321  15.044  0.3388 -1.0583  0.7057
 4660TIP3    H235396   1.472   0.288  14.903 -0.6895  3.6258 -0.7905
 4661TIP3   OH235397   1.055   2.355   4.341 -0.1995  0.4825 -0.4649
 4661TIP3    H135398   1.037   2.448   4.333  1.1038  0.6571 -1.6684
 4661TIP3    H235399   1.148   2.347   4.320 -0.1984 -1.0401  0.0456
 4662TIP3   OH235400   1.325   5.849   2.987  0.6409 -0.6837  0.2427
 4662TIP3    H135401   1.303   5.769   2.940  1.9359 -0.9018 -0.0095
 4662TIP3    H235402   1.277   5.842   3.069 -1.5416 -0.3568 -0.9652
 4663TIP3   OH235403   0.287   3.818  12.911  0.2077 -0.3877  0.3895
 4663TIP3    H135404   0.339   3.870  12.973  0.2946  1.5862 -1.2743
 4663TIP3    H235405   0.348   3.799  12.839 -1.2686  1.9567 -1.5822
 4664TIP3   OH235406   3.023   3.903  14.270 -0.0225  0.2649  0.2859
 4664TIP3    H135407   3.066   3.972  14.219 -0.0039 -0.1864 -0.3194
 4664TIP3    H235408   2.967   3.949  14.332  1.0096  0.8592  0.7974
 4665TIP3   OH235409   5.312   0.173  12.336 -0.3551  0.2077 -0.3497
 4665TIP3    H135410   5.314   0.160  12.241 -2.3180  1.6318 -0.5963
 4665TIP3    H235411   5.236   0.228  12.352 -1.4394 -1.9293  2.2938
 4666TIP3   OH235412   1.026   5.804  17.216 -0.4869 -0.3065 -0.4933
 4666TIP3    H135413   0.980   5.777  17.136 -0.4229 -0.5289 -0.4597
 4666TIP3    H235414   1.025   5.899  17.213 -2.2851 -0.2754  0.2667
 4667TIP3   OH235415   5.956   2.167  12.912 -0.4785 -0.0084  0.1923
 4667TIP3    H135416   5.865   2.180  12.885 -0.9760 -1.0436  1.3198
 4667TIP3    H235417   5.952   2.098  12.978  1.0189  0.5899  0.9388
 4668TIP3   OH235418   4.939   6.240   3.254  0.3027  0.4888 -0.6383
 4668TIP3    H135419   4.994   6.314   3.281  0.7185 -0.9425  2.6695
 4668TIP3    H235420   4.878   6.277   3.191  1.2407  3.4180  0.1092
 4669TIP3   OH235421   2.194   2.547   5.526  0.3914 -0.0212 -0.3172
 4669TIP3    H135422   2.265   2.594   5.483 -0.1810  1.1221 -0.0358
 4669TIP3    H235423   2.222   2.455   5.525  2.0422  0.4636  0.1499
 4670TIP3   OH235424   1.429   2.608  13.728  0.5567 -0.4666  0.8388
 4670TIP3    H135425   1.506   2.626  13.782  0.8552  1.1184 -0.1142
 4670TIP3    H235426   1.369   2.680  13.746 -0.0042 -0.7793  0.2479
 4671TIP3   OH235427   0.966   6.074  17.159 -0.2352 -0.0535  0.1736
 4671TIP3    H135428   0.988   6.140  17.094  0.5823 -1.7957 -1.3374
 4671TIP3    H235429   0.871   6.083  17.170 -0.3974  0.2042 -1.3145
 4672TIP3   OH235430   3.165   5.304  16.189 -0.5459 -0.6111 -0.1812
 4672TIP3    H135431   3.144   5.389  16.227 -0.9131 -0.7751 -0.0178
 4672TIP3    H235432   3.160   5.243  16.262  0.2655 -0.6905 -0.1807
 4673TIP3   OH235433   0.623   5.724  12.349  0.1999  0.2513  0.0924
 4673TIP3    H135434   0.681   5.700  12.277  1.3091  0.1254  1.0338
 4673TIP3    H235435   0.556   5.779  12.307 -0.4306 -1.6225 -1.4418
 4674TIP3   OH235436   2.780   2.263  14.075  0.5687  0.2093 -0.0336
 4674TIP3    H135437   2.778   2.353  14.042  1.2923  0.5221  0.7532
 4674TIP3    H235438   2.745   2.210  14.003 -0.3398  1.1747 -0.3192
 4675TIP3   OH235439   5.536   4.365  13.502  0.4005 -0.7141  0.2113
 4675TIP3    H135440   5.533   4.273  13.530 -0.1350 -1.3304 -1.7848
 4675TIP3    H235441   5.622   4.374  13.460  0.7622 -0.0972  1.0904
 4676TIP3   OH235442   6.163   6.107  12.271  0.3369 -0.0924 -0.5142
 4676TIP3    H135443   6.247   6.075  12.240  0.3408 -0.6429  0.0433
 4676TIP3    H235444   6.114   6.028  12.294 -0.9758  0.1154 -2.4129
 4677TIP3   OH235445   6.363   4.076  15.777 -0.3139 -0.2541  0.4320
 4677TIP3    H135446   6.299   4.059  15.708  0.8758  0.7843 -0.9330
 4677TIP3    H235447   6.400   4.161  15.756  0.1825  0.0164  2.2757
 4678TIP3   OH235448   3.922   2.806  15.598  0.0426 -0.2217 -0.3040
 4678TIP3    H135449   3.906   2.867  15.670 -0.4869  0.5038 -1.0349
 4678TIP3    H235450   3.955   2.727  15.641 -0.8555 -0.0134  0.7896
 4679TIP3   OH235451   2.210   2.257  15.679 -0.1116  0.5445  0.1761
 4679TIP3    H135452   2.260   2.299  15.749 -0.8131  1.4503  0.1353
 4679TIP3    H235453   2.246   2.294  15.598  0.6508 -0.4485  0.0515
 4680TIP3   OH235454   1.982   6.276   1.431 -0.6021  0.1007 -0.3437
 4680TIP3    H135455   1.939   6.301   1.350  0.3804  1.2873 -0.5079
 4680TIP3    H235456   2.061   6.229   1.403 -1.3945 -1.4414 -0.0497
 4681TIP3   OH235457   1.382   1.373   1.427  0.3016  0.0337 -0.0109
 4681TIP3    H135458   1.389   1.327   1.343  0.0148  0.2370 -0.1475
 4681TIP3    H235459   1.291   1.402   1.431  0.3703  0.2149  0.2729
 4682TIP3   OH235460   3.153   6.080   2.070 -0.4276  0.2790  0.0800
 4682TIP3    H135461   3.233   6.106   2.115  0.6626 -0.6946 -1.2373
 4682TIP3    H235462   3.162   6.118   1.982 -0.3989 -1.6020 -0.7598
 4683TIP3   OH235463   3.198   6.601   0.180  0.1219  0.3378  0.6571
 4683TIP3    H135464   3.274   6.588   0.124 -0.8140 -1.4426 -0.1981
 4683TIP3    H235465   3.235   6.634   0.262  2.0757 -2.7470  1.0819
 4684TIP3   OH235466   1.338   5.333   3.082 -0.4193 -0.2333 -0.0988
 4684TIP3    H135467   1.315   5.331   2.989  1.0654 -0.9298 -0.4640
 4684TIP3    H235468   1.373   5.246   3.100 -0.4227  0.0019  1.0352
 4685TIP3   OH235469   0.785   2.281   2.698  0.1036 -0.5086 -0.0956
 4685TIP3    H135470   0.776   2.208   2.758 -1.2466 -1.2113 -1.1466
 4685TIP3    H235471   0.732   2.351   2.737 -1.3728 -1.2048 -0.8504
 4686TIP3   OH235472   2.211   0.688   1.808  0.2226  0.4531 -0.7491
 4686TIP3    H135473   2.133   0.738   1.833  0.1156  0.9162 -1.9981
 4686TIP3    H235474   2.281   0.722   1.864 -0.4604  0.0285  0.3897
 4687TIP3   OH235475   4.652   5.726   3.595  0.6253 -0.5333 -0.0942
 4687TIP3    H135476   4.597   5.793   3.636  0.1589 -2.1288  1.9667
 4687TIP3    H235477   4.733   5.771   3.572  0.0120  0.9050  0.5456
 4688TIP3   OH235478   2.961   5.933  12.333  0.1171  0.3633  0.3775
 4688TIP3    H135479   2.938   6.004  12.393 -1.1254  0.5536 -0.3003
 4688TIP3    H235480   2.916   5.856  12.367 -0.3215  0.3981 -0.1130
 4689TIP3   OH235481   4.716   1.609  15.496 -0.1771  0.2958  0.1572
 4689TIP3    H135482   4.712   1.639  15.405 -0.4134  0.7262  0.3107
 4689TIP3    H235483   4.751   1.520  15.490 -1.0771 -0.0229 -0.4279
 4690TIP3   OH235484   3.954   2.113  15.603 -0.6666 -0.3828 -0.1977
 4690TIP3    H135485   4.049   2.117  15.615 -0.5976  1.0178 -1.1368
 4690TIP3    H235486   3.935   2.019  15.598  0.4925 -0.7127  1.2327
 4691TIP3   OH235487   2.952   0.694  15.632  0.2999 -0.1552 -0.1431
 4691TIP3    H135488   2.964   0.599  15.636  1.0850 -0.1250 -1.6815
 4691TIP3    H235489   3.033   0.730  15.668  0.0874 -0.0503  0.2420
 4692TIP3   OH235490   5.915   1.888   4.345 -0.5263  0.0633 -0.3581
 4692TIP3    H135491   5.951   1.874   4.258 -1.0081  2.8837 -1.0614
 4692TIP3    H235492   5.951   1.816   4.398 -0.0263 -1.5299 -2.7908
 4693TIP3   OH235493   3.308   0.442  11.830  0.1755 -0.2996 -0.6375
 4693TIP3    H135494   3.394   0.481  11.815  0.0798 -0.9859 -3.1740
 4693TIP3    H235495   3.287   0.397  11.748 -2.2391 -0.8351  0.2281
 4694TIP3   OH235496   1.020   3.692  15.029 -0.4241 -0.2183  0.3013
 4694TIP3    H135497   1.020   3.604  15.067  0.9225 -0.0980  0.6174
 4694TIP3    H235498   1.101   3.732  15.062 -1.1270  1.2080  0.3187
 4695TIP3   OH235499   3.763   0.978  14.075  0.5889 -0.2015  0.0500
 4695TIP3    H135500   3.787   1.070  14.069 -2.5727  0.7706  1.4008
 4695TIP3    H235501   3.835   0.938  14.124  1.8205  1.5940 -0.2344
 4696TIP3   OH235502   2.242   3.494   4.448  0.5397  0.1757  0.2761
 4696TIP3    H135503   2.332   3.464   4.460  0.2339 -0.6946  0.4337
 4696TIP3    H235504   2.250   3.587   4.428  1.5133 -0.0276 -0.3095
 4697TIP3   OH235505   0.006   2.454   4.994 -0.4696 -0.2102 -0.1265
 4697TIP3    H135506  -0.059   2.519   4.968  1.2850  1.2907 -0.8704
 4697TIP3    H235507   0.090   2.491   4.967  0.7329 -2.0252  0.9689
 4698TIP3   OH235508   1.316   3.019  16.826  0.2240  0.5207  0.0658
 4698TIP3    H135509   1.239   2.978  16.788 -0.2787  0.7293  0.8478
 4698TIP3    H235510   1.282   3.071  16.899  0.9215  1.8412 -0.5249
 4699TIP3   OH235511   4.330   1.002  14.785  0.5900 -0.0287 -0.1311
 4699TIP3    H135512   4.348   1.044  14.869  0.5298  1.5780 -0.9169
 4699TIP3    H235513   4.282   1.067  14.735 -0.6338 -1.4956 -0.9056
 4700TIP3   OH235514   5.287   1.633  15.294  0.0402 -0.2891  0.3502
 4700TIP3    H135515   5.299   1.719  15.334 -0.8435 -0.2144  0.4441
 4700TIP3    H235516   5.375   1.595  15.295  0.5696  0.8999 -0.3718
 4701TIP3   OH235517   2.752   4.104   4.892  0.2841 -0.0456 -0.4736
 4701TIP3    H135518   2.827   4.135   4.942  0.1013  1.5915 -1.1851
 4701TIP3    H235519   2.687   4.082   4.958  0.4539  1.0171  0.0596
 4702TIP3   OH235520   2.184   3.815  11.599  0.0944 -0.5064  0.2994
 4702TIP3    H135521   2.107   3.786  11.648  1.6207 -0.3428  2.9306
 4702TIP3    H235522   2.219   3.887  11.652  1.5092  0.0255 -1.3456
 4703TIP3   OH235523   0.990   3.273  11.696  0.1348 -0.2016 -0.5509
 4703TIP3    H135524   1.042   3.331  11.640  1.2352  0.5665  1.2315
 4703TIP3    H235525   1.050   3.204  11.721  0.3288  0.7027  1.5486
 4704TIP3   OH235526   5.515   6.367  15.993 -0.0746 -0.4890 -0.6781
 4704TIP3    H135527   5.502   6.436  15.928  1.0737 -2.8038 -3.4474
 4704TIP3    H235528   5.439   6.374  16.051 -1.1431  1.6033 -2.2592
 4705TIP3   OH235529   2.050   1.320  11.899 -0.6993 -0.0442 -0.0846
 4705TIP3    H135530   2.079   1.284  11.982  0.4136 -0.2681 -0.5677
 4705TIP3    H235531   1.985   1.386  11.923 -0.2400  0.0307  0.9710
 4706TIP3   OH235532   6.240   4.197  14.179 -0.1733 -0.7310  0.0211
 4706TIP3    H135533   6.298   4.159  14.245  1.6348 -0.5157 -1.4226
 4706TIP3    H235534   6.287   4.188  14.096 -1.7128  0.4560 -1.0267
 4707TIP3   OH235535   5.631   1.050   2.271  0.1279  0.1211 -0.0388
 4707TIP3    H135536   5.578   1.112   2.321  1.3647  1.3598 -0.2331
 4707TIP3    H235537   5.708   1.100   2.245  0.1106 -0.8918 -2.0991
 4708TIP3   OH235538   6.753   5.926   1.346  0.4889 -0.0967  0.1450
 4708TIP3    H135539   6.808   5.955   1.418  1.2684  0.3797 -0.6404
 4708TIP3    H235540   6.788   5.840   1.322 -0.0401 -0.4490  0.6016
 4709TIP3   OH235541   4.031   5.645  14.465 -0.2251 -0.0487  0.3872
 4709TIP3    H135542   4.009   5.580  14.398  0.1742 -0.4494  0.6477
 4709TIP3    H235543   4.049   5.725  14.415  0.0848 -0.3520  0.0111
 4710TIP3   OH235544   4.543   3.012   2.988 -0.4833  0.2186 -0.0862
 4710TIP3    H135545   4.465   3.000   2.933 -0.3368 -1.1270 -0.0262
 4710TIP3    H235546   4.509   3.012   3.078 -0.4209 -0.3568 -0.0607
 4711TIP3   OH235547   5.191   0.558  11.270  0.2069 -0.0970  0.1056
 4711TIP3    H135548   5.125   0.582  11.335 -0.1921 -1.1993  0.1245
 4711TIP3    H235549   5.265   0.615  11.288  0.5057 -1.1121  2.2457
 4712TIP3   OH235550   1.638   6.417  12.077 -0.2493  0.5179 -0.0603
 4712TIP3    H135551   1.661   6.479  12.146  0.7775  0.4496 -0.3324
 4712TIP3    H235552   1.542   6.421  12.072 -0.5069 -0.9843  2.7511
 4713TIP3   OH235553   4.165   6.776   2.992  0.1205  0.1917  0.5646
 4713TIP3    H135554   4.128   6.690   3.013 -0.2431  0.1748 -0.1321
 4713TIP3    H235555   4.093   6.837   3.009 -0.3967  0.1171 -1.1904
 4714TIP3   OH235556   3.611   0.842  10.941  0.6522  0.0988  0.3788
 4714TIP3    H135557   3.661   0.846  10.860  0.6377 -2.3067  0.2361
 4714TIP3    H235558   3.675   0.861  11.010  1.0856  0.1701 -0.0415
 4715TIP3   OH235559   4.933   4.858   1.813  0.8504 -0.5469 -1.6687
 4715TIP3    H135560   4.879   4.782   1.790  0.7475 -0.7726 -0.6900
 4715TIP3    H235561   5.014   4.845   1.764  0.3013 -0.5618 -2.6102
 4716TIP3   OH235562   5.038   4.691   4.004  0.0840  0.1929  0.0957
 4716TIP3    H135563   5.124   4.709   3.967 -0.2577  1.1512 -0.2542
 4716TIP3    H235564   4.994   4.776   4.005 -1.5164 -0.5632 -1.4450
 4717TIP3   OH235565   4.510   3.175   4.882 -0.0210 -0.0968 -0.0834
 4717TIP3    H135566   4.471   3.225   4.810 -4.2382 -1.3544  1.1986
 4717TIP3    H235567   4.600   3.207   4.888 -0.7965  2.9026 -3.2570
 4718TIP3   OH235568   2.892   2.046  14.196  0.0082 -0.3161 -0.2059
 4718TIP3    H135569   2.895   2.043  14.292 -2.2028 -0.2594 -0.1277
 4718TIP3    H235570   2.847   2.128  14.176  2.4714  0.8022 -1.3554
 4719TIP3   OH235571   5.212   3.222  16.204  0.2090  0.2384  0.1519
 4719TIP3    H135572   5.283   3.287  16.196 -0.9442  1.2887 -2.0653
 4719TIP3    H235573   5.243   3.147  16.154  1.0880 -0.5495  1.8339
 4720TIP3   OH235574   1.920   3.940   1.745  0.4107  0.0415  0.3792
 4720TIP3    H135575   1.851   3.976   1.688 -0.0775 -0.4076  0.6830
 4720TIP3    H235576   1.893   3.964   1.833  0.8644  0.2230  0.4701
 4721TIP3   OH235577   1.355   0.841  12.489 -0.2474  0.5065 -0.3040
 4721TIP3    H135578   1.359   0.857  12.584 -0.1198  1.2258 -0.4248
 4721TIP3    H235579   1.436   0.793  12.470  0.3161  1.4057 -0.2303
 4722TIP3   OH235580   1.075   6.397  16.648  0.6334 -0.2585 -0.4154
 4722TIP3    H135581   1.057   6.432  16.735 -0.4794  0.2587 -0.8516
 4722TIP3    H235582   0.992   6.358  16.621  1.4152 -1.8350 -0.5904
 4723TIP3   OH235583   4.981   2.518  14.441 -0.0677  0.0444  0.5391
 4723TIP3    H135584   5.061   2.501  14.491 -0.3788  0.1316  1.0621
 4723TIP3    H235585   4.987   2.458  14.366  0.3753 -0.1158  0.7006
 4724TIP3   OH235586   5.480   6.639   2.901 -0.3264  0.3559 -0.2704
 4724TIP3    H135587   5.386   6.635   2.884 -0.3282  0.4919 -0.2956
 4724TIP3    H235588   5.520   6.618   2.817 -0.3339  0.1651 -0.2258
 4725TIP3   OH235589   6.095   0.337   1.763 -0.7826 -0.0415 -0.2810
 4725TIP3    H135590   6.039   0.295   1.697  1.2177 -2.2818 -0.6104
 4725TIP3    H235591   6.156   0.268   1.790  0.1628  1.6152  1.9666
 4726TIP3   OH235592   0.788   1.087   6.535  0.1419 -0.7274 -0.5303
 4726TIP3    H135593   0.788   1.113   6.628 -2.7648 -2.1332 -0.0780
 4726TIP3    H235594   0.878   1.101   6.507  0.9322  0.4339  2.3048
 4727TIP3   OH235595   6.348   1.494   2.424  0.1700  0.0200 -0.3596
 4727TIP3    H135596   6.261   1.532   2.412  0.4868  0.5520 -0.9683
 4727TIP3    H235597   6.409   1.564   2.401  0.7741 -0.0795  0.8484
 4728TIP3   OH235598   5.081   4.325  14.176  0.6045 -0.2239  0.1235
 4728TIP3    H135599   5.158   4.342  14.232  0.7785 -1.4565  0.2787
 4728TIP3    H235600   5.006   4.339  14.234  0.8126 -2.5766  0.9892
 4729TIP3   OH235601   3.552   3.792  14.008  0.2405 -0.7162 -0.2890
 4729TIP3    H135602   3.549   3.742  14.089 -0.8948 -2.8720 -1.6103
 4729TIP3    H235603   3.472   3.768  13.962  0.2505  1.4590 -1.4822
 4730TIP3   OH235604   5.190   6.475   5.336 -0.2579 -0.0824 -0.0997
 4730TIP3    H135605   5.267   6.493   5.283  0.8690 -1.5517  0.9882
 4730TIP3    H235606   5.128   6.434   5.275  1.2327 -2.2764 -0.2022
 4731TIP3   OH235607   3.458   1.213   3.941 -0.3666 -0.0693 -0.2349
 4731TIP3    H135608   3.389   1.195   3.878 -1.3665 -2.0775  1.3909
 4731TIP3    H235609   3.535   1.169   3.904 -1.1067 -1.8067  0.2387
 4732TIP3   OH235610   1.381   3.598  15.377 -0.4778  0.4018  0.1132
 4732TIP3    H135611   1.452   3.536  15.391 -0.2631 -0.1760 -3.1213
 4732TIP3    H235612   1.306   3.561  15.424  0.2929 -1.0564  0.2109
 4733TIP3   OH235613   2.379   5.784  14.535  0.5096 -0.1073  0.1361
 4733TIP3    H135614   2.398   5.720  14.465 -0.5003 -0.7797  0.4634
 4733TIP3    H235615   2.291   5.816  14.515  0.8471  0.8903  0.2091
 4734TIP3   OH235616   1.601   1.743   0.724  0.0012 -0.1124  0.3897
 4734TIP3    H135617   1.590   1.829   0.764  2.1118  0.2618  0.1901
 4734TIP3    H235618   1.587   1.681   0.796  1.7685  0.4976  1.2762
 4735TIP3   OH235619   2.589   6.338  16.221  0.0743 -0.6090 -0.1402
 4735TIP3    H135620   2.528   6.364  16.152  2.6686  2.3658 -1.4569
 4735TIP3    H235621   2.586   6.410  16.285  0.6225 -1.4451  0.8413
 4736TIP3   OH235622   0.021   1.709  15.285  0.4205  0.0436 -0.3437
 4736TIP3    H135623   0.027   1.804  15.294 -1.5187  0.2728 -1.0910
 4736TIP3    H235624   0.098   1.676  15.331 -0.0940  1.8696  2.0034
 4737TIP3   OH235625   4.816   2.192  12.072  0.0096 -0.2577  0.1110
 4737TIP3    H135626   4.822   2.287  12.084 -2.0335 -0.1151  0.0291
 4737TIP3    H235627   4.776   2.160  12.152  0.3456 -1.0214 -0.0217
 4738TIP3   OH235628   5.708   0.064  16.421  0.2194  0.2560 -0.6082
 4738TIP3    H135629   5.790   0.023  16.448  0.1024  0.5430  0.1991
 4738TIP3    H235630   5.691   0.130  16.488 -1.0511 -0.2965 -0.3788
 4739TIP3   OH235631   4.425   2.405  14.016  0.5361  0.3041 -0.1876
 4739TIP3    H135632   4.382   2.349  13.952 -0.4230  0.8230 -0.0060
 4739TIP3    H235633   4.392   2.375  14.101 -1.6067  2.4816 -0.2071
 4740TIP3   OH235634   6.648   2.429  16.953  0.0322 -0.0607  0.2294
 4740TIP3    H135635   6.558   2.440  16.983  0.3644  3.0618  0.2653
 4740TIP3    H235636   6.647   2.458  16.862  0.7037 -1.4460 -0.2231
 4741TIP3   OH235637   1.343   5.742  15.154 -0.3393  0.0944  0.2777
 4741TIP3    H135638   1.250   5.723  15.140 -0.4904  0.3348  0.9116
 4741TIP3    H235639   1.386   5.657  15.148 -0.3715  0.1984 -1.7176
 4742TIP3   OH235640   5.600   1.928  11.767 -0.0091  0.1253  0.4627
 4742TIP3    H135641   5.524   1.870  11.774  0.2438 -0.2954 -0.1793
 4742TIP3    H235642   5.563   2.016  11.771 -0.6338 -0.0715 -0.6896
 4743TIP3   OH235643   3.240   3.729  11.136 -0.4155  0.2966 -0.8716
 4743TIP3    H135644   3.222   3.657  11.075 -1.2300 -1.3664  1.2704
 4743TIP3    H235645   3.307   3.694  11.195  0.0398  1.7210 -0.5284
 4744TIP3   OH235646   4.091   6.265   2.122 -0.0483  0.1859 -0.2204
 4744TIP3    H135647   4.151   6.242   2.193  0.0192  1.6896  0.2269
 4744TIP3    H235648   4.132   6.230   2.043  1.0613  0.5790  0.1726
 4745TIP3   OH235649   4.030   0.835   3.404  0.6289  0.6473  0.0310
 4745TIP3    H135650   4.095   0.785   3.453  0.6929 -0.4462 -1.1679
 4745TIP3    H235651   3.971   0.870   3.472  1.7920  0.7071  1.0275
 4746TIP3   OH235652   6.291   4.702   0.531  0.3009 -0.1112  0.6099
 4746TIP3    H135653   6.382   4.682   0.549  0.5700  0.0430 -0.5501
 4746TIP3    H235654   6.272   4.778   0.585  0.4299 -1.0247  1.9676
 4747TIP3   OH235655   1.682   3.813  10.523 -0.2715  0.0486 -0.6126
 4747TIP3    H135656   1.712   3.903  10.536 -0.7257  0.1366 -0.1684
 4747TIP3    H235657   1.763   3.763  10.510  0.0724  0.2931  0.5264
 4748TIP3   OH235658   2.809   2.807  12.980 -0.8109  0.5170  0.1006
 4748TIP3    H135659   2.866   2.762  12.917 -1.7562 -0.8119  0.1563
 4748TIP3    H235660   2.865   2.874  13.020  0.4589 -0.1749 -0.4750
 4749TIP3   OH235661   4.529   1.581   5.590 -0.5227  0.4819 -0.3781
 4749TIP3    H135662   4.503   1.490   5.575 -0.8492  0.5958 -0.5093
 4749TIP3    H235663   4.604   1.575   5.649 -0.7898  0.1448 -0.0682
 4750TIP3   OH235664   2.416   0.727   4.504  0.3676  0.2793  0.1152
 4750TIP3    H135665   2.496   0.750   4.458  0.3053  1.4496  0.5806
 4750TIP3    H235666   2.363   0.807   4.501  0.4763  0.4451  2.4473
 4751TIP3   OH235667   4.936   2.347  16.561  0.4799 -0.0608  0.2739
 4751TIP3    H135668   4.899   2.273  16.610  0.2968 -0.2262 -0.1161
 4751TIP3    H235669   4.927   2.422  16.619  0.3899 -0.2862  0.5496
 4752TIP3   OH235670   5.862   4.578  11.436 -0.8549  0.4898  0.1574
 4752TIP3    H135671   5.858   4.656  11.490 -3.3493  0.0675  0.6568
 4752TIP3    H235672   5.847   4.609  11.347 -2.2784  0.5262  0.4102
 4753TIP3   OH235673   6.277   4.025   3.403 -0.1931  0.0088 -0.5923
 4753TIP3    H135674   6.337   4.099   3.393 -0.4916  0.3531  0.1089
 4753TIP3    H235675   6.315   3.956   3.350  1.2412 -0.0248  0.4406
 4754TIP3   OH235676   3.333   0.863   4.048 -0.0371 -0.0485  0.3327
 4754TIP3    H135677   3.257   0.882   3.993 -0.0282 -0.5990  0.1199
 4754TIP3    H235678   3.361   0.948   4.081  1.2060  0.5613 -2.1661
 4755TIP3   OH235679   1.933   0.354  11.780 -0.2336  0.1849 -0.9082
 4755TIP3    H135680   1.960   0.273  11.738 -0.5626  0.4761 -1.6938
 4755TIP3    H235681   1.917   0.330  11.871  1.2497 -0.2905 -0.7581
 4756TIP3   OH235682   5.053   2.157   2.925 -0.1691  0.5034 -0.1788
 4756TIP3    H135683   4.967   2.200   2.925  0.0654  1.0263 -1.8800
 4756TIP3    H235684   5.050   2.097   2.999 -1.6878  1.1562  0.3053
 4757TIP3   OH235685   4.897   1.942   1.104  0.3484 -0.0969  0.1451
 4757TIP3    H135686   4.900   2.032   1.136  0.4781  0.1291 -0.4975
 4757TIP3    H235687   4.909   1.950   1.010 -0.4586 -0.7274 -0.0156
 4758TIP3   OH235688   6.710   6.632  15.855  0.3484 -0.3737 -0.8701
 4758TIP3    H135689   6.643   6.655  15.920  0.5110  0.2114 -0.9035
 4758TIP3    H235690   6.787   6.609  15.908  0.9381  1.5261 -0.8653
 4759TIP3   OH235691   4.088   3.141   0.019 -0.3579 -0.2071  0.4613
 4759TIP3    H135692   4.143   3.217  -0.002 -0.2368  0.3995  2.7915
 4759TIP3    H235693   4.110   3.121   0.110 -0.2279 -3.2085 -0.1932
 4760TIP3   OH235694   3.874   5.152   0.635 -0.3638 -0.3848  0.0864
 4760TIP3    H135695   3.885   5.193   0.721  1.3375 -1.6773  0.5065
 4760TIP3    H235696   3.951   5.179   0.585 -1.5023  0.6284 -1.1648
 4761TIP3   OH235697   2.451   6.572   4.502  0.4947 -0.3803 -0.3951
 4761TIP3    H135698   2.539   6.545   4.476  0.5463 -1.1935  0.5985
 4761TIP3    H235699   2.461   6.600   4.593 -0.0027  0.8671 -0.7169
 4762TIP3   OH235700   0.294   5.027  11.056  0.6760 -0.2523  0.2605
 4762TIP3    H135701   0.330   5.115  11.050 -1.5042  0.7629  1.3481
 4762TIP3    H235702   0.367   4.972  11.085  2.0147  1.2050 -0.2853
 4763TIP3   OH235703   3.990   1.398   2.915  0.3491 -0.2888 -0.1488
 4763TIP3    H135704   3.926   1.421   2.847  1.3527 -1.4333 -1.5018
 4763TIP3    H235705   3.968   1.308   2.940  1.9751 -1.0104 -1.2623
 4764TIP3   OH235706   4.864   6.213   2.441 -0.1850  0.3850  0.5145
 4764TIP3    H135707   4.847   6.222   2.347 -1.0273  1.0337  0.7212
 4764TIP3    H235708   4.953   6.245   2.452 -0.5918  1.6748  0.1475
 4765TIP3   OH235709   2.399   3.750   2.203  0.3262 -0.3096  0.6286
 4765TIP3    H135710   2.435   3.666   2.232 -1.7908 -1.3172  0.4855
 4765TIP3    H235711   2.390   3.741   2.108  0.8836  0.4002  0.5079
 4766TIP3   OH235712   1.750   6.160  13.276  0.6118 -0.6282 -0.0223
 4766TIP3    H135713   1.655   6.172  13.270  0.7795  0.6241 -0.3635
 4766TIP3    H235714   1.780   6.231  13.333  1.4795 -0.2740 -0.9020
 4767TIP3   OH235715   3.161   6.353   5.750  0.0211 -0.0665  0.1633
 4767TIP3    H135716   3.095   6.422   5.747  0.5312  0.4258  0.2799
 4767TIP3    H235717   3.242   6.398   5.774  1.3404  0.0780 -4.1424
 4768TIP3   OH235718   2.490   5.609   1.417 -0.2924  0.6492  0.1191
 4768TIP3    H135719   2.585   5.606   1.414 -0.3379 -0.8627 -0.2530
 4768TIP3    H235720   2.470   5.654   1.499  0.7222 -0.3141  0.9004
 4769TIP3   OH235721   5.145   4.537   6.594 -0.3010  0.6430  0.5252
 4769TIP3    H135722   5.137   4.632   6.600 -1.2717  0.6368 -0.6289
 4769TIP3    H235723   5.069   4.509   6.544 -0.1816 -0.7831  1.1210
 4770TIP3   OH235724   3.374   2.204   1.377 -0.2014 -0.6258 -0.2952
 4770TIP3    H135725   3.447   2.185   1.318  0.8383  0.0354  0.7649
 4770TIP3    H235726   3.371   2.299   1.382 -0.4369 -0.6715  0.5368
 4771TIP3   OH235727   0.305   6.321  15.733 -0.1353  0.3213 -0.0830
 4771TIP3    H135728   0.316   6.247  15.674 -0.9447  1.2027 -1.3489
 4771TIP3    H235729   0.375   6.382  15.710  1.6760 -0.8445  2.2061
 4772TIP3   OH235730   0.170   5.380   3.391  0.2584  0.3038 -0.5963
 4772TIP3    H135731   0.185   5.384   3.486  1.5817 -0.6612 -0.7475
 4772TIP3    H235732   0.075   5.368   3.383  0.4601 -2.7896  0.7471
 4773TIP3   OH235733   0.196   1.646  14.084  0.2469 -0.6147  0.0893
 4773TIP3    H135734   0.104   1.665  14.102  0.5308  0.9115 -0.0824
 4773TIP3    H235735   0.235   1.631  14.170 -0.3041 -2.0034  0.1168
 4774TIP3   OH235736   3.194   1.074   1.035 -0.1293 -0.5990  0.1345
 4774TIP3    H135737   3.195   1.147   0.973  0.1969 -0.8080 -0.1070
 4774TIP3    H235738   3.102   1.064   1.059 -0.1359  0.1093  0.4286
 4775TIP3   OH235739   1.864   6.631   1.623 -0.1332  0.5194  0.3190
 4775TIP3    H135740   1.824   6.594   1.544  0.9387  0.6809 -0.3142
 4775TIP3    H235741   1.913   6.559   1.661  0.4047  0.7825  0.1280
 4776TIP3   OH235742   6.160   3.730   5.691 -0.3823 -0.1127  0.1862
 4776TIP3    H135743   6.175   3.654   5.634  2.2322  1.1133 -0.8708
 4776TIP3    H235744   6.171   3.696   5.780  3.7855 -0.5010 -0.3495
 4777TIP3   OH235745   1.635   0.352   4.208  0.5254 -0.4149  0.4093
 4777TIP3    H135746   1.552   0.336   4.163  1.4965 -2.1230 -0.8455
 4777TIP3    H235747   1.660   0.441   4.182 -0.6713 -0.0880  0.3816
 4778TIP3   OH235748   0.148   0.596   3.005  0.3279 -0.0756  0.4084
 4778TIP3    H135749   0.183   0.686   3.008  0.7762 -0.2314 -0.1064
 4778TIP3    H235750   0.054   0.608   2.993  0.4591  0.3196 -0.2542
 4779TIP3   OH235751   0.377   6.501   3.494  0.3795 -0.6429 -0.5576
 4779TIP3    H135752   0.317   6.513   3.568  0.1567  0.3437 -0.8779
 4779TIP3    H235753   0.337   6.553   3.424  1.3238 -0.4285 -0.9381
 4780TIP3   OH235754   2.609   1.855   1.183 -0.7750  0.0144  0.2207
 4780TIP3    H135755   2.637   1.920   1.247 -1.2897  0.0094  0.4582
 4780TIP3    H235756   2.516   1.840   1.203 -1.3528  1.1603 -1.4984
 4781TIP3   OH235757   2.877   5.989   1.464  0.2841 -0.2338  0.4456
 4781TIP3    H135758   2.899   6.011   1.373  0.2367  0.2228  0.5458
 4781TIP3    H235759   2.791   6.028   1.479  0.2237 -0.4389  0.6400
 4782TIP3   OH235760   0.415   5.852   1.127 -0.1050 -0.2506  0.1412
 4782TIP3    H135761   0.484   5.908   1.092  0.1581 -0.6880 -0.0542
 4782TIP3    H235762   0.406   5.782   1.062 -1.9809  0.7624 -0.7170
 4783TIP3   OH235763   4.073   3.960   4.310  0.4744 -0.2559  0.0449
 4783TIP3    H135764   4.143   4.025   4.313 -0.1525  0.4215  0.1644
 4783TIP3    H235765   4.073   3.929   4.220 -0.9369  1.8261 -0.7124
 4784TIP3   OH235766   0.933   6.134  16.009  0.7635 -0.6967  0.1351
 4784TIP3    H135767   0.931   6.148  15.915 -1.7300  2.5246  0.5821
 4784TIP3    H235768   1.000   6.195  16.041 -1.2581  1.2607  0.7990
 4785TIP3   OH235769   4.927   2.774  14.097 -0.5787  0.6690  0.0596
 4785TIP3    H135770   4.873   2.829  14.040  0.0074 -0.3917 -1.5469
 4785TIP3    H235771   5.017   2.803  14.079 -0.4004  0.3733  0.4816
 4786TIP3   OH235772   3.534   5.854  11.647 -0.0823  0.6173  0.3598
 4786TIP3    H135773   3.628   5.850  11.667  0.0680  2.3716  0.0774
 4786TIP3    H235774   3.515   5.947  11.639 -1.3554  0.1830 -1.9872
 4787TIP3   OH235775   6.314   1.554   5.104 -0.0198  0.1202 -0.0343
 4787TIP3    H135776   6.278   1.615   5.040 -0.3238 -1.0264 -0.9789
 4787TIP3    H235777   6.282   1.585   5.189 -1.6039  0.2557 -0.6815
 4788TIP3   OH235778   2.059   1.749  12.693  0.7791 -0.0905 -0.0638
 4788TIP3    H135779   2.128   1.805  12.659  0.5922 -0.3026 -0.8042
 4788TIP3    H235780   2.045   1.684  12.625  0.2700 -0.4115  0.3422
 4789TIP3   OH235781   0.303   3.815  16.883 -0.4367  0.0692  0.6571
 4789TIP3    H135782   0.228   3.815  16.942 -1.7655 -2.0064 -0.9473
 4789TIP3    H235783   0.348   3.733  16.903 -0.2163 -0.0535 -0.3536
 4790TIP3   OH235784   5.449   1.551   1.392  0.2516  0.3369 -0.1436
 4790TIP3    H135785   5.457   1.480   1.457 -3.5632  0.6487  0.7749
 4790TIP3    H235786   5.433   1.629   1.445  0.0577  1.1095 -1.3439
 4791TIP3   OH235787   5.723   5.456  14.932  0.9059  0.3348 -0.1460
 4791TIP3    H135788   5.720   5.520  15.003  1.1962  0.5223 -0.3000
 4791TIP3    H235789   5.816   5.433  14.925  0.6245 -1.1429  0.8394
 4792TIP3   OH235790   4.829   1.366  14.144  0.4190 -0.4325  0.2049
 4792TIP3    H135791   4.750   1.411  14.115 -0.0774 -1.2267  0.3352
 4792TIP3    H235792   4.895   1.389  14.078  0.3039  0.8848  0.5415
 4793TIP3   OH235793   6.090   0.360   2.379  0.4806  0.5389 -0.5356
 4793TIP3    H135794   6.096   0.456   2.377 -1.4626  0.6658 -2.0380
 4793TIP3    H235795   6.094   0.339   2.472 -1.0964  2.2635 -0.0301
 4794TIP3   OH235796   1.898   4.555  16.159 -0.2968  0.2365  0.4044
 4794TIP3    H135797   1.850   4.507  16.226  2.2240 -1.6767  0.9502
 4794TIP3    H235798   1.841   4.554  16.083 -1.8055 -0.4893  1.5111
 4795TIP3   OH235799   4.426   6.289   2.945  0.1373  0.3653 -0.0384
 4795TIP3    H135800   4.399   6.286   3.037 -1.2150  0.2742 -0.4379
 4795TIP3    H235801   4.353   6.330   2.899  0.6422  0.0484 -1.1429
 4796TIP3   OH235802   5.610   4.681  12.390  0.0924 -0.1362  0.0960
 4796TIP3    H135803   5.686   4.632  12.358  1.4891  0.7922  1.8653
 4796TIP3    H235804   5.570   4.718  12.311  2.5620  0.8627 -0.7466
 4797TIP3   OH235805   5.296   2.612   0.197  0.0138  0.1179  0.1145
 4797TIP3    H135806   5.269   2.526   0.165 -1.3971  0.2762  0.8163
 4797TIP3    H235807   5.314   2.663   0.118 -1.0054 -0.2514 -0.3702
 4798TIP3   OH235808   2.800   4.371   2.869  0.1105 -0.1312  0.3443
 4798TIP3    H135809   2.829   4.417   2.790  0.3437 -2.1329 -0.7618
 4798TIP3    H235810   2.762   4.289   2.837  1.9062 -1.8353  2.4036
 4799TIP3   OH235811   2.402   1.519   0.626  0.2748  0.3238 -0.2524
 4799TIP3    H135812   2.418   1.607   0.592 -0.6216  1.3917  1.9913
 4799TIP3    H235813   2.458   1.511   0.702 -1.6174 -0.0213  1.1551
 4800TIP3   OH235814   2.411   4.178   5.559  0.0517  0.2010 -0.0603
 4800TIP3    H135815   2.354   4.250   5.535  0.1949  0.3828  0.1498
 4800TIP3    H235816   2.352   4.106   5.580 -0.1197  0.6650  1.0611
 4801TIP3   OH235817   2.655   5.568   4.905 -0.4248 -0.6995 -0.9954
 4801TIP3    H135818   2.586   5.502   4.897 -0.0320 -1.0790 -1.2947
 4801TIP3    H235819   2.717   5.530   4.967 -1.1319  0.2142  0.3075
 4802TIP3   OH235820   3.994   3.500  12.073 -0.3432  0.4376  0.2581
 4802TIP3    H135821   3.977   3.498  12.168 -1.1879  1.5144  0.1412
 4802TIP3    H235822   3.925   3.445  12.036  0.1279 -0.1764  0.2765
 4803TIP3   OH235823   6.259   1.733   4.897  0.4194 -0.1176  0.3442
 4803TIP3    H135824   6.165   1.748   4.890  0.1741 -0.3321  2.8541
 4803TIP3    H235825   6.281   1.686   4.816 -1.3276  1.2319 -0.9677
 4804TIP3   OH235826   3.661   4.881   4.848  0.6138 -0.1043  0.2011
 4804TIP3    H135827   3.648   4.901   4.755  0.5016 -0.5494  0.1171
 4804TIP3    H235828   3.579   4.837   4.874  0.4335  0.4950  0.6447
 4805TIP3   OH235829   5.656   0.868   1.620  0.0801 -0.7396  0.1377
 4805TIP3    H135830   5.585   0.933   1.618  1.3143  0.6209 -0.6433
 4805TIP3    H235831   5.659   0.833   1.532  1.0382 -0.0319 -0.1254
 4806TIP3   OH235832   5.634   0.763  15.843 -0.0535  0.0745 -0.4143
 4806TIP3    H135833   5.654   0.715  15.762  2.2672  0.5309 -0.1416
 4806TIP3    H235834   5.570   0.708  15.888  0.3819 -1.3430 -1.4836
 4807TIP3   OH235835   2.294   4.382   3.070  0.7339 -0.1665 -0.2302
 4807TIP3    H135836   2.372   4.366   3.019  1.4663  1.7934  0.2484
 4807TIP3    H235837   2.325   4.391   3.160  0.2524  2.6581 -0.2982
 4808TIP3   OH235838   4.729   3.686   1.866 -0.7403  0.6090  0.1928
 4808TIP3    H135839   4.791   3.657   1.933  0.5234  0.6526 -0.9424
 4808TIP3    H235840   4.675   3.750   1.912  1.0565  1.7442  0.8213
 4809TIP3   OH235841   3.323   0.251  13.532 -0.6633 -0.5557  0.3531
 4809TIP3    H135842   3.355   0.190  13.466 -1.4063 -2.2938  1.5631
 4809TIP3    H235843   3.314   0.198  13.612 -0.1438  1.4059  1.7622
 4810TIP3   OH235844   1.431   2.532  12.960  0.0048 -0.2329  0.9916
 4810TIP3    H135845   1.398   2.616  12.929  0.4370 -0.9374 -1.4617
 4810TIP3    H235846   1.353   2.485  12.990 -0.6767 -0.2016 -0.6773
 4811TIP3   OH235847   4.197   6.086  15.900 -0.4100 -0.0517  0.1223
 4811TIP3    H135848   4.125   6.149  15.909 -1.9213 -1.8573  1.0307
 4811TIP3    H235849   4.270   6.138  15.866 -1.5305  2.2458  1.0947
 4812TIP3   OH235850   2.163   6.771   5.155 -0.0059 -0.2760 -0.2401
 4812TIP3    H135851   2.095   6.765   5.223 -0.3611 -1.8524 -0.7040
 4812TIP3    H235852   2.121   6.820   5.084  0.0221  0.4850  0.2565
 4813TIP3   OH235853   5.443   0.684   3.067  0.3434 -0.3561  0.2738
 4813TIP3    H135854   5.490   0.615   3.114  0.9536  2.6647  4.3524
 4813TIP3    H235855   5.351   0.668   3.087  0.3253 -1.1350 -0.4265
 4814TIP3   OH235856   5.477   2.442  11.836 -0.2050  0.1418 -0.1583
 4814TIP3    H135857   5.461   2.412  11.926  0.0294  0.5542  0.0253
 4814TIP3    H235858   5.395   2.425  11.790 -0.4500  0.2725  0.2304
 4815TIP3   OH235859   4.276   2.634  14.862 -0.0591 -0.0626 -0.2289
 4815TIP3    H135860   4.227   2.669  14.936  0.3187  0.0195 -0.0182
 4815TIP3    H235861   4.326   2.708  14.829 -1.0202  0.1509 -1.2131
 4816TIP3   OH235862   5.981   2.848  11.495 -0.0971 -0.5497  0.1411
 4816TIP3    H135863   6.003   2.843  11.588  2.3590 -1.0539 -0.4212
 4816TIP3    H235864   5.955   2.759  11.471 -3.8937  0.2244  1.0070
 4817TIP3   OH235865   2.960   0.606   1.008 -0.0117 -0.3683  0.2164
 4817TIP3    H135866   2.958   0.511   0.997  2.3586 -0.4680  0.3155
 4817TIP3    H235867   2.957   0.640   0.918 -0.6758 -0.5352  0.1731
 4818TIP3   OH235868   1.585   1.571  10.712  0.6210 -0.4659  0.1501
 4818TIP3    H135869   1.642   1.612  10.778  1.6253 -0.7652 -0.5325
 4818TIP3    H235870   1.497   1.601  10.736  1.0926  0.2817  1.0033
 4819TIP3   OH235871   4.571   3.639  11.929 -0.0335 -0.1253  0.2431
 4819TIP3    H135872   4.494   3.595  11.894  0.2739  0.6956 -1.5218
 4819TIP3    H235873   4.546   3.731  11.936  0.9779  0.2679 -1.0013
 4820TIP3   OH235874   5.188   3.920  13.456 -0.4036  0.1488  0.1186
 4820TIP3    H135875   5.209   3.923  13.363 -2.3572 -1.5577 -0.3952
 4820TIP3    H235876   5.204   4.010  13.486  3.3170 -0.0045 -1.1299
 4821TIP3   OH235877   6.174   2.463   2.797 -0.8524  0.0420 -0.4373
 4821TIP3    H135878   6.259   2.420   2.793 -0.7995  0.1626 -0.5934
 4821TIP3    H235879   6.130   2.422   2.872 -0.3002  0.6312  0.2197
 4822TIP3   OH235880   6.379   3.370  11.584 -0.0538 -0.0764 -0.4394
 4822TIP3    H135881   6.377   3.332  11.672 -1.1068  0.7450 -0.0989
 4822TIP3    H235882   6.468   3.403  11.575 -0.1145  0.3865  0.5545
 4823TIP3   OH235883   0.264   5.499  15.179  0.1963 -0.1672 -0.6402
 4823TIP3    H135884   0.288   5.407  15.188  1.3389  0.2681  0.8830
 4823TIP3    H235885   0.347   5.545  15.167 -0.0075  1.0800  2.3084
 4824TIP3   OH235886   1.619   6.470   1.533  0.2767  0.1517 -0.3985
 4824TIP3    H135887   1.584   6.555   1.504  0.2562 -0.2807 -1.6719
 4824TIP3    H235888   1.629   6.420   1.453 -2.7209 -2.2262  0.6269
 4825TIP3   OH235889   6.384   2.003   4.658  0.1660 -0.7997  0.1234
 4825TIP3    H135890   6.298   2.035   4.629  0.2228  0.1388  0.9721
 4825TIP3    H235891   6.437   2.082   4.667  1.5010 -1.4781 -1.5848
 4826TIP3   OH235892   2.446   0.230  15.677  0.0648 -0.4457  0.2303
 4826TIP3    H135893   2.401   0.281  15.609 -0.5030 -1.1730  0.0580
 4826TIP3    H235894   2.473   0.296  15.742 -2.3889 -0.1270  0.9783
 4827TIP3   OH235895   3.420   0.111   3.775 -0.0007  0.2723 -0.3377
 4827TIP3    H135896   3.325   0.111   3.788  0.1048  1.6377  0.5159
 4827TIP3    H235897   3.433   0.062   3.693 -1.4896  0.7383 -0.8737
 4828TIP3   OH235898   5.462   3.176  16.972  0.4369 -0.1877  0.2615
 4828TIP3    H135899   5.399   3.204  16.905  0.4837 -0.4042  0.1258
 4828TIP3    H235900   5.421   3.101  17.014  0.0035  0.5088  1.0906
 4829TIP3   OH235901   1.663   4.917   1.762  0.1022 -0.2368  0.1922
 4829TIP3    H135902   1.742   4.923   1.816 -0.6134  1.5669  1.0746
 4829TIP3    H235903   1.652   5.005   1.726 -0.3741 -1.0015 -1.5723
 4830TIP3   OH235904   1.969   4.031   0.063 -0.1125 -0.2595  0.0424
 4830TIP3    H135905   1.985   4.027  -0.032 -1.3772  2.2959 -0.3177
 4830TIP3    H235906   1.874   4.023   0.072  0.0017 -0.4912  1.0977
 4831TIP3   OH235907   5.372   4.708   3.956  0.4838 -0.4116 -0.1615
 4831TIP3    H135908   5.352   4.721   4.049  0.3197 -2.3883  0.1125
 4831TIP3    H235909   5.314   4.769   3.910  1.6362  1.6714  1.0683
 4832TIP3   OH235910   5.774   6.334   3.438 -0.2022  0.3001  0.5069
 4832TIP3    H135911   5.823   6.316   3.518 -0.4801 -0.5930  0.4924
 4832TIP3    H235912   5.820   6.407   3.397  2.2306 -1.7017 -0.4480
 4833TIP3   OH235913   5.490   5.344   5.793 -0.0102 -0.3944 -0.6700
 4833TIP3    H135914   5.556   5.406   5.762  1.8206 -2.7431 -1.6559
 4833TIP3    H235915   5.541   5.272   5.830 -2.1087 -0.7146  1.6998
 4834TIP3   OH235916   2.380   0.012   4.950 -1.1701  0.0509 -0.0870
 4834TIP3    H135917   2.432   0.090   4.970 -0.7301 -0.8189  2.3936
 4834TIP3    H235918   2.312   0.010   5.018 -1.5972 -1.3264 -0.5416
 4835TIP3   OH235919   2.407   4.016   3.956 -0.1514 -0.0627  0.0486
 4835TIP3    H135920   2.339   4.067   4.000  0.2884  0.3523  0.2580
 4835TIP3    H235921   2.442   4.075   3.889  0.0673 -0.2357  0.0060
 4836TIP3   OH235922   0.114   2.945  11.768 -0.0932 -0.4520  0.3166
 4836TIP3    H135923   0.125   2.980  11.679 -1.0681  0.1994  0.4374
 4836TIP3    H235924   0.071   2.860  11.755 -1.1510  0.0860  0.2018
 4837TIP3   OH235925   1.580   1.665  12.786  0.3223 -0.3484 -0.0871
 4837TIP3    H135926   1.546   1.747  12.752 -0.6788 -0.5790  0.3517
 4837TIP3    H235927   1.672   1.684  12.806 -0.3657  1.2072  1.7709
 4838TIP3   OH235928   1.002   4.454   2.280  0.2057 -0.2987 -0.1980
 4838TIP3    H135929   0.931   4.498   2.232  0.4867  0.4485  0.0568
 4838TIP3    H235930   1.079   4.508   2.262  0.8131 -1.3544 -0.8364
 4839TIP3   OH235931   5.487   1.266  15.912 -0.0018  0.3176  0.4529
 4839TIP3    H135932   5.409   1.294  15.863  1.2585  0.4376 -1.5683
 4839TIP3    H235933   5.542   1.343  15.915  0.8365 -0.2701  0.2417
 4840TIP3   OH235934   6.514   1.863   1.306 -0.0889 -0.4548 -0.2023
 4840TIP3    H135935   6.472   1.843   1.223  1.1851  0.1918 -1.0293
 4840TIP3    H235936   6.442   1.878   1.368 -1.0405 -1.5857 -1.0262
 4841TIP3   OH235937   2.719   1.340  16.006  0.2047  0.0385 -0.3539
 4841TIP3    H135938   2.670   1.313  15.928 -0.4086 -0.0383  0.0527
 4841TIP3    H235939   2.662   1.316  16.079 -0.0490  1.7854  0.0469
 4842TIP3   OH235940   5.479   3.018   2.681 -0.0545  0.1540 -0.7982
 4842TIP3    H135941   5.542   3.036   2.611  0.4428  0.6039 -0.2393
 4842TIP3    H235942   5.532   2.988   2.755 -0.4221  1.0987 -0.1284
 4843TIP3   OH235943   6.295   1.550  15.300  0.1824 -0.0456  0.4191
 4843TIP3    H135944   6.367   1.612  15.312 -1.4589  1.6136  1.9411
 4843TIP3    H235945   6.292   1.500  15.381 -2.1449  1.8147  1.5245
 4844TIP3   OH235946   5.706   0.904   5.416  0.2172 -0.0915 -0.4943
 4844TIP3    H135947   5.753   0.935   5.494  2.7996 -0.3553 -1.8964
 4844TIP3    H235948   5.614   0.914   5.439  0.9244  0.8148  2.2101
 4845TIP3   OH235949   3.473   6.054   5.774 -0.0757  0.4718 -0.1363
 4845TIP3    H135950   3.381   6.030   5.771 -0.0402  0.2217  0.6769
 4845TIP3    H235951   3.491   6.073   5.866  0.4242  1.5748 -0.4416
 4846TIP3   OH235952   4.276   6.033  15.048 -0.1337 -0.7967 -0.3276
 4846TIP3    H135953   4.262   5.958  14.990 -1.3094 -2.8826  2.5036
 4846TIP3    H235954   4.332   5.999  15.118 -1.4518  0.6659  1.4874
 4847TIP3   OH235955   6.026   0.615   1.205  0.0197 -0.5334 -0.3589
 4847TIP3    H135956   6.092   0.546   1.210  0.7919  0.1197 -1.4186
 4847TIP3    H235957   6.012   0.642   1.296  1.8290 -0.1069 -0.1996
 4848TIP3   OH235958   3.897   5.050  16.023 -0.1808 -0.0014  0.0868
 4848TIP3    H135959   3.833   5.091  15.965 -0.1669  0.2010  0.2166
 4848TIP3    H235960   3.934   4.978  15.970  0.8784  1.0819 -0.6789
 4849TIP3   OH235961   2.971   0.355  15.141  0.0517 -0.2060 -0.5100
 4849TIP3    H135962   2.974   0.320  15.052  2.7392  0.1614 -0.5828
 4849TIP3    H235963   3.013   0.288  15.195  1.8509  1.2169 -0.1018
 4850TIP3   OH235964   0.168   1.557   2.624 -0.1436 -0.3672  0.3373
 4850TIP3    H135965   0.141   1.474   2.663  0.1218 -0.5681  0.0945
 4850TIP3    H235966   0.256   1.541   2.592  0.7057  0.5996  2.0905
 4851TIP3   OH235967   3.188   6.046  17.180  0.1450  0.2427 -0.0308
 4851TIP3    H135968   3.153   6.092  17.103  0.9200 -0.0467 -0.5604
 4851TIP3    H235969   3.110   6.025  17.233 -0.1807  2.6956  0.5271
 4852TIP3   OH235970   0.502   6.052   6.689 -0.0164 -0.3283  0.0292
 4852TIP3    H135971   0.495   5.959   6.706  1.6024 -0.9151 -2.2922
 4852TIP3    H235972   0.570   6.082   6.750  0.6393 -1.0047 -0.3549
 4853TIP3   OH235973   6.570   6.436  15.347  0.0350  0.1667  0.0689
 4853TIP3    H135974   6.477   6.453  15.330 -0.2361 -1.7477 -0.5306
 4853TIP3    H235975   6.571   6.386  15.428  0.7600  2.2827  1.4211
 4854TIP3   OH235976   2.599   1.678   2.810  0.1181 -0.2804 -0.2529
 4854TIP3    H135977   2.522   1.633   2.775  0.5404 -0.2539 -1.2237
 4854TIP3    H235978   2.647   1.611   2.858 -0.0249 -0.5172 -0.4430
 4855TIP3   OH235979   6.399   3.309   2.837 -0.1784  0.0145 -0.1850
 4855TIP3    H135980   6.401   3.404   2.852  0.6369  0.0718 -0.6457
 4855TIP3    H235981   6.490   3.282   2.842 -0.4514 -0.8066  0.2984
 4856TIP3   OH235982   1.553   6.466   4.031 -0.2418 -0.1738 -0.1329
 4856TIP3    H135983   1.551   6.489   3.938 -0.7394  1.0065  0.1607
 4856TIP3    H235984   1.585   6.545   4.075 -2.2732  0.0890  0.9299
 4857TIP3   OH235985   3.850   3.748   1.145  0.2059  0.2207 -0.0114
 4857TIP3    H135986   3.819   3.751   1.235 -1.1530 -1.5252 -0.3935
 4857TIP3    H235987   3.944   3.731   1.153 -0.1799 -1.5416  1.0656
 4858TIP3   OH235988   0.867   6.247  13.816  0.2648  0.3932  0.0700
 4858TIP3    H135989   0.844   6.338  13.799 -2.1892 -0.2583 -0.3796
 4858TIP3    H235990   0.783   6.201  13.815  1.4969 -1.9396 -0.1231
 4859TIP3   OH235991   5.820   5.370  16.553  0.3558  0.1208  0.3002
 4859TIP3    H135992   5.810   5.355  16.647 -3.3408  2.8196  0.4768
 4859TIP3    H235993   5.747   5.321  16.514  0.7148  0.5908 -0.9692
 4860TIP3   OH235994   3.956   0.256  11.220  0.0077  0.4777  0.4402
 4860TIP3    H135995   4.024   0.320  11.244  0.4591 -0.5243  1.8867
 4860TIP3    H235996   4.005   0.179  11.191 -0.5320  0.3893 -0.2530
 4861TIP3   OH235997   5.357   6.412  16.866 -0.5573 -0.4249 -0.6154
 4861TIP3    H135998   5.357   6.425  16.771 -2.5604  0.5415 -0.5018
 4861TIP3    H235999   5.272   6.371  16.884 -0.2558 -0.4436  0.7775
 4862TIP3   OH236000   2.005   1.915   3.779 -0.3701 -0.9795  0.0672
 4862TIP3    H136001   2.043   1.996   3.746  1.5186 -2.0350 -0.4591
 4862TIP3    H236002   1.957   1.941   3.857  0.5356  0.5873  0.1251
 4863TIP3   OH236003   3.079   2.855   0.182 -0.2532 -0.2642  0.1732
 4863TIP3    H136004   3.108   2.908   0.108  1.7867  0.1304  1.2065
 4863TIP3    H236005   3.011   2.908   0.224  0.3606  0.6460  0.0364
 4864TIP3   OH236006   6.672   0.273   6.221 -0.5144  0.1819 -0.5155
 4864TIP3    H136007   6.750   0.279   6.277 -0.9811  0.2470  0.1394
 4864TIP3    H236008   6.605   0.322   6.269 -1.4920 -1.5003 -0.1276
 4865TIP3   OH236009   3.870   3.933  13.513  0.6574  0.1950  0.4681
 4865TIP3    H136010   3.819   3.909  13.590  2.0810 -0.8628  1.1115
 4865TIP3    H236011   3.875   4.028  13.516  1.0910  0.1268  1.9406
 4866TIP3   OH236012   0.910   6.270   4.062 -0.0342 -0.1132  0.1021
 4866TIP3    H136013   0.899   6.223   3.980  0.0566  0.6428 -0.3525
 4866TIP3    H236014   0.835   6.329   4.067  1.3124  1.7500 -0.7550
 4867TIP3   OH236015   0.287   2.690  10.615 -0.0648 -0.5132  0.5189
 4867TIP3    H136016   0.254   2.738  10.539 -1.5265  0.9326  2.0116
 4867TIP3    H236017   0.372   2.729  10.633  0.5332 -1.2361 -0.6953
 4868TIP3   OH236018   6.629   6.297   5.572  0.3530 -0.3459  0.0662
 4868TIP3    H136019   6.651   6.221   5.517  0.8517 -0.2978  0.1908
 4868TIP3    H236020   6.675   6.370   5.530 -1.5939  0.2309 -1.0950
 4869TIP3   OH236021   0.632   0.844  14.798  0.1127 -0.3666  0.0045
 4869TIP3    H136022   0.679   0.924  14.821  0.7901 -0.8859  0.4443
 4869TIP3    H236023   0.586   0.865  14.717  0.7330  0.2915 -0.1776
 4870TIP3   OH236024   2.650   1.843  16.234 -0.1574 -0.5323 -0.9630
 4870TIP3    H136025   2.620   1.772  16.291 -1.1397  0.0473 -0.7466
 4870TIP3    H236026   2.622   1.817  16.146  1.0812 -1.2752 -1.1489
 4871TIP3   OH236027   3.080   0.695  14.367  0.4486  0.5053  0.3481
 4871TIP3    H136028   3.107   0.741  14.287  1.8464 -0.0337  0.5161
 4871TIP3    H236029   3.158   0.693  14.422 -0.9755  2.5457  2.5453
 4872TIP3   OH236030   5.556   4.811  11.475 -0.0790  0.4742 -0.0449
 4872TIP3    H136031   5.475   4.790  11.521 -0.7582  1.2020 -0.8871
 4872TIP3    H236032   5.559   4.750  11.402 -0.2090  0.8847 -0.3953
 4873TIP3   OH236033   2.698   2.296  16.820 -0.0165 -0.6112 -0.4586
 4873TIP3    H136034   2.623   2.281  16.762  0.6236  0.1227 -1.4890
 4873TIP3    H236035   2.661   2.342  16.895 -0.9407 -2.0078 -0.0455
 4874TIP3   OH236036   1.114   3.773   3.134 -0.0271  0.5744  0.0472
 4874TIP3    H136037   1.033   3.772   3.185  0.2837 -1.1595  0.5221
 4874TIP3    H236038   1.109   3.696   3.078  1.5688  0.1268  0.4973
 4875TIP3   OH236039   1.897   4.752   2.571 -0.0526 -0.1121 -0.5016
 4875TIP3    H136040   1.924   4.704   2.649  2.1020 -0.2554 -1.2813
 4875TIP3    H236041   1.802   4.754   2.575 -0.0155 -1.1385  1.5081
 4876TIP3   OH236042   4.157   0.157  12.966  0.2570 -0.5395 -0.3889
 4876TIP3    H136043   4.214   0.186  12.895  0.7283  1.5951  0.8288
 4876TIP3    H236044   4.216   0.120  13.031 -0.0903 -1.5810 -0.6447
 4877TIP3   OH236045   1.728   3.167   3.102 -0.1542  0.4700  0.4525
 4877TIP3    H136046   1.640   3.183   3.068  0.1557 -1.1383 -1.1455
 4877TIP3    H236047   1.786   3.220   3.047 -0.0797  1.4369  1.4295
 4878TIP3   OH236048   0.337   0.829  14.839 -0.2108  0.2392 -0.6712
 4878TIP3    H136049   0.287   0.908  14.863  0.6780  0.5550  0.1476
 4878TIP3    H236050   0.429   0.856  14.845  0.0736 -0.2418 -2.5087
 4879TIP3   OH236051   5.808   1.744   5.864 -0.3723 -0.3091 -0.0677
 4879TIP3    H136052   5.732   1.803   5.864  1.6492  2.3771  0.9564
 4879TIP3    H236053   5.842   1.749   5.775  0.6955  1.3105  0.4147
 4880TIP3   OH236054   4.986   2.562   4.577 -0.1600  0.0546  0.0068
 4880TIP3    H136055   4.959   2.638   4.628  0.7043  0.5132 -0.2125
 4880TIP3    H236056   5.071   2.538   4.614 -1.4706 -2.2520  1.6559
 4881TIP3   OH236057   0.304   5.603  12.843 -0.3925 -0.0245  0.2529
 4881TIP3    H136058   0.368   5.608  12.772  0.3041  0.5117  0.9090
 4881TIP3    H236059   0.239   5.669  12.822  0.4069  0.9184  0.6788
 4882TIP3   OH236060   5.561   5.137   1.104  0.4060 -0.3252  0.0226
 4882TIP3    H136061   5.556   5.223   1.063 -0.8230 -0.8058 -0.8822
 4882TIP3    H236062   5.521   5.148   1.190 -0.1421 -0.0855 -0.2611
 4883TIP3   OH236063   6.408   5.243  11.071 -0.4350  0.1734 -0.0895
 4883TIP3    H136064   6.464   5.178  11.028  0.8228 -0.0876  1.8723
 4883TIP3    H236065   6.362   5.286  10.999  1.3671 -0.4556 -1.6781
 4884TIP3   OH236066   1.268   0.732   5.208 -0.4101  0.6132  0.9891
 4884TIP3    H136067   1.202   0.795   5.238 -0.2195  0.6911  1.2353
 4884TIP3    H236068   1.235   0.704   5.122 -0.9040  0.4529  1.2264
 4885TIP3   OH236069   4.454   1.467  16.603  0.7377 -0.5540  0.5226
 4885TIP3    H136070   4.529   1.414  16.576  0.3176 -0.3099 -1.2115
 4885TIP3    H236071   4.407   1.411  16.665  1.1810 -1.5835 -0.0451
 4886TIP3   OH236072   6.627   0.129   3.469  0.1222  0.3578 -0.4408
 4886TIP3    H136073   6.628   0.193   3.398  1.3217 -0.3605 -1.0768
 4886TIP3    H236074   6.674   0.053   3.434 -1.6322 -1.0355  0.1581
 4887TIP3   OH236075   2.898   2.655  10.553  0.2050 -0.0726 -0.2771
 4887TIP3    H136076   2.923   2.596  10.482  0.9957 -1.3006  0.9901
 4887TIP3    H236077   2.959   2.728  10.547 -0.9639  0.7942 -2.0365
 4888TIP3   OH236078   4.584   6.773  15.240 -0.3406  0.4280  0.4609
 4888TIP3    H136079   4.621   6.685  15.239 -0.6824  0.2707  1.2663
 4888TIP3    H236080   4.589   6.802  15.149  0.0001 -0.3287  0.2340
 4889TIP3   OH236081   2.913   1.541  11.951  0.1167 -0.1008  0.3594
 4889TIP3    H136082   2.851   1.549  11.878  1.3117 -0.9961 -0.7794
 4889TIP3    H236083   2.955   1.627  11.957  1.2721 -0.5255 -1.1916
 4890TIP3   OH236084   5.112   2.985   0.143  0.2998  0.3510 -0.4940
 4890TIP3    H136085   5.103   2.891   0.158  1.4452  0.2457 -0.4024
 4890TIP3    H236086   5.074   3.000   0.056  0.7096 -0.3097 -0.7866
 4891TIP3   OH236087   5.264   2.852  12.620  0.2021 -0.4500 -0.9340
 4891TIP3    H136088   5.297   2.923  12.676  1.9876 -0.9613 -1.3042
 4891TIP3    H236089   5.252   2.893  12.534  3.1930 -1.0133 -1.6803
 4892TIP3   OH236090   6.505   0.887   4.460 -0.2594  0.7803 -0.0436
 4892TIP3    H136091   6.584   0.926   4.422 -0.0371 -0.0667 -0.4615
 4892TIP3    H236092   6.531   0.862   4.549  0.4991 -1.1211 -0.7564
 4893TIP3   OH236093   0.014   6.558   2.836  0.1472  0.2470 -0.0380
 4893TIP3    H136094  -0.044   6.581   2.909 -2.0777  2.7022 -2.4394
 4893TIP3    H236095   0.063   6.639   2.819  0.3074 -0.1688 -1.5594
 4894TIP3   OH236096   4.409   2.974  11.121 -0.6677 -0.2013 -0.3818
 4894TIP3    H136097   4.328   2.985  11.170  0.0721  0.0630  0.7973
 4894TIP3    H236098   4.432   3.062  11.092 -0.2754 -0.1224  0.1523
 4895TIP3   OH236099   3.101   5.802  13.962  0.1545  0.7853 -1.0499
 4895TIP3    H136100   3.054   5.834  14.040 -0.1901  0.9784 -1.3317
 4895TIP3    H236101   3.192   5.796  13.989 -0.0046  0.5931 -0.5487
 4896TIP3   OH236102   6.587   1.935   3.480  0.1904 -0.5500  0.3563
 4896TIP3    H136103   6.492   1.928   3.483  0.2448 -0.5267  2.9129
 4896TIP3    H236104   6.615   1.857   3.431 -1.0270 -1.5399  1.2235
 4897TIP3   OH236105   0.159   6.292   3.570  0.6042  0.3987 -0.0420
 4897TIP3    H136106   0.215   6.282   3.493  0.5757 -0.0254 -0.0111
 4897TIP3    H236107   0.137   6.202   3.595  0.4820  0.5402  0.3628
 4898TIP3   OH236108   0.217   2.535   0.068 -0.0486  0.3313  0.3328
 4898TIP3    H136109   0.205   2.522   0.162 -4.0487  1.0142  0.0073
 4898TIP3    H236110   0.131   2.517   0.030  1.7641 -1.0357 -3.3608
 4899TIP3   OH236111   0.502   6.690   5.315 -0.7368  0.0167 -0.0352
 4899TIP3    H136112   0.454   6.634   5.377  0.1620  0.2663  0.9003
 4899TIP3    H236113   0.454   6.772   5.316 -0.6029  0.0891  0.4890
 4900TIP3   OH236114   3.246   4.030  12.745  0.1212 -0.1734  0.2587
 4900TIP3    H136115   3.336   3.999  12.758 -0.4211 -2.0154 -0.1500
 4900TIP3    H236116   3.233   4.026  12.650  0.2458  2.0162  0.1263
 4901TIP3   OH236117   1.001   4.767   1.394 -0.0972 -0.3992  0.5280
 4901TIP3    H136118   1.027   4.841   1.448  1.9498 -0.9636  0.3472
 4901TIP3    H236119   1.023   4.792   1.304 -0.1037 -0.9178  0.3748
 4902TIP3   OH236120   6.166   5.866   4.558  0.5630 -0.1699  0.5926
 4902TIP3    H136121   6.207   5.876   4.472  0.6217 -1.1050  0.5134
 4902TIP3    H236122   6.110   5.790   4.550 -0.6874  0.7104  0.9043
 4903TIP3   OH236123   0.345   2.779  12.109  0.1555  0.3471 -0.2577
 4903TIP3    H136124   0.319   2.717  12.041 -0.6365 -0.5262  0.8143
 4903TIP3    H236125   0.310   2.863  12.080  0.7101  0.1901 -1.4253
 4904TIP3   OH236126   4.059   5.048   3.490 -0.1916  0.6898 -0.9971
 4904TIP3    H136127   4.011   5.117   3.536  0.1611 -1.6900  3.1499
 4904TIP3    H236128   3.992   5.000   3.442 -0.8906  1.8887 -1.2435
 4905TIP3   OH236129   0.154   4.907   0.815 -0.7551  0.4743 -0.1516
 4905TIP3    H136130   0.125   4.991   0.850  1.7867  1.5511 -0.5740
 4905TIP3    H236131   0.197   4.929   0.732  3.2106 -0.7871  1.4511
 4906TIP3   OH236132   1.364   1.157   5.247  0.6338  0.0119  0.4844
 4906TIP3    H136133   1.330   1.241   5.216 -1.2021 -0.5266  0.9112
 4906TIP3    H236134   1.351   1.160   5.342 -0.0691 -0.9941  0.4361
 4907TIP3   OH236135   5.719   4.074   3.935  1.1527 -0.0226 -0.1020
 4907TIP3    H136136   5.781   4.144   3.950  1.4675 -0.1127 -0.9777
 4907TIP3    H236137   5.652   4.112   3.879 -0.4114  0.5250  2.0606
 4908TIP3   OH236138   6.691   3.248  11.197  0.0277 -0.3397 -0.1375
 4908TIP3    H136139   6.596   3.249  11.195 -0.0020 -2.0947 -1.2531
 4908TIP3    H236140   6.714   3.189  11.269  0.2501 -0.8651 -0.6345
 4909TIP3   OH236141   1.496   5.713   4.368 -0.2895  0.1964 -0.1807
 4909TIP3    H136142   1.473   5.762   4.289 -0.0576 -1.5412 -1.3565
 4909TIP3    H236143   1.424   5.650   4.379  0.6729 -0.9091 -0.1627
 4910TIP3   OH236144   2.405   3.065   1.311  0.6478 -0.3056  0.5361
 4910TIP3    H136145   2.426   2.972   1.317 -0.0433 -0.3568  2.9423
 4910TIP3    H236146   2.474   3.108   1.361  0.3905  0.3838  0.3022
 4911TIP3   OH236147   2.129   1.585   3.705 -0.0441  0.1684 -0.9356
 4911TIP3    H136148   2.095   1.674   3.696  0.7352  0.4743 -0.8674
 4911TIP3    H236149   2.217   1.589   3.668  0.4467 -0.2814  0.1451
 4912TIP3   OH236150   0.209   2.532  11.996  0.8256 -0.2425 -0.1303
 4912TIP3    H136151   0.298   2.498  11.997  1.1490  0.5269  2.3641
 4912TIP3    H236152   0.168   2.492  11.920  3.3916 -0.3612 -1.4879
 4913TIP3   OH236153   4.455   2.349   6.024  0.0368 -0.7043 -0.2099
 4913TIP3    H136154   4.383   2.335   6.085  0.0041  0.0306 -0.0731
 4913TIP3    H236155   4.514   2.410   6.070  0.7654 -1.3363 -0.3000
 4914TIP3   OH236156   5.525   4.087  14.106  0.1734  0.6357 -0.2803
 4914TIP3    H136157   5.540   4.166  14.158  2.7447 -0.0064  0.0132
 4914TIP3    H236158   5.447   4.048  14.143  1.0396  1.0503  2.0639
 4915TIP3   OH236159   5.921   2.831   1.640  0.4764  0.0283 -0.1300
 4915TIP3    H136160   5.911   2.901   1.705  1.4926 -0.7305  0.8717
 4915TIP3    H236161   5.832   2.796   1.629  0.2289  0.4189  0.5613
 4916TIP3   OH236162   2.153   0.546   4.435 -0.1111 -0.4700  0.5861
 4916TIP3    H136163   2.119   0.553   4.524  1.5236  1.6616  1.0991
 4916TIP3    H236164   2.248   0.544   4.445  0.0860 -0.6968 -1.0829
 4917TIP3   OH236165   1.048   4.021   6.098 -0.2365  0.2589 -0.2010
 4917TIP3    H136166   1.093   4.057   6.174 -0.4803  1.1396 -0.4564
 4917TIP3    H236167   1.037   3.928   6.117  1.2705  0.1303  0.0553
 4918TIP3   OH236168   1.609   3.656  11.164  0.3255 -0.8075 -0.4163
 4918TIP3    H136169   1.698   3.670  11.131  0.6748  0.0939  0.8844
 4918TIP3    H236170   1.577   3.744  11.186 -0.0091 -1.3527  1.3522
 4919TIP3   OH236171   5.696   4.243  16.390 -0.0418  0.5113 -0.2855
 4919TIP3    H136172   5.687   4.198  16.306  0.3005 -0.2244  0.0720
 4919TIP3    H236173   5.607   4.265  16.415 -0.4224 -1.8052  0.5386
 4920TIP3   OH236174   6.346   1.946   5.238  0.1310  0.2572 -0.0250
 4920TIP3    H136175   6.304   1.867   5.273  1.9459 -0.4321  0.7272
 4920TIP3    H236176   6.341   1.936   5.143 -0.8020 -0.1289  0.0617
 4921TIP3   OH236177   4.153   6.435  14.422  0.3862  0.1946  0.6820
 4921TIP3    H136178   4.091   6.456  14.352  0.6185 -1.1724  0.0304
 4921TIP3    H236179   4.100   6.396  14.491  0.3347  0.2918  0.6976
 4922TIP3   OH236180   2.427   1.181   5.489  0.0983 -0.4450 -0.5960
 4922TIP3    H136181   2.365   1.108   5.494 -0.1764 -0.2012 -0.4302
 4922TIP3    H236182   2.507   1.141   5.456  0.1868 -0.9821  0.2429
 4923TIP3   OH236183   4.878   3.151  13.206  0.3756 -0.0757 -0.5440
 4923TIP3    H136184   4.787   3.174  13.190  0.6406  1.2238 -0.2770
 4923TIP3    H236185   4.917   3.231  13.244  1.7940 -0.3684 -1.3387
 4924TIP3   OH236186   0.707   5.414  13.914 -0.3565  0.1976  0.1527
 4924TIP3    H136187   0.661   5.478  13.969  0.2887 -0.1457  1.1145
 4924TIP3    H236188   0.723   5.340  13.973  1.7279  0.4460 -0.0623
 4925TIP3   OH236189   0.768   4.848  11.538 -0.2182  0.4467  0.2985
 4925TIP3    H136190   0.858   4.824  11.562 -0.8021 -0.3608  1.7007
 4925TIP3    H236191   0.765   4.834  11.443  0.2267 -2.5589  0.6728
 4926TIP3   OH236192   2.877   0.031   1.972  1.2787  0.1717  0.1060
 4926TIP3    H136193   2.839   0.110   2.010  1.4641 -0.4796  1.6778
 4926TIP3    H236194   2.909   0.059   1.886 -2.4886  0.7633 -1.1614
 4927TIP3   OH236195   1.871   2.331   6.430  0.2388  0.5382  0.1099
 4927TIP3    H136196   1.798   2.285   6.390 -0.0289  0.8304  0.2597
 4927TIP3    H236197   1.936   2.263   6.449 -0.6264  0.0489  1.3961
 4928TIP3   OH236198   1.694   5.485  15.021 -0.0885 -0.2746 -0.2033
 4928TIP3    H136199   1.750   5.546  14.973  0.0239 -1.9367 -2.2600
 4928TIP3    H236200   1.705   5.510  15.113  1.5691  1.4382 -0.8210
 4929TIP3   OH236201   2.018   6.029  14.562  0.1645 -0.0716  0.3445
 4929TIP3    H136202   2.087   6.041  14.496  0.7179 -0.6513  0.8064
 4929TIP3    H236203   1.947   6.086  14.533 -0.8617 -2.5969 -2.5037
 4930TIP3   OH236204   6.137   0.323   2.638 -0.3590 -0.4103  0.4780
 4930TIP3    H136205   6.100   0.387   2.698 -0.2999 -0.6863  0.8113
 4930TIP3    H236206   6.091   0.241   2.658 -1.1040 -0.2611 -0.5917
 4931TIP3   OH236207   6.483   6.693   2.568 -0.6298 -0.0963 -0.1365
 4931TIP3    H136208   6.470   6.599   2.583  1.5934 -0.2441  1.1120
 4931TIP3    H236209   6.404   6.721   2.522 -0.6275 -2.8918 -1.9837
 4932TIP3   OH236210   6.677   6.136   5.321  0.3573  0.3104 -0.1312
 4932TIP3    H136211   6.592   6.093   5.335  0.7033 -0.6867 -1.0329
 4932TIP3    H236212   6.657   6.209   5.262 -0.1976  1.2698  1.2293
 4933TIP3   OH236213   6.433   2.756  13.625  0.1835 -0.1533 -0.0122
 4933TIP3    H136214   6.471   2.742  13.712 -3.2619 -0.0643  1.5876
 4933TIP3    H236215   6.445   2.673  13.580 -0.5996 -1.1532  1.6044
 4934TIP3   OH236216   0.190   5.987   4.375 -0.1926 -0.3908  0.9107
 4934TIP3    H136217   0.197   5.960   4.284  0.3704 -0.9135  1.1059
 4934TIP3    H236218   0.096   5.998   4.390 -0.2506  0.1630  0.1348
 4935TIP3   OH236219   4.393   2.700   1.439 -0.2190  0.0969  0.1669
 4935TIP3    H136220   4.317   2.651   1.409  0.3858 -0.8096  0.1166
 4935TIP3    H236221   4.356   2.779   1.478 -1.1885 -0.3828  0.2375
 4936TIP3   OH236222   0.443   6.030  11.381 -0.2883  0.4328  0.4637
 4936TIP3    H136223   0.505   6.052  11.312 -0.4057  0.6283  0.4196
 4936TIP3    H236224   0.395   5.955  11.347 -0.7546  0.8994  0.0800
 4937TIP3   OH236225   5.660   0.032   2.975 -0.0193  0.0116 -0.4056
 4937TIP3    H136226   5.593  -0.032   2.950 -1.5838  1.5573 -0.2739
 4937TIP3    H236227   5.695   0.063   2.891 -0.5563  0.3037 -0.5286
 4938TIP3   OH236228   2.059   1.843   4.744  0.1210  0.3839 -1.2707
 4938TIP3    H136229   2.056   1.844   4.648  0.5566  0.5134 -1.2829
 4938TIP3    H236230   2.133   1.900   4.766 -0.2195  0.6619 -0.8462
 4939TIP3   OH236231   3.457   4.994   2.178 -0.0158  0.3147 -0.5518
 4939TIP3    H136232   3.540   5.020   2.137  0.0169  1.5188  0.2445
 4939TIP3    H236233   3.411   5.076   2.194 -0.0468 -0.1102  1.7480
 4940TIP3   OH236234   0.638   0.831  11.637  0.6643 -0.1356 -0.0791
 4940TIP3    H136235   0.570   0.797  11.579  0.4630  0.3040 -0.1069
 4940TIP3    H236236   0.698   0.758  11.650  0.3379 -0.4400 -0.2854
 4941TIP3   OH236237   6.220   2.172  15.156  0.3429  0.3145  0.4321
 4941TIP3    H136238   6.168   2.118  15.096  0.5437 -0.5001  0.9859
 4941TIP3    H236239   6.168   2.174  15.236  0.9871 -0.1759  0.8564
 4942TIP3   OH236240   2.230   5.265   1.372 -0.4106  0.3266 -0.2009
 4942TIP3    H136241   2.268   5.252   1.286  0.8953  2.0390  0.1122
 4942TIP3    H236242   2.292   5.223   1.432 -0.7167  0.1859  0.0188
 4943TIP3   OH236243   6.699   1.552  13.410  0.4793  0.2336  0.2842
 4943TIP3    H136244   6.669   1.607  13.338  0.2467  3.5736  2.8255
 4943TIP3    H236245   6.643   1.474  13.406 -0.7879  1.2273 -1.9470
 4944TIP3   OH236246   6.378   3.310  16.068  0.0910 -0.6485 -0.0071
 4944TIP3    H136247   6.303   3.359  16.101  1.0767  0.8613  0.0461
 4944TIP3    H236248   6.346   3.220  16.057 -2.0788  0.2474 -1.2315
 4945TIP3   OH236249   2.003   1.080   2.020  0.1941 -0.2886  0.3525
 4945TIP3    H136250   2.042   1.116   1.940  1.3566  0.3309  1.1919
 4945TIP3    H236251   1.935   1.144   2.044  0.1614 -0.2353  0.1180
 4946TIP3   OH236252   3.917   0.800  14.608 -0.0003  0.4072 -0.3567
 4946TIP3    H136253   3.979   0.728  14.620 -1.0639 -0.8853 -2.3453
 4946TIP3    H236254   3.831   0.761  14.622 -0.5487  1.4479 -0.7527
 4947TIP3   OH236255   6.584   2.723   3.787 -0.2650  0.3154  0.1490
 4947TIP3    H136256   6.552   2.711   3.697 -1.5049  3.1332  0.1548
 4947TIP3    H236257   6.661   2.779   3.778  0.1968 -0.2077  0.7790
 4948TIP3   OH236258   1.734   4.411  16.335  0.0968  0.4227 -0.1296
 4948TIP3    H136259   1.650   4.424  16.290  0.1179 -2.3313 -1.0582
 4948TIP3    H236260   1.717   4.433  16.426 -2.1112 -1.6961  0.0059
 4949TIP3   OH236261   5.690   0.756   1.885  0.6714 -0.3652  0.0165
 4949TIP3    H136262   5.678   0.778   1.793  0.5610  0.1791  0.1631
 4949TIP3    H236263   5.668   0.836   1.933 -1.4619 -1.2730  0.6350
 4950TIP3   OH236264   0.006   3.016   0.250  0.0477 -0.1087  0.2025
 4950TIP3    H136265  -0.082   3.012   0.213 -0.1033  2.3582  0.2110
 4950TIP3    H236266   0.064   3.020   0.174  0.0053  0.3693  0.1897
 4951TIP3   OH236267   3.498   6.354  15.458  0.2746 -0.4371 -0.3106
 4951TIP3    H136268   3.446   6.300  15.518 -0.1754 -0.7739 -1.0031
 4951TIP3    H236269   3.582   6.310  15.453  0.2003 -0.5943 -0.1917
 4952TIP3   OH236270   0.455   3.613  11.352  0.2843  0.2583  0.1344
 4952TIP3    H136271   0.441   3.563  11.272  0.1170 -0.0768  0.3719
 4952TIP3    H236272   0.373   3.604  11.401  1.1005 -1.2683  1.2942
 4953TIP3   OH236273   6.537   4.046  14.090  0.0324 -0.4651 -0.0534
 4953TIP3    H136274   6.463   3.987  14.080 -0.6213  0.5673 -1.3816
 4953TIP3    H236275   6.576   4.053  14.003  0.8929  0.0524  0.3588
 4954TIP3   OH236276   1.308   6.748  12.170 -0.1188  0.0534  0.1848
 4954TIP3    H136277   1.284   6.656  12.166 -0.3690  0.0852  0.8992
 4954TIP3    H236278   1.283   6.783  12.084  2.3378 -1.0932 -1.0620
 4955TIP3   OH236279   0.374   0.555   4.609  0.3345 -0.5364 -0.5250
 4955TIP3    H136280   0.376   0.511   4.524  1.6622 -1.1331 -0.2024
 4955TIP3    H236281   0.465   0.579   4.626 -0.2328  1.5075 -0.2390
 4956TIP3   OH236282   2.060   4.826   4.729 -0.4545 -0.3228  0.2866
 4956TIP3    H136283   2.156   4.830   4.733 -0.3329  1.8296 -3.0371
 4956TIP3    H236284   2.041   4.745   4.681 -0.1219  1.0281 -2.2043
 4957TIP3   OH236285   4.013   0.345   0.370 -0.2800  0.0162  1.0987
 4957TIP3    H136286   4.037   0.407   0.301 -2.5337  0.8397  0.9777
 4957TIP3    H236287   3.933   0.383   0.409 -2.2883 -3.2673  0.3967
 4958TIP3   OH236288   2.162   4.683  11.542 -0.2371 -0.5198 -0.0959
 4958TIP3    H136289   2.228   4.674  11.474  0.5158 -1.2627  0.7302
 4958TIP3    H236290   2.207   4.659  11.623 -0.8604  1.2914  0.8024
 4959TIP3   OH236291   2.145   6.628  15.796 -0.0413 -0.3714  0.1728
 4959TIP3    H136292   2.225   6.679  15.783 -0.5279 -0.3413 -3.0707
 4959TIP3    H236293   2.153   6.556  15.733 -3.2506  0.4627 -1.2349
 4960TIP3   OH236294   6.517   0.649  16.294  0.2777 -0.3790 -0.0907
 4960TIP3    H136295   6.557   0.637  16.380 -1.7536  0.4660  1.0221
 4960TIP3    H236296   6.590   0.664  16.235  1.7027 -0.8596  1.5108
 4961TIP3   OH236297   3.943   0.966   1.436  0.0501  0.7287 -0.0188
 4961TIP3    H136298   3.855   0.933   1.417  0.1455 -0.2082  1.1319
 4961TIP3    H236299   3.929   1.042   1.492 -0.0764  1.3198 -0.8500
 4962TIP3   OH236300   6.553   0.270   2.220  0.3350 -0.9249 -0.7303
 4962TIP3    H136301   6.464   0.269   2.186  0.4535  1.4605 -1.1780
 4962TIP3    H236302   6.545   0.240   2.310 -1.2610  1.2911 -0.0834
 4963TIP3   OH236303   0.596   1.078   2.201 -0.4379 -0.2386  0.2687
 4963TIP3    H136304   0.545   1.005   2.166 -0.0917 -0.2803 -0.1388
 4963TIP3    H236305   0.684   1.064   2.168 -0.5001  0.6888 -0.2764
 4964TIP3   OH236306   1.770   6.397   3.084 -0.3361 -0.6879  0.5389
 4964TIP3    H136307   1.847   6.435   3.125 -0.8766 -0.2099  1.1284
 4964TIP3    H236308   1.750   6.456   3.011  0.3555 -1.2853 -0.1380
 4965TIP3   OH236309   1.057   3.376   4.785  0.3760 -0.1953 -0.0733
 4965TIP3    H136310   1.108   3.435   4.730 -0.1632  0.7306  0.4067
 4965TIP3    H236311   1.087   3.394   4.874  0.2978 -0.7305  0.0634
 4966TIP3   OH236312   5.633   0.935   3.279 -0.2923  0.1687 -0.2923
 4966TIP3    H136313   5.641   0.921   3.185 -1.1448  1.0384 -0.5132
 4966TIP3    H236314   5.720   0.916   3.314  0.0934  0.0669 -1.2853
 4967TIP3   OH236315   0.027   4.100  11.159 -0.4603  0.1113 -0.3379
 4967TIP3    H136316   0.019   4.175  11.219  0.1284 -0.1450  0.0743
 4967TIP3    H236317   0.106   4.054  11.190 -0.5085 -0.3668 -0.9302
 4968TIP3   OH236318   4.975   0.758   5.766 -0.4469 -0.3536 -0.1641
 4968TIP3    H136319   4.977   0.764   5.861  0.3462 -1.1591 -0.1233
 4968TIP3    H236320   4.890   0.795   5.741  0.8153  3.2589  0.5912
 4969TIP3   OH236321   5.231   3.864  15.410 -0.3163  0.2083 -0.4952
 4969TIP3    H136322   5.271   3.871  15.497 -0.3917 -2.2716 -0.2389
 4969TIP3    H236323   5.143   3.831  15.427 -0.1849 -0.6849 -1.5479
 4970TIP3   OH236324   1.776   5.281  15.261  0.0749 -0.7858 -0.7470
 4970TIP3    H136325   1.831   5.211  15.295 -0.9832 -0.3379  2.0304
 4970TIP3    H236326   1.836   5.353  15.244  0.3033  0.1139  3.3695
 4971TIP3   OH236327   1.762   1.959  13.949  0.4011 -0.5957 -0.4389
 4971TIP3    H136328   1.698   1.888  13.937  2.2713 -2.3258 -0.4272
 4971TIP3    H236329   1.798   1.974  13.862 -0.2383  0.5970 -0.5025
 4972TIP3   OH236330   1.519   5.310  12.543 -0.4109 -0.4640 -0.2332
 4972TIP3    H136331   1.477   5.224  12.543 -0.3348 -0.5094  0.8883
 4972TIP3    H236332   1.557   5.318  12.630  1.1353 -0.0343 -0.9360
 4973TIP3   OH236333   5.116   2.805  15.425 -0.5526 -0.3103 -0.8081
 4973TIP3    H136334   5.028   2.793  15.390  0.1793  0.0110 -2.8296
 4973TIP3    H236335   5.141   2.893  15.399  0.4215 -0.4319 -0.3373
 4974TIP3   OH236336   6.556   3.976   2.946 -0.0222 -0.1511 -0.6799
 4974TIP3    H136337   6.578   3.898   2.897  1.4951 -0.0057 -0.2464
 4974TIP3    H236338   6.523   3.943   3.030 -2.0997 -0.3821 -1.5569
 4975TIP3   OH236339   0.911   5.930   2.036  0.7841 -0.4451  0.4277
 4975TIP3    H136340   0.896   5.862   1.971  1.5375  1.0264 -1.3477
 4975TIP3    H236341   1.006   5.929   2.050  0.9478  0.9819 -0.4743
 4976TIP3   OH236342   2.598   6.153   4.207 -0.2028  0.3109 -0.1004
 4976TIP3    H136343   2.637   6.218   4.265  0.3850 -0.7007  0.6532
 4976TIP3    H236344   2.653   6.154   4.129 -0.5941  1.1848 -0.3803
 4977TIP3   OH236345   2.168   5.518   2.488 -0.3945 -0.0909  0.0740
 4977TIP3    H136346   2.252   5.517   2.442 -1.0772 -0.0364 -1.1925
 4977TIP3    H236347   2.188   5.554   2.575  1.1204 -1.2828  0.2359
 4978TIP3   OH236348   6.067   5.409   2.841  0.3487  0.1820 -0.3103
 4978TIP3    H136349   6.058   5.504   2.849 -0.8675  0.0797 -0.3954
 4978TIP3    H236350   6.161   5.393   2.850  0.7320  1.5217 -1.7293
 4979TIP3   OH236351   5.286   6.228   3.327  0.1909 -0.0187 -0.5989
 4979TIP3    H136352   5.380   6.245   3.317 -0.0211  0.8559 -1.1351
 4979TIP3    H236353   5.252   6.228   3.237 -0.3277 -0.2966 -0.4043
 4980TIP3   OH236354   1.488   4.335   3.317  0.6361 -0.4433 -0.0201
 4980TIP3    H136355   1.449   4.267   3.372  1.2782 -0.7224  0.0987
 4980TIP3    H236356   1.444   4.327   3.233 -1.0101  0.5895  0.7308
 4981TIP3   OH236357   1.401   2.780  15.471 -0.1573 -0.0127  0.0939
 4981TIP3    H136358   1.441   2.818  15.549  1.0744 -1.2559  0.0937
 4981TIP3    H236359   1.353   2.852  15.431  0.4042  1.0046  1.2119
 4982TIP3   OH236360   6.699   5.499   3.351 -0.8294  0.8653 -0.3533
 4982TIP3    H136361   6.766   5.559   3.320  1.1355 -0.9827  0.1991
 4982TIP3    H236362   6.693   5.515   3.445  1.4808 -1.4172  0.2499
 4983TIP3   OH236363   6.208   3.499   5.086 -0.1270 -0.3218 -0.2002
 4983TIP3    H136364   6.165   3.479   5.169  0.2472 -0.6272 -0.0745
 4983TIP3    H236365   6.192   3.592   5.072  1.1153  0.0940  0.9944
 4984TIP3   OH236366   6.624   0.570  14.642  0.3542 -0.3860 -0.2121
 4984TIP3    H136367   6.652   0.609  14.560  2.6472 -1.8130 -0.1543
 4984TIP3    H236368   6.703   0.569  14.696 -1.0005  0.0789  1.8431
 4985TIP3   OH236369   2.266   1.434   2.188 -0.4506 -0.4390  0.2996
 4985TIP3    H136370   2.344   1.384   2.207  0.0698  0.0194 -0.5878
 4985TIP3    H236371   2.206   1.413   2.259 -0.3896 -2.5923 -0.2516
 4986TIP3   OH236372   3.130   3.027   2.113  0.6279  0.7440 -0.2602
 4986TIP3    H136373   3.073   2.950   2.106  0.7437  0.5557  0.9262
 4986TIP3    H236374   3.146   3.052   2.022  0.7339 -0.7401 -0.6597
 4987TIP3   OH236375   4.664   2.882   2.678  0.2530 -0.4530 -0.4313
 4987TIP3    H136376   4.603   2.921   2.741  1.8619 -1.0218  1.5261
 4987TIP3    H236377   4.617   2.883   2.595 -2.4392 -0.9370  1.0442
 4988TIP3   OH236378   2.124   2.910  15.920 -0.3372  0.1406  0.0044
 4988TIP3    H136379   2.047   2.926  15.865 -1.0588 -1.2146  0.5782
 4988TIP3    H236380   2.092   2.851  15.989  1.1420 -0.1768  0.4399
 4989TIP3   OH236381   0.457   1.876   1.091 -0.0788 -0.4342  0.3081
 4989TIP3    H136382   0.377   1.909   1.050 -0.1843  1.2629  1.8411
 4989TIP3    H236383   0.520   1.947   1.082  0.8043 -1.1910  0.4487
 4990TIP3   OH236384   2.144   0.094   3.220 -0.0327  0.0274 -0.5527
 4990TIP3    H136385   2.057   0.053   3.225 -0.2342  0.5207  0.0515
 4990TIP3    H236386   2.203   0.021   3.202 -0.8396 -0.0179 -3.3065
 4991TIP3   OH236387   1.943   5.549  16.093  0.3017 -0.3768 -0.0602
 4991TIP3    H136388   1.876   5.598  16.045  0.5995  0.0067 -0.0943
 4991TIP3    H236389   2.019   5.608  16.093  1.4967 -1.8523 -2.2855
 4992TIP3   OH236390   1.123   4.388   6.120  0.1171 -0.1395 -0.7066
 4992TIP3    H136391   1.110   4.384   6.215  0.3830 -1.1905 -0.7068
 4992TIP3    H236392   1.196   4.327   6.103  0.1484  0.1263 -1.5654
 4993TIP3   OH236393   5.622   2.654   5.850 -0.7899  0.0278  0.1283
 4993TIP3    H136394   5.617   2.706   5.770 -0.8232  1.1516  0.8431
 4993TIP3    H236395   5.708   2.675   5.886 -1.0292  0.0221  0.7107
 4994TIP3   OH236396   2.732   2.080  17.085  0.0972  0.5399 -0.2939
 4994TIP3    H136397   2.646   2.065  17.045  0.1049 -2.2489  0.5969
 4994TIP3    H236398   2.727   2.034  17.169  1.8000  2.0251  0.6548
 4995TIP3   OH236399   0.110   5.991  13.656 -0.2230 -0.4704  0.4680
 4995TIP3    H136400   0.200   5.963  13.672 -0.1411  0.5921  2.0523
 4995TIP3    H236401   0.090   5.962  13.567  1.4774 -1.2365  0.3298
 4996TIP3   OH236402   6.072   2.137   2.664 -0.5030 -0.5135 -0.2198
 4996TIP3    H136403   6.078   2.106   2.574  0.7597  2.2313 -1.1470
 4996TIP3    H236404   6.004   2.204   2.662  0.3723  0.4186  0.6088
 4997TIP3   OH236405   4.712   5.264   0.705 -0.0602 -0.3229 -0.2320
 4997TIP3    H136406   4.682   5.188   0.655 -3.2815  1.2800 -0.8218
 4997TIP3    H236407   4.632   5.302   0.741  1.5243  2.7493  0.1430
 4998TIP3   OH236408   3.573   6.402  14.194 -0.1269  0.4076 -0.5411
 4998TIP3    H136409   3.622   6.380  14.116 -0.7502  2.5225 -1.5688
 4998TIP3    H236410   3.639   6.431  14.257  0.0277  2.6104 -1.6870
 4999TIP3   OH236411   4.975   3.888   4.882 -0.4499 -0.0395  0.4342
 4999TIP3    H136412   5.053   3.863   4.931 -1.4941  0.0532  2.1741
 4999TIP3    H236413   4.943   3.966   4.926 -1.7944 -0.3482  0.0224
 5000TIP3   OH236414   0.057   5.126  14.531  0.4538  0.4152 -0.3368
 5000TIP3    H136415   0.138   5.104  14.577 -0.4849 -0.3349  0.9875
 5000TIP3    H236416   0.071   5.216  14.501  1.2410  0.8045  1.1098
 5001TIP3   OH236417   3.077   4.245   5.856  0.5066 -0.2122  0.2024
 5001TIP3    H136418   3.031   4.183   5.798  2.2160 -0.6086 -0.7876
 5001TIP3    H236419   3.137   4.190   5.906  0.5774  0.4022  0.7864
 5002TIP3   OH236420   0.596   3.068   0.963  0.4169 -0.1114  0.3895
 5002TIP3    H136421   0.582   3.053   0.869 -2.1608  0.8427  0.5618
 5002TIP3    H236422   0.532   3.011   1.006  0.8090  0.2847  1.5316
 5003TIP3   OH236423   2.889   4.911  16.509 -0.6234 -0.0646 -0.0007
 5003TIP3    H136424   2.879   4.972  16.582 -1.7278  1.0536 -1.0705
 5003TIP3    H236425   2.799   4.889  16.484 -0.2438 -0.6941 -0.8260
 5004TIP3   OH236426   4.105   4.403  13.456 -0.5328  0.2887 -0.0267
 5004TIP3    H136427   4.058   4.416  13.373  1.3273 -0.3431 -1.2022
 5004TIP3    H236428   4.177   4.345  13.434 -0.0414  0.0770  2.0704
 5005TIP3   OH236429   4.096   2.548   1.474 -0.1441 -0.0089  0.4150
 5005TIP3    H136430   4.163   2.523   1.538 -0.1520 -0.7618  0.1454
 5005TIP3    H236431   4.083   2.468   1.422 -2.0313 -0.1959  1.1395
 5006TIP3   OH236432   6.402   5.876  16.648 -0.5403  0.0447  0.3074
 5006TIP3    H136433   6.461   5.802  16.637  0.7006  1.0730 -0.0785
 5006TIP3    H236434   6.360   5.861  16.733 -0.8226 -1.4463 -0.0758
 5007TIP3   OH236435   5.392   3.551   5.802 -0.0785 -0.1948  0.6944
 5007TIP3    H136436   5.466   3.494   5.785  0.1971  0.6705 -1.1306
 5007TIP3    H236437   5.330   3.533   5.731 -1.1702 -0.1629  1.6142
 5008TIP3   OH236438   4.428   6.349   2.545 -0.1846 -0.1912 -0.4723
 5008TIP3    H136439   4.433   6.257   2.519 -1.0503 -0.1245 -0.8879
 5008TIP3    H236440   4.341   6.358   2.584 -0.8012  0.8726 -2.0776
 5009TIP3   OH236441   1.576   2.463  11.269 -0.1117  0.1312  0.4173
 5009TIP3    H136442   1.557   2.381  11.314  0.2098 -0.4235 -0.4509
 5009TIP3    H236443   1.528   2.456  11.186  1.8479 -0.2092 -0.7001
 5010TIP3   OH236444   6.374   5.350   1.207 -0.5682  0.4067 -0.1796
 5010TIP3    H136445   6.335   5.272   1.168 -0.9739  0.5869 -0.1362
 5010TIP3    H236446   6.317   5.372   1.280  0.9083 -0.6990  1.3647
 5011TIP3   OH236447   6.484   2.755   5.749 -0.1783 -0.5304  0.4680
 5011TIP3    H136448   6.463   2.708   5.830 -2.2218  1.8269  1.3468
 5011TIP3    H236449   6.535   2.831   5.778  0.0019 -0.2431 -0.5860
 5012TIP3   OH236450   1.292   6.376  16.478 -0.8053  0.7619 -0.4148
 5012TIP3    H136451   1.294   6.281  16.467  0.2237  0.4021  2.5391
 5012TIP3    H236452   1.212   6.393  16.528 -0.5222  1.3605 -0.1594
 5013TIP3   OH236453   2.059   2.938   0.484 -0.4719  0.2798 -0.0481
 5013TIP3    H136454   1.993   2.982   0.538  0.8378  0.2457  1.5989
 5013TIP3    H236455   2.076   2.855   0.528  0.3936  0.1122 -0.6823
 5014TIP3   OH236456   2.731   4.965   4.490 -0.4588  0.5261  0.2808
 5014TIP3    H136457   2.760   4.891   4.436  0.3651 -0.1496  1.6156
 5014TIP3    H236458   2.648   4.937   4.528 -1.1148  1.0627 -0.7567
 5015TIP3   OH236459   6.163   4.700   3.151 -0.3192  0.1577 -0.8444
 5015TIP3    H136460   6.199   4.762   3.087  1.2676 -1.1047 -1.2320
 5015TIP3    H236461   6.204   4.725   3.234 -2.3714  1.7896 -0.2884
 5016TIP3   OH236462   2.562   3.895  11.763 -0.7521  0.2693  0.1107
 5016TIP3    H136463   2.522   3.808  11.770  0.1248 -0.2771 -1.4562
 5016TIP3    H236464   2.623   3.898  11.837 -1.9216  0.1884  1.1087
 5017TIP3   OH236465   1.232   2.386   5.444 -0.4349  0.4644  0.5481
 5017TIP3    H136466   1.195   2.451   5.384 -2.6560  1.1578  2.5794
 5017TIP3    H236467   1.265   2.438   5.518  2.4374 -0.3606 -0.0956
 5018TIP3   OH236468   1.400   1.310   5.967  0.5589  0.2119 -0.0672
 5018TIP3    H136469   1.392   1.215   5.953 -0.7176  0.2401  0.4134
 5018TIP3    H236470   1.412   1.346   5.879  1.6638 -0.4421 -0.2000
 5019TIP3   OH236471   2.563   0.349  17.079  0.1594 -0.0780  0.1247
 5019TIP3    H136472   2.610   0.349  17.162  0.0665  0.8397  0.1780
 5019TIP3    H236473   2.591   0.268  17.035  3.3791  1.4526 -0.7710
 5020TIP3   OH236474   1.615   2.083  14.887  0.0015 -0.4031 -0.1644
 5020TIP3    H136475   1.572   2.095  14.971 -0.3570 -1.8425 -0.1221
 5020TIP3    H236476   1.672   2.159  14.877 -0.4959  0.1274  1.0469
 5021TIP3   OH236477   1.614   0.933   2.059  0.2564 -0.5365 -0.1407
 5021TIP3    H136478   1.532   0.940   2.011 -0.2686  0.1029  0.8342
 5021TIP3    H236479   1.628   0.839   2.069  0.2781 -0.6735 -1.3603
 5022TIP3   OH236480   6.090   0.149   0.170  0.0908 -0.0171  0.0809
 5022TIP3    H136481   6.168   0.105   0.204  0.5697  0.5939 -0.2215
 5022TIP3    H236482   6.042   0.176   0.248  0.7136  0.5398  0.2822
 5023TIP3   OH236483   2.376   3.165  16.939 -0.2591 -0.2250 -0.1138
 5023TIP3    H136484   2.355   3.214  16.860 -0.2665  1.7797  1.0971
 5023TIP3    H236485   2.301   3.179  16.996  0.2786 -0.6504  0.7087
 5024TIP3   OH236486   1.044   5.430  16.981  1.0357  0.1884  0.2463
 5024TIP3    H136487   0.968   5.487  16.977  1.3112  0.4817 -1.4425
 5024TIP3    H236488   1.050   5.403  17.073 -0.8833  0.4348  0.4630
 5025TIP3   OH236489   1.478   4.720  15.323 -0.2889  0.4873  0.4180
 5025TIP3    H136490   1.561   4.762  15.302 -0.4366  0.7346  0.3300
 5025TIP3    H236491   1.499   4.627  15.329 -0.2938  0.3699 -1.1190
 5026TIP3   OH236492   6.091   0.117  15.446 -0.1538 -0.2169  0.1137
 5026TIP3    H136493   6.102   0.206  15.412 -2.3178  0.2581  0.5945
 5026TIP3    H236494   6.005   0.118  15.488 -0.8997 -2.9713 -1.2543
 5027TIP3   OH236495   0.855   3.136  14.496 -0.2428 -0.2818 -0.2900
 5027TIP3    H136496   0.889   3.167  14.413  0.8202 -0.7927 -0.0548
 5027TIP3    H236497   0.913   3.174  14.562 -0.6616 -0.4343  0.1731
 5028TIP3   OH236498   6.081   1.628   2.721 -0.2400 -0.4063 -0.6000
 5028TIP3    H136499   6.158   1.685   2.713 -1.4990  1.2181 -1.4485
 5028TIP3    H236500   6.007   1.688   2.730 -1.4295 -1.9510  0.2089
 5029TIP3   OH236501   4.975   4.219  13.791  0.1208 -0.1501  0.2624
 5029TIP3    H136502   4.899   4.254  13.837  0.4296  0.2734  0.4507
 5029TIP3    H236503   5.048   4.229  13.853  0.2076 -1.1670  0.3405
 5030TIP3   OH236504   1.414   3.560   4.045 -0.0327 -0.1349 -0.0240
 5030TIP3    H136505   1.357   3.607   3.984 -0.0297 -2.6654 -2.0452
 5030TIP3    H236506   1.365   3.483   4.071  1.2532 -0.7441  0.6716
 5031TIP3   OH236507   1.250   6.034  11.900 -0.0133  0.3383 -0.5880
 5031TIP3    H136508   1.227   5.941  11.900 -0.0731  0.2955  2.1870
 5031TIP3    H236509   1.288   6.050  11.814 -0.6133 -2.1078 -1.3345
 5032TIP3   OH236510   5.532   1.336  11.338  0.1495 -0.4543 -0.4773
 5032TIP3    H136511   5.579   1.370  11.262  0.6454  1.7858  0.7974
 5032TIP3    H236512   5.580   1.257  11.362  0.7786 -0.4526 -1.6710
 5033TIP3   OH236513   6.255   6.696   0.467  0.3866 -0.4371 -0.2281
 5033TIP3    H136514   6.199   6.679   0.543 -0.7369  2.4835 -0.3525
 5033TIP3    H236515   6.208   6.659   0.393 -0.9311  1.0943 -0.1789
 5034TIP3   OH236516   1.404   2.845   6.245 -0.0813 -0.3977  0.3414
 5034TIP3    H136517   1.332   2.782   6.244 -1.9891  1.6907  0.5974
 5034TIP3    H236518   1.361   2.930   6.234  2.5115  0.7856 -0.9767
 5035TIP3   OH236519   1.381   4.196  13.583 -0.1868 -0.1742 -0.3311
 5035TIP3    H136520   1.303   4.167  13.536 -0.2061  1.7193 -1.4993
 5035TIP3    H236521   1.355   4.280  13.623  1.1414  0.2981 -0.4468
 5036TIP3   OH236522   5.135   3.787   1.253 -0.6238  0.3196 -1.1051
 5036TIP3    H136523   5.081   3.754   1.324  0.5272 -1.0574 -0.8605
 5036TIP3    H236524   5.096   3.749   1.174 -0.2522 -0.3734 -0.9604
 5037TIP3   OH236525   1.207   6.773  14.038  0.5377  0.3125 -0.3249
 5037TIP3    H136526   1.262   6.851  14.027 -1.6451  1.8045 -0.9151
 5037TIP3    H236527   1.220   6.724  13.957 -0.1954  1.4631 -1.1680
 5038TIP3   OH236528   5.191   6.721   5.624  0.2153 -0.0062  0.2527
 5038TIP3    H136529   5.234   6.798   5.586 -1.2129  2.0808  2.6383
 5038TIP3    H236530   5.262   6.670   5.663  1.1495  0.2860 -1.0524
 5039TIP3   OH236531   1.933   6.637   4.184 -0.6525  0.4859 -0.0067
 5039TIP3    H136532   1.865   6.609   4.245 -0.0171  1.3796  1.1226
 5039TIP3    H236533   1.891   6.702   4.128 -0.9063  0.5574  0.2684
 5040TIP3   OH236534   5.529   5.933   3.330  0.0184 -0.6076  0.1351
 5040TIP3    H136535   5.576   5.856   3.299  0.2640 -0.1340 -0.6836
 5040TIP3    H236536   5.594   5.984   3.377  1.0938  1.3987 -3.3065
 5041TIP3   OH236537   5.442   5.569   1.823  0.3404 -0.5321  0.2507
 5041TIP3    H136538   5.365   5.512   1.823  1.1165 -1.6049 -0.7694
 5041TIP3    H236539   5.508   5.521   1.873  1.1672 -0.7809 -1.0472
 5042TIP3   OH236540   6.377   2.460  13.673 -0.4133 -0.0110 -0.5811
 5042TIP3    H136541   6.458   2.466  13.724 -0.7375 -2.3493  0.3140
 5042TIP3    H236542   6.398   2.398  13.603 -1.2293 -0.1444 -0.7118
 5043TIP3   OH236543   6.264   1.821  14.115  0.5108 -0.2842  0.0638
 5043TIP3    H136544   6.252   1.916  14.110  0.3187 -0.3177 -0.0847
 5043TIP3    H236545   6.270   1.803  14.209 -0.5412 -0.2680  0.1304
 5044TIP3   OH236546   1.645   4.560   1.192 -0.1444 -0.0371  0.5328
 5044TIP3    H136547   1.607   4.625   1.251  1.0511  0.2009  1.0393
 5044TIP3    H236548   1.646   4.604   1.106 -1.8866 -0.3917  0.3182
 5045TIP3   OH236549   2.021   6.298  12.589  0.4530 -0.2311 -0.1685
 5045TIP3    H136550   1.988   6.336  12.670  0.0685 -0.0763 -0.3955
 5045TIP3    H236551   1.944   6.256  12.549  0.2881  1.0579 -1.2304
 5046TIP3   OH236552   5.335   2.407  12.076  0.1519 -0.4385 -0.0243
 5046TIP3    H136553   5.252   2.426  12.033  0.0699 -0.5147  0.1047
 5046TIP3    H236554   5.312   2.370  12.161  0.3162 -2.3934 -0.8200
 5047TIP3   OH236555   3.167   3.650  13.381 -0.2055 -0.2574  0.2722
 5047TIP3    H136556   3.074   3.655  13.360 -0.3924 -0.4191  1.0282
 5047TIP3    H236557   3.211   3.651  13.296 -0.9218 -0.8123 -0.1111
 5048TIP3   OH236558   5.226   1.563   0.056 -0.3668  0.1990  0.6476
 5048TIP3    H136559   5.312   1.565   0.014 -0.6932  0.8215 -0.0017
 5048TIP3    H236560   5.192   1.476   0.036 -0.5557  0.5154 -0.4799
 5049TIP3   OH236561   1.675   4.536  13.341  0.2756  0.2105  0.2317
 5049TIP3    H136562   1.654   4.453  13.383 -0.8962  0.6050  0.4504
 5049TIP3    H236563   1.728   4.583  13.405  4.1375 -1.8299 -1.3107
 5050TIP3   OH236564   4.629   4.838   5.178  0.0314  0.4695  0.2941
 5050TIP3    H136565   4.701   4.900   5.170  0.9494 -0.7835 -1.4361
 5050TIP3    H236566   4.551   4.893   5.183  0.7610  1.7849 -1.8826
 5051TIP3   OH236567   1.200   3.671  13.532 -0.1890 -0.1290 -0.8709
 5051TIP3    H136568   1.171   3.696  13.444 -0.8892 -0.5064 -0.7471
 5051TIP3    H236569   1.164   3.583  13.545  0.9651 -0.5839 -0.6974
 5052TIP3   OH236570   2.845   3.632  16.581 -0.2834 -0.6002  0.8377
 5052TIP3    H136571   2.830   3.647  16.487  0.5976 -0.8670  0.6458
 5052TIP3    H236572   2.849   3.536  16.589  2.3788 -0.5359  0.6822
 5053TIP3   OH236573   5.823   1.451  13.159  0.4308 -0.1235 -1.0740
 5053TIP3    H136574   5.819   1.546  13.168  4.6927  0.2811 -2.3609
 5053TIP3    H236575   5.821   1.435  13.064  0.0470 -1.2762 -0.8846
 5054TIP3   OH236576   0.780   0.804   0.933 -0.5945  0.4520  0.4849
 5054TIP3    H136577   0.729   0.739   0.885 -2.5126  1.2148  1.4099
 5054TIP3    H236578   0.837   0.844   0.868 -0.3449 -1.2075 -0.3516
 5055TIP3   OH236579   6.737   1.129  15.735 -0.1195 -0.1633 -0.2157
 5055TIP3    H136580   6.771   1.212  15.701  1.5955 -0.3237  1.0780
 5055TIP3    H236581   6.678   1.155  15.806 -0.8979  0.0023 -0.9065
 5056TIP3   OH236582   6.596   3.345  17.005 -0.4972 -0.7609 -0.3734
 5056TIP3    H136583   6.564   3.433  16.989 -1.0966 -0.8184  0.4834
 5056TIP3    H236584   6.603   3.305  16.918  1.2347  0.6143 -0.8897
 5057TIP3   OH236585   2.877   5.184   2.346 -0.4842 -0.0539 -0.3071
 5057TIP3    H136586   2.880   5.256   2.409 -0.2311  0.0010 -0.3785
 5057TIP3    H236587   2.784   5.166   2.334 -0.6503  1.6983 -1.9191
 5058TIP3   OH236588   0.767   4.254   0.599 -0.2756  0.0837  0.3167
 5058TIP3    H136589   0.834   4.316   0.626  0.6452 -0.6894 -0.1724
 5058TIP3    H236590   0.702   4.256   0.670 -1.7306  3.7309 -1.0273
 5059TIP3   OH236591   6.706   1.747   1.926  0.0621 -0.6164 -0.2178
 5059TIP3    H136592   6.626   1.695   1.930  0.4869 -1.1225  2.0676
 5059TIP3    H236593   6.711   1.775   1.835 -2.7294 -0.5632 -0.4096
 5060TIP3   OH236594   4.521   3.492  13.867 -0.2653 -0.1872  0.5931
 5060TIP3    H136595   4.583   3.547  13.819 -0.1558 -0.7945  0.0348
 5060TIP3    H236596   4.572   3.456  13.939  0.1199 -0.9618 -0.0674
 5061TIP3   OH236597   3.312   0.986  16.903 -0.6147 -0.0004  0.3364
 5061TIP3    H136598   3.336   1.060  16.958 -1.1324  0.7442 -0.4320
 5061TIP3    H236599   3.360   0.912  16.940  1.3186  1.0645  0.0054
 5062TIP3   OH236600   3.052   0.560   2.256  0.1121 -0.6360  0.1443
 5062TIP3    H136601   2.989   0.618   2.299  1.6434  1.1092  0.0805
 5062TIP3    H236602   3.058   0.593   2.167  1.3744 -0.5703  0.2436
 5063TIP3   OH236603   1.457   3.081  11.424 -0.4765  0.4950 -0.4035
 5063TIP3    H136604   1.418   3.162  11.393  0.4957  1.6974  1.4468
 5063TIP3    H236605   1.403   3.055  11.499  0.0779  0.2116 -0.0929
 5064TIP3   OH236606   2.958   2.503   4.058 -0.4541 -0.4609  0.2409
 5064TIP3    H136607   2.886   2.531   4.001 -1.2615 -0.7526  1.0970
 5064TIP3    H236608   2.974   2.578   4.116  0.9134  0.1392 -0.8782
 5065TIP3   OH236609   5.762   1.483   1.451 -0.6672 -0.2899 -0.9652
 5065TIP3    H136610   5.730   1.400   1.486 -2.8001  1.9642  2.7217
 5065TIP3    H236611   5.684   1.534   1.433  0.6412  1.6697 -1.2688
 5066TIP3   OH236612   5.011   3.465   0.231 -0.0432  0.1751  0.6575
 5066TIP3    H136613   5.040   3.546   0.190  0.7859 -0.7523 -0.5919
 5066TIP3    H236614   4.964   3.418   0.162 -2.6306  0.6444  2.0292
 5067TIP3   OH236615   5.722   0.146  11.850 -0.5297  0.2159  0.2256
 5067TIP3    H136616   5.794   0.144  11.913 -0.4736 -2.2202  0.1400
 5067TIP3    H236617   5.723   0.059  11.810 -3.9825 -0.1603  0.7717
 5068TIP3   OH236618   4.622   3.677   3.010 -0.4128 -0.1486  0.2955
 5068TIP3    H136619   4.711   3.687   3.042 -0.2551  0.7552 -0.4084
 5068TIP3    H236620   4.579   3.760   3.032 -0.9294 -0.3733  0.1441
 5069TIP3   OH236621   1.290   4.103  15.809  0.0329 -0.1032  0.4093
 5069TIP3    H136622   1.328   4.077  15.893  0.6141 -0.8750 -0.0904
 5069TIP3    H236623   1.252   4.190  15.826  1.1809  0.2629  1.1675
 5070TIP3   OH236624   4.726   1.770  14.916  0.6685  0.4441 -0.2227
 5070TIP3    H136625   4.728   1.850  14.969  1.0709  1.3256 -1.5653
 5070TIP3    H236626   4.633   1.759  14.894  0.6597  0.7306 -0.3320
 5071TIP3   OH236627   6.775   6.280  16.007  0.3958  0.0647 -0.7913
 5071TIP3    H136628   6.716   6.355  16.001  0.4691  0.1167 -0.8650
 5071TIP3    H236629   6.862   6.317  15.999  0.4609  0.0367 -0.2315
 5072TIP3   OH236630   6.251   6.455  12.598 -0.2786  0.0627  0.2033
 5072TIP3    H136631   6.204   6.493  12.523  1.4332 -1.4023 -1.6817
 5072TIP3    H236632   6.333   6.505  12.601  1.6305 -2.7462 -1.7731
 5073TIP3   OH236633   3.026   0.423  11.453 -0.6556 -0.2571  0.2824
 5073TIP3    H136634   3.111   0.459  11.427 -1.4298  0.5341 -1.2510
 5073TIP3    H236635   3.043   0.378  11.536  1.4069 -0.7273 -0.3599
 5074TIP3   OH236636   3.154   3.704   0.977 -0.1163  0.4110  0.0829
 5074TIP3    H136637   3.208   3.707   1.056 -0.2973 -0.4253  0.2439
 5074TIP3    H236638   3.168   3.616   0.941 -0.0878  0.7639 -0.7824
 5075TIP3   OH236639   0.008   6.709  13.728  0.7226 -0.4131  0.3763
 5075TIP3    H136640  -0.025   6.790  13.766  0.0661  0.1263 -1.3187
 5075TIP3    H236641  -0.069   6.653  13.721  0.9383 -0.6955  0.2933
 5076TIP3   OH236642   6.673   4.462   3.009 -0.1041  0.2362 -0.0841
 5076TIP3    H136643   6.732   4.536   2.996 -0.5383  0.7674  0.9355
 5076TIP3    H236644   6.720   4.386   2.974  1.1991  0.6483  0.7842
 5077TIP3   OH236645   0.783   5.106  12.385  0.3806  0.2488  0.0305
 5077TIP3    H136646   0.764   5.081  12.294  2.9428 -0.5120 -0.3558
 5077TIP3    H236647   0.725   5.051  12.438 -1.1078  0.6677 -1.1304
 5078TIP3   OH236648   3.067   5.566   6.396 -0.5413  0.2770  0.1524
 5078TIP3    H136649   3.090   5.474   6.406 -1.5053 -0.0737 -0.7701
 5078TIP3    H236650   3.148   5.608   6.366  0.3005  0.0155  1.9386
 5079TIP3   OH236651   4.983   5.627   3.894  0.4903 -0.3177  0.2459
 5079TIP3    H136652   4.932   5.705   3.913 -0.6353 -1.1723  0.7875
 5079TIP3    H236653   4.922   5.554   3.907  1.3141 -1.2488 -0.9972
 5080TIP3   OH236654   5.708   1.852   5.178 -0.0296  0.0227  0.3899
 5080TIP3    H136655   5.725   1.902   5.098 -0.8263 -1.8509 -0.9849
 5080TIP3    H236656   5.617   1.874   5.201 -0.0419 -0.0155  0.3764
 5081TIP3   OH236657   2.767   4.321   0.843  0.0024 -0.0594 -0.5129
 5081TIP3    H136658   2.791   4.235   0.809  1.1758  0.6405 -1.5065
 5081TIP3    H236659   2.742   4.371   0.765 -2.0384  0.0854  0.2039
 5082TIP3   OH236660   6.032   2.377   3.387 -0.0884 -0.3311 -0.1233
 5082TIP3    H136661   5.943   2.387   3.421 -0.7070 -2.2098 -1.1507
 5082TIP3    H236662   6.033   2.291   3.345  2.1017 -0.1680 -0.4740
 5083TIP3   OH236663   5.444   4.495   0.649  0.2175  0.0060 -0.0704
 5083TIP3    H136664   5.482   4.541   0.723  0.1029  0.4073 -0.2624
 5083TIP3    H236665   5.363   4.457   0.684 -0.2363  0.8482 -0.1897
 5084TIP3   OH236666   5.063   5.793   2.218 -0.4139 -0.1360 -0.4640
 5084TIP3    H136667   5.009   5.835   2.284  0.1180 -1.2656  0.7324
 5084TIP3    H236668   5.007   5.725   2.181 -0.5160  0.1017 -0.7433
 5085TIP3   OH236669   4.043   4.183   0.039  0.2181  0.7813  0.3348
 5085TIP3    H136670   3.990   4.156  -0.035 -0.6962 -1.5088  1.7896
 5085TIP3    H236671   3.980   4.212   0.105  0.8563 -0.1192  1.3581
 5086TIP3   OH236672   4.045   3.066   0.934 -0.1137  0.2187  0.2836
 5086TIP3    H136673   4.106   3.123   0.886 -0.1489  0.5905  0.6806
 5086TIP3    H236674   3.963   3.115   0.934  0.2762  0.8922  2.0224
 5087TIP3   OH236675   5.606   0.115   5.492 -0.0715 -0.2271 -0.1270
 5087TIP3    H136676   5.633   0.122   5.584  1.0840 -0.7472 -0.4083
 5087TIP3    H236677   5.655   0.185   5.448  2.4755 -2.4793 -0.9943
 5088TIP3   OH236678   5.585   6.485   5.291 -0.9659 -0.1273 -0.3188
 5088TIP3    H136679   5.575   6.504   5.384 -1.1450  2.2243 -0.7699
 5088TIP3    H236680   5.677   6.460   5.281 -0.3395  1.8386  0.1879
 5089TIP3   OH236681   3.070   3.838   5.838  0.4991 -0.0929  0.3293
 5089TIP3    H136682   3.073   3.749   5.802 -0.6384 -0.3000  0.7204
 5089TIP3    H236683   2.988   3.841   5.887 -0.0556  1.5334 -0.6364
 5090TIP3   OH236684   6.158   4.033  11.360  0.3592  0.1031  0.3446
 5090TIP3    H136685   6.236   4.059  11.408  0.1878 -1.2158  1.3634
 5090TIP3    H236686   6.173   3.941  11.337 -0.5548  0.0641 -0.1110
 5091TIP3   OH236687   3.613   2.160   3.637  0.4163 -0.3495  0.0380
 5091TIP3    H136688   3.518   2.157   3.650  0.3172 -0.0943 -0.6226
 5091TIP3    H236689   3.629   2.242   3.591  0.9702 -0.3599  0.1996
 5092TIP3   OH236690   6.481   5.599  12.114  0.1388  0.5797  0.3335
 5092TIP3    H136691   6.444   5.525  12.162 -0.8139  0.5015 -0.5140
 5092TIP3    H236692   6.576   5.589  12.126  0.0025 -0.5396  0.5777
 5093TIP3   OH236693   0.966   2.898  15.380 -0.6290  0.2979  0.1435
 5093TIP3    H136694   0.952   2.872  15.289 -2.0426  3.0354 -0.4789
 5093TIP3    H236695   0.894   2.857  15.428 -1.2915  0.8514 -0.3729
 5094TIP3   OH236696   5.732   1.777   3.144  0.6973 -0.5283  0.7634
 5094TIP3    H136697   5.653   1.780   3.199  0.6452 -0.7098  0.6965
 5094TIP3    H236698   5.707   1.723   3.069  1.5675 -2.3844  1.7981
 5095TIP3   OH236699   2.201   0.769  13.737 -0.2404 -0.0653 -0.0653
 5095TIP3    H136700   2.240   0.696  13.689 -2.1565 -0.2108 -1.4532
 5095TIP3    H236701   2.159   0.822  13.669  1.6762  2.7168  0.8239
 5096TIP3   OH236702   6.196   5.062   4.043  0.3960 -0.2609 -0.1445
 5096TIP3    H136703   6.281   5.045   4.002  0.9834  1.4729  0.3113
 5096TIP3    H236704   6.153   4.977   4.043  1.5281 -0.8736 -1.7380
 5097TIP3   OH236705   4.959   4.969   5.692 -0.1585  0.3115  0.3838
 5097TIP3    H136706   4.984   4.970   5.784  0.3459 -0.4723  0.2609
 5097TIP3    H236707   4.869   5.002   5.691  0.1113  1.0933  1.0599
 5098TIP3   OH236708   0.378   1.709   1.298 -0.2048 -0.2497 -0.3467
 5098TIP3    H136709   0.418   1.754   1.224 -1.6150  0.9949 -0.3681
 5098TIP3    H236710   0.363   1.778   1.363  0.4998 -1.2263  0.9022
 5099TIP3   OH236711   3.945   2.563  12.694  0.0936  0.5115 -0.1595
 5099TIP3    H136712   3.943   2.573  12.599 -0.1369  0.4556 -0.1624
 5099TIP3    H236713   3.854   2.545  12.718 -0.0488  1.6105  0.1835
 5100TIP3   OH236714   0.037   5.366   1.181  0.2157  0.3232 -0.2215
 5100TIP3    H136715  -0.043   5.381   1.131  0.0788  1.4271  0.3079
 5100TIP3    H236716   0.108   5.387   1.120  0.0366  2.9042  0.3689
 5101TIP3   OH236717   2.011   4.026  14.625 -0.9049  0.3193  0.4568
 5101TIP3    H136718   2.027   4.079  14.546 -0.5592 -1.4123 -0.6592
 5101TIP3    H236719   1.925   3.988  14.612 -0.8920  0.1102  0.9726
 5102TIP3   OH236720   5.182   0.654  13.291  0.2831 -0.1878  0.4041
 5102TIP3    H136721   5.204   0.611  13.209 -1.6346 -2.4758  1.0256
 5102TIP3    H236722   5.107   0.710  13.269  0.2192 -0.2582  0.4430
 5103TIP3   OH236723   4.023   5.189  10.663  0.2101 -0.0376  0.0005
 5103TIP3    H136724   4.089   5.121  10.678  0.1533 -0.3842 -1.2284
 5103TIP3    H236725   3.961   5.148  10.603 -0.6855  0.5718  0.5059
 5104TIP3   OH236726   5.539   3.678   0.739 -0.0947  0.4193 -0.3547
 5104TIP3    H136727   5.560   3.768   0.763 -0.9242  0.4978  0.1188
 5104TIP3    H236728   5.515   3.636   0.822  2.5481 -0.8935 -0.2186
 5105TIP3   OH236729   0.753   6.455  11.411  0.5085  0.8606  0.6075
 5105TIP3    H136730   0.823   6.457  11.477 -0.9766  1.9853  2.1846
 5105TIP3    H236731   0.799   6.442  11.328  2.4054 -0.7011  1.8520
 5106TIP3   OH236732   1.396   4.651  14.250  0.3903 -0.2673  0.1825
 5106TIP3    H136733   1.374   4.726  14.194  0.1120  2.1688  3.4511
 5106TIP3    H236734   1.491   4.647  14.248  0.3787 -0.3030 -0.5730
 5107TIP3   OH236735   0.539   2.391  12.795  0.5163 -0.6913  0.4905
 5107TIP3    H136736   0.533   2.372  12.889  1.6259  0.6657  0.8473
 5107TIP3    H236737   0.552   2.485  12.791 -0.7582 -0.5679 -1.0890
 5108TIP3   OH236738   0.076   4.829   0.457  0.1550 -0.5043 -0.3677
 5108TIP3    H136739   0.088   4.824   0.362  1.6600  1.5489 -0.3065
 5108TIP3    H236740   0.090   4.739   0.488  0.6365 -0.9920 -1.9699
 5109TIP3   OH236741   2.322   2.212   5.521 -0.6129  0.3863 -0.2052
 5109TIP3    H136742   2.295   2.214   5.429 -0.2984 -2.6901 -0.4213
 5109TIP3    H236743   2.245   2.178   5.567 -0.5503  1.3036  0.5873
 5110TIP3   OH236744   1.929   2.040   1.273  0.3928 -0.4543 -0.2666
 5110TIP3    H136745   1.876   2.111   1.236  1.6586 -0.4454 -2.1294
 5110TIP3    H236746   1.878   1.961   1.257 -0.2472 -0.1580  0.2965
 5111TIP3   OH236747   2.088   0.083  16.726 -0.7290  0.1934 -0.0349
 5111TIP3    H136748   2.181   0.081  16.748 -0.4679  0.2384 -1.0759
 5111TIP3    H236749   2.045   0.112  16.806  0.3033  1.6323  0.0305
 5112TIP3   OH236750   3.817   0.070  10.808 -0.0298 -0.3728  0.0062
 5112TIP3    H136751   3.845  -0.021  10.796 -0.9272 -0.5639 -0.6767
 5112TIP3    H236752   3.889   0.111  10.856  1.6622 -0.7356 -2.1318
 5113TIP3   OH236753   3.498   2.695  11.227 -0.5561  0.1635 -0.0936
 5113TIP3    H136754   3.475   2.654  11.144  2.7074 -0.8617 -0.5882
 5113TIP3    H236755   3.570   2.754  11.204  1.2943 -1.1568  2.2004
 5114TIP3   OH236756   1.785   5.520   2.143  0.1085 -0.3705  0.6584
 5114TIP3    H136757   1.827   5.573   2.076 -1.8840 -1.0797 -1.2268
 5114TIP3    H236758   1.692   5.523   2.122 -0.7559  0.5377  4.2666
 5115TIP3   OH236759   2.444   5.718   4.395  0.2278  0.6723  0.2603
 5115TIP3    H136760   2.404   5.647   4.446  1.7759 -1.2596 -1.1328
 5115TIP3    H236761   2.378   5.740   4.330  0.0402 -0.0774  0.1814
 5116TIP3   OH236762   2.955   5.505  11.386  0.1458  0.3511  0.5688
 5116TIP3    H136763   3.038   5.458  11.379 -0.6490 -1.0195  0.2171
 5116TIP3    H236764   2.927   5.517  11.295 -0.8190 -0.6180  0.7302
 5117TIP3   OH236765   0.739   6.712   4.477 -0.0114 -0.5576 -0.1657
 5117TIP3    H136766   0.777   6.656   4.545  0.2436 -0.1181  0.0592
 5117TIP3    H236767   0.654   6.673   4.457 -0.9741  0.4507  1.8437
 5118TIP3   OH236768   4.398   2.040  16.208 -0.2499 -0.1902  0.7648
 5118TIP3    H136769   4.416   2.105  16.275  0.4907  0.5707 -0.1540
 5118TIP3    H236770   4.480   2.034  16.158 -0.1307 -2.2049  1.1493
 5119TIP3   OH236771   3.894   6.740   0.015 -0.4684 -0.1212 -0.7231
 5119TIP3    H136772   3.923   6.722   0.104 -1.1273 -0.1977 -0.5194
 5119TIP3    H236773   3.801   6.719   0.015 -0.2150 -1.3252 -1.7666
 5120TIP3   OH236774   6.648   0.943   5.218 -0.8220  0.4427  0.0435
 5120TIP3    H136775   6.680   0.991   5.294 -0.7491 -0.2932  0.4883
 5120TIP3    H236776   6.727   0.920   5.169 -0.6599 -1.1930  1.0327
 5121TIP3   OH236777   4.150   5.653  12.116 -0.5313 -0.0668  0.7233
 5121TIP3    H136778   4.231   5.650  12.166 -0.9008  1.1612  1.4053
 5121TIP3    H236779   4.168   5.714  12.045 -0.0102 -1.7939 -0.6816
 5122TIP3   OH236780   4.032   3.218  15.644 -0.4205 -0.3176 -0.3063
 5122TIP3    H136781   4.077   3.139  15.615  0.8668 -0.2042  1.2959
 5122TIP3    H236782   3.965   3.187  15.705 -0.4624 -0.2529 -0.3197
 5123TIP3   OH236783   1.711   4.533   4.948  0.0152  0.1969  0.4435
 5123TIP3    H136784   1.699   4.488   5.031 -0.2597 -0.8750 -0.1605
 5123TIP3    H236785   1.717   4.463   4.883  1.7246  0.9703 -0.2578
 5124TIP3   OH236786   1.872   3.914   1.381  0.8427  0.0009  0.1066
 5124TIP3    H136787   1.889   3.935   1.289  0.8318 -1.0004 -0.1338
 5124TIP3    H236788   1.858   3.998   1.423  0.0902  0.4166 -0.9647
 5125TIP3   OH236789   5.881   5.102   2.391 -0.5910 -0.1984  0.1056
 5125TIP3    H136790   5.943   5.029   2.396  0.9821  1.1090  0.0667
 5125TIP3    H236791   5.799   5.062   2.361 -0.1373 -2.1732  1.3889
 5126TIP3   OH236792   6.046   0.811  11.958 -0.1616  0.3547 -0.3548
 5126TIP3    H136793   6.020   0.737  12.013  2.5389  0.4941  1.1849
 5126TIP3    H236794   6.095   0.771  11.885 -0.0315  0.5146 -0.3541
 5127TIP3   OH236795   3.776   0.335   1.728 -0.3092 -0.1563 -0.1028
 5127TIP3    H136796   3.776   0.241   1.745  0.3275 -0.5082 -1.8911
 5127TIP3    H236797   3.867   0.355   1.705 -0.5225  0.8072 -0.1261
 5128TIP3   OH236798   2.226   3.451   5.725  0.8144 -0.0380 -0.3882
 5128TIP3    H136799   2.164   3.524   5.721  0.8035 -0.0357 -0.1715
 5128TIP3    H236800   2.179   3.378   5.685  1.7872  0.7487 -3.0682
 5129TIP3   OH236801   3.194   2.128   1.990 -0.1299  0.4942 -0.0834
 5129TIP3    H136802   3.107   2.102   1.960 -0.4956  0.0756  1.3227
 5129TIP3    H236803   3.254   2.080   1.933 -0.8164 -0.4913  0.0086
 5130TIP3   OH236804   1.829   6.181  12.451  0.6653  0.1651 -0.1635
 5130TIP3    H136805   1.890   6.154  12.382 -0.3260  0.8839 -1.3349
 5130TIP3    H236806   1.745   6.141  12.426  0.2863  0.4775  0.5899
 5131TIP3   OH236807   5.806   3.293   2.377 -0.5613  0.1965  0.2585
 5131TIP3    H136808   5.879   3.304   2.437  0.8401  0.1217 -1.4106
 5131TIP3    H236809   5.835   3.227   2.314 -0.3150  3.3051 -3.0400
 5132TIP3   OH236810   0.681   6.094  13.209  0.0181 -0.2729  0.3237
 5132TIP3    H136811   0.769   6.062  13.189  0.3231  0.2569  0.8038
 5132TIP3    H236812   0.693   6.153  13.283 -0.3052  2.2305 -1.5659
 5133TIP3   OH236813   3.959   6.182  14.135  0.1181 -0.3569 -0.0309
 5133TIP3    H136814   4.051   6.210  14.135 -0.5636  1.9975  1.6182
 5133TIP3    H236815   3.946   6.143  14.222 -0.3572 -0.9777 -0.3756
 5134TIP3   OH236816   4.724   2.434  11.721  0.5115 -0.3670 -0.7705
 5134TIP3    H136817   4.810   2.394  11.708  1.5553  1.6474 -0.1842
 5134TIP3    H236818   4.732   2.521  11.682 -0.3080  0.9814  1.9605
 5135TIP3   OH236819   3.046   5.632   6.079  0.0525 -0.7595 -0.4333
 5135TIP3    H136820   2.976   5.596   6.133  0.5838 -1.1313  0.0172
 5135TIP3    H236821   3.013   5.717   6.050 -0.5988 -0.9522 -0.2628
 5136TIP3   OH236822   1.309   2.632  11.759 -0.1052  0.2025  0.2151
 5136TIP3    H136823   1.396   2.602  11.785 -0.5004 -1.1201  0.0664
 5136TIP3    H236824   1.299   2.717  11.801  2.1370  1.3954 -1.5730
 5137TIP3   OH236825   3.413   6.682  16.791 -0.6858  1.0079 -0.1152
 5137TIP3    H136826   3.319   6.687  16.773 -0.2058  1.4170 -2.8521
 5137TIP3    H236827   3.448   6.762  16.752  0.9104  0.4067  0.0624
 5138TIP3   OH236828   4.233   0.737   1.619  0.1734 -0.0576  0.4906
 5138TIP3    H136829   4.255   0.815   1.566 -0.4602 -1.1524 -1.4200
 5138TIP3    H236830   4.143   0.752   1.647 -0.2547 -0.5031 -0.6244
 5139TIP3   OH236831   1.011   5.731   2.264 -0.2090 -0.5549 -0.1088
 5139TIP3    H136832   0.922   5.762   2.274  0.4060  1.3762 -0.4327
 5139TIP3    H236833   1.030   5.685   2.346 -1.2304 -0.3339  0.2586
 5140TIP3   OH236834   2.371   0.616   4.751 -0.0622  0.0789  0.1645
 5140TIP3    H136835   2.334   0.529   4.767  1.4917 -0.9120 -1.5256
 5140TIP3    H236836   2.378   0.622   4.655  2.4917  0.9412  0.3729
 5141TIP3   OH236837   2.136   3.559  14.035 -0.2382  0.7287  0.0565
 5141TIP3    H136838   2.156   3.614  13.960 -0.1801 -0.5151 -0.8708
 5141TIP3    H236839   2.040   3.563  14.043 -0.5455 -1.3424 -1.8773
 5142TIP3   OH236840   1.756   0.519  16.679  0.0827  0.0317  0.3687
 5142TIP3    H136841   1.667   0.520  16.644  0.0590 -0.1223  0.4247
 5142TIP3    H236842   1.811   0.502  16.603  0.1672  1.4518  0.0894
 5143TIP3   OH236843   5.507   1.535  14.984 -0.6886  0.3405  0.0530
 5143TIP3    H136844   5.558   1.589  15.045 -1.1973  0.6875  0.1732
 5143TIP3    H236845   5.462   1.471  15.040  1.2975 -1.3690 -0.2373
 5144TIP3   OH236846   0.242   1.207   3.199 -0.9766  0.7917  0.1444
 5144TIP3    H136847   0.255   1.168   3.113 -1.7555 -1.1528  0.8847
 5144TIP3    H236848   0.325   1.194   3.244 -1.0625  0.4304  0.2033
 5145TIP3   OH236849   2.971   3.072   4.863  0.0582  0.6455 -0.3654
 5145TIP3    H136850   2.916   3.025   4.801 -1.4198  0.0855  1.3141
 5145TIP3    H236851   2.934   3.160   4.867  0.3389  0.7699 -0.5174
 5146TIP3   OH236852   5.143   1.787  14.567  0.0483 -0.3183 -0.0138
 5146TIP3    H136853   5.089   1.829  14.501 -1.6385 -0.8523  0.9828
 5146TIP3    H236854   5.087   1.782  14.645  1.3777 -1.2826  0.9201
 5147TIP3   OH236855   0.318   5.426  11.791 -0.4231  0.6153  0.2683
 5147TIP3    H136856   0.292   5.358  11.728 -2.0527 -0.7067  2.3224
 5147TIP3    H236857   0.241   5.438  11.847  1.2151  1.2892  2.4394
 5148TIP3   OH236858   3.236   0.518  13.552 -0.5843  0.1639 -0.0718
 5148TIP3    H136859   3.283   0.434  13.558 -0.5662  0.2187  0.6570
 5148TIP3    H236860   3.258   0.551  13.465 -0.2828 -0.4093 -0.2210
 5149TIP3   OH236861   2.741   2.176  12.795  0.3091  0.0615 -0.0786
 5149TIP3    H136862   2.783   2.253  12.833 -2.6022  1.0170  1.3870
 5149TIP3    H236863   2.723   2.201  12.704 -0.5889  1.1516  0.3802
 5150TIP3   OH236864   2.413   6.655   0.905 -0.2894  0.3425 -0.0623
 5150TIP3    H136865   2.335   6.656   0.960 -0.2076  1.5382  0.0295
 5150TIP3    H236866   2.473   6.717   0.947  0.1074  0.6016 -1.0094
 5151TIP3   OH236867   4.352   4.305   5.321  0.4513  0.4467 -0.2248
 5151TIP3    H136868   4.281   4.301   5.256  0.9348 -1.5833 -0.6758
 5151TIP3    H236869   4.375   4.213   5.336  0.7967  0.9340  2.3571
 5152TIP3   OH236870   2.562   2.767   3.287  0.2855  0.6457 -0.0410
 5152TIP3    H136871   2.612   2.738   3.210 -0.1085 -1.5235  0.4726
 5152TIP3    H236872   2.482   2.805   3.250 -0.8077 -2.1567 -0.7004
 5153TIP3   OH236873   6.522   3.962   1.542  0.5326 -0.5139 -0.1420
 5153TIP3    H136874   6.542   3.981   1.450  1.1955  2.8356  0.5995
 5153TIP3    H236875   6.450   3.899   1.539 -0.1215  0.2862 -2.9683
 5154TIP3   OH236876   4.017   3.036   6.415  0.3719 -0.2323 -0.1687
 5154TIP3    H136877   3.975   3.097   6.476  0.2764 -0.6448  0.1828
 5154TIP3    H236878   4.109   3.059   6.418  0.0910  1.1017 -1.4277
 5155TIP3   OH236879   2.605   6.263   5.970  0.0532 -0.3367  0.5980
 5155TIP3    H136880   2.688   6.273   6.015 -0.3202 -1.5890  1.5794
 5155TIP3    H236881   2.548   6.218   6.033 -0.6000 -1.7184 -0.9246
 5156TIP3   OH236882   0.614   4.953   2.244  0.0646 -0.0160  0.0194
 5156TIP3    H136883   0.589   5.038   2.281 -2.0437  0.3254 -2.0663
 5156TIP3    H236884   0.709   4.949   2.255 -0.1596  1.2268  2.9484
 5157TIP3   OH236885   5.828   5.216   0.892  0.3482 -0.2238  0.0227
 5157TIP3    H136886   5.865   5.294   0.851  2.1033 -0.1705  1.6396
 5157TIP3    H236887   5.760   5.187   0.831  1.4479  1.0605 -1.8727
 5158TIP3   OH236888   2.575   1.691  13.812  0.8929  0.1306  0.1171
 5158TIP3    H136889   2.598   1.660  13.900  2.3980 -0.5947 -0.5125
 5158TIP3    H236890   2.654   1.737  13.782  0.0392  1.2223 -0.4822
 5159TIP3   OH236891   0.101   1.079   6.059  0.1307 -0.9077  0.9909
 5159TIP3    H136892   0.063   1.148   6.114  0.6102 -0.3481  0.6318
 5159TIP3    H236893   0.193   1.077   6.083  0.2965 -0.8202  0.3808
 5160TIP3   OH236894   3.019   2.851   1.751  0.2735  0.6068  0.0008
 5160TIP3    H136895   2.978   2.929   1.712  0.5733  0.3077 -0.9104
 5160TIP3    H236896   2.949   2.785   1.750 -0.1132  0.9681  1.1604
 5161TIP3   OH236897   4.090   1.855  15.622 -0.4000  0.1796 -0.2696
 5161TIP3    H136898   4.096   1.895  15.709  1.1800 -0.3865 -0.0891
 5161TIP3    H236899   4.025   1.786  15.632  1.4945 -1.4823  1.1575
 5162TIP3   OH236900   2.784   2.382   0.124  0.5899 -0.0128 -0.4408
 5162TIP3    H136901   2.796   2.474   0.147  2.3529 -0.4232  0.3746
 5162TIP3    H236902   2.757   2.339   0.205 -1.1004 -0.0688 -1.0237
 5163TIP3   OH236903   3.253   2.002  16.457 -0.3071 -0.6474 -0.0208
 5163TIP3    H136904   3.308   1.924  16.456  1.4345  0.5139  1.3047
 5163TIP3    H236905   3.208   2.000  16.541  1.4278  0.8472  0.9993
 5164TIP3   OH236906   6.021   4.021   3.616  0.2452  0.2779  0.3335
 5164TIP3    H136907   6.027   3.986   3.704  3.2594  0.9054  0.4162
 5164TIP3    H236908   6.112   4.036   3.589 -0.7009  2.3041 -1.9714
 5165TIP3   OH236909   0.438   3.993   4.001 -0.3687 -0.4159 -0.1478
 5165TIP3    H136910   0.512   4.045   3.971  1.2878 -2.6688 -0.1776
 5165TIP3    H236911   0.364   4.053   4.000  0.8907  1.2039 -2.7262
 5166TIP3   OH236912   0.289   0.976  11.257  0.0633  0.3246  0.6734
 5166TIP3    H136913   0.288   0.953  11.164 -0.7385  0.2605  0.7008
 5166TIP3    H236914   0.218   0.926  11.295  0.5659  0.1455  1.3814
 5167TIP3   OH236915   5.710   5.385   4.082  0.4086  0.2228  0.0077
 5167TIP3    H136916   5.740   5.409   3.995 -0.3406  1.0010 -0.0500
 5167TIP3    H236917   5.625   5.428   4.090  0.1586 -0.4135  0.8581
 5168TIP3   OH236918   5.063   5.405   1.214 -0.3088 -0.1675 -0.4074
 5168TIP3    H136919   5.022   5.371   1.294  0.2110  1.1888  0.4490
 5168TIP3    H236920   4.994   5.398   1.148 -1.2994  0.2802  0.5563
 5169TIP3   OH236921   6.421   2.704   4.764 -0.1764  0.1797 -0.1126
 5169TIP3    H136922   6.422   2.695   4.669  1.0467 -3.2165  0.1520
 5169TIP3    H236923   6.511   2.685   4.790 -0.7947 -0.1808  1.8282
 5170TIP3   OH236924   5.292   3.834  11.141 -0.0395 -0.4025  0.2940
 5170TIP3    H136925   5.211   3.882  11.126  0.3055  0.0651 -0.0918
 5170TIP3    H236926   5.356   3.876  11.083  0.0986 -1.7706 -0.5639
 5171TIP3   OH236927   6.216   2.572  15.726 -0.1122 -0.3704 -0.0813
 5171TIP3    H136928   6.235   2.548  15.636  0.3699 -1.2552  0.2528
 5171TIP3    H236929   6.298   2.557  15.773 -0.6150 -0.7841  0.6773
 5172TIP3   OH236930   5.493   1.494   0.626 -0.4891  0.1702 -0.1410
 5172TIP3    H136931   5.488   1.437   0.702  0.1878  0.0103 -0.2153
 5172TIP3    H236932   5.551   1.566   0.653  0.7139 -0.4943 -0.8817
 5173TIP3   OH236933   2.167   6.529  11.874  0.0719  0.4145  0.0043
 5173TIP3    H136934   2.121   6.445  11.873  0.5634  0.1038  1.5838
 5173TIP3    H236935   2.215   6.531  11.790  0.1114 -0.9179 -0.0186
 5174TIP3   OH236936   0.934   4.543   1.110 -0.5330  0.6152 -0.7969
 5174TIP3    H136937   0.877   4.604   1.157 -0.3358 -0.1766  0.4946
 5174TIP3    H236938   1.019   4.551   1.153 -0.7315 -1.2004 -0.0309
 5175TIP3   OH236939   3.198   5.957  11.836 -0.2146 -0.1764  0.6636
 5175TIP3    H136940   3.201   5.864  11.858  0.9419 -0.2173  0.3784
 5175TIP3    H236941   3.251   5.999  11.903  1.4548 -0.0356 -0.7206
 5176TIP3   OH236942   1.571   5.916   4.565 -0.3410 -0.0517 -0.4269
 5176TIP3    H136943   1.545   5.856   4.494  1.3149 -0.1355 -0.9927
 5176TIP3    H236944   1.513   5.991   4.554  0.5690  0.3887 -2.5511
 5177TIP3   OH236945   1.629   5.234   1.982  0.3114 -0.3975  0.1285
 5177TIP3    H136946   1.682   5.260   2.057  1.4944  1.7264 -1.3714
 5177TIP3    H236947   1.539   5.240   2.013  0.8290 -1.6514  1.9870
 5178TIP3   OH236948   4.710   3.543  16.356  0.4374  0.0454 -0.8564
 5178TIP3    H136949   4.630   3.592  16.376  1.8436  0.9495  3.0059
 5178TIP3    H236950   4.706   3.466  16.413  2.6822  0.5122 -0.0204
 5179TIP3   OH236951   3.056   4.901  12.697  0.0993  0.3314  0.0039
 5179TIP3    H136952   2.997   4.976  12.686 -0.4522  0.1617  1.6300
 5179TIP3    H236953   3.008   4.841  12.755  1.5639 -0.1511  0.7419
 5180TIP3   OH236954   3.522   5.293   2.021  0.1009 -0.3709  0.2010
 5180TIP3    H136955   3.456   5.275   1.954 -0.2005  0.5442  0.2417
 5180TIP3    H236956   3.471   5.318   2.098  0.4653 -0.7921  0.5825
 5181TIP3   OH236957   4.366   5.290   5.662  0.0405 -0.2096  0.2948
 5181TIP3    H136958   4.298   5.231   5.629 -2.0466  0.8052  2.6656
 5181TIP3    H236959   4.422   5.234   5.716 -1.5649 -0.1718  2.0251
 5182TIP3   OH236960   2.807   4.161   2.427  0.0698 -0.6137  0.8193
 5182TIP3    H136961   2.726   4.212   2.416 -0.0393 -0.5399  1.8944
 5182TIP3    H236962   2.873   4.212   2.380 -0.8301 -1.5440 -1.5260
 5183TIP3   OH236963   0.089   6.731   5.762  0.3567  0.2015  0.0385
 5183TIP3    H136964   0.152   6.758   5.829 -1.1389  1.7483  0.8629
 5183TIP3    H236965   0.077   6.637   5.777  0.6779  0.3612  1.3994
 5184TIP3   OH236966   2.828   3.212  11.440  0.1665 -0.5107  0.2158
 5184TIP3    H136967   2.832   3.220  11.536  0.4430  1.7421  0.0594
 5184TIP3    H236968   2.816   3.302  11.410 -1.4754 -1.3803 -1.8226
 5185TIP3   OH236969   1.657   3.247   3.882  0.3386  1.2620 -0.0743
 5185TIP3    H136970   1.734   3.304   3.878 -0.7095  2.7299  0.0877
 5185TIP3    H236971   1.633   3.246   3.975  0.8181 -0.1037  0.0423
 5186TIP3   OH236972   2.734   2.847   5.371 -0.0288  0.6006  0.3715
 5186TIP3    H136973   2.765   2.758   5.390 -0.3227  0.7046  1.3956
 5186TIP3    H236974   2.642   2.846   5.397 -0.1875  1.0422 -0.1618
 5187TIP3   OH236975   2.950   2.696  12.791  0.1753 -0.0104 -0.7377
 5187TIP3    H136976   3.045   2.684  12.786  0.3237  0.5379  0.4417
 5187TIP3    H236977   2.921   2.697  12.700  1.1917 -1.0197 -1.0805
 5188TIP3   OH236978   2.311   4.956   2.740 -0.2295 -0.1358  0.0279
 5188TIP3    H136979   2.393   4.914   2.716  0.5605  0.5045  1.5012
 5188TIP3    H236980   2.336   5.045   2.765 -1.4108  0.1602  0.1830
 5189TIP3   OH236981   2.490   2.966  15.599  0.2802 -0.3173 -0.4415
 5189TIP3    H136982   2.508   2.873  15.585 -1.3733 -0.8361  0.8016
 5189TIP3    H236983   2.499   2.979  15.693  2.1182  1.1746 -0.7725
 5190TIP3   OH236984   0.321   6.130  16.612 -0.3545  0.5078  0.0081
 5190TIP3    H136985   0.312   6.104  16.521 -0.3696 -3.1640  1.0013
 5190TIP3    H236986   0.233   6.159  16.638 -0.5084  0.8628 -0.9071
 5191TIP3   OH236987   6.513   0.514   5.724  0.4313 -0.1940  0.4283
 5191TIP3    H136988   6.460   0.543   5.649  1.1044  0.6925  0.2795
 5191TIP3    H236989   6.450   0.493   5.792 -0.2992 -2.8546 -1.0071
 5192TIP3   OH236990   0.962   3.803   5.343  0.3430 -0.2019  0.2073
 5192TIP3    H136991   1.003   3.827   5.260 -0.6886  1.3514  0.1439
 5192TIP3    H236992   0.999   3.864   5.407 -0.8869  0.3527  0.3923
 5193TIP3   OH236993   4.393   5.461   1.039 -0.2315 -0.4949  0.2940
 5193TIP3    H136994   4.388   5.468   1.135 -1.3453  0.2938  0.1883
 5193TIP3    H236995   4.371   5.369   1.021  0.0743 -0.6705  0.7914
 5194TIP3   OH236996   5.044   3.780   3.825  0.4398 -0.4068 -0.3938
 5194TIP3    H136997   5.028   3.771   3.919 -0.2846  2.6692 -0.1901
 5194TIP3    H236998   5.125   3.830   3.819  0.6260 -0.8255 -1.4373
 5195TIP3   OH236999   1.946   6.051  14.888  0.8072 -0.2577 -0.1669
 5195TIP3    H137000   1.864   6.022  14.846  1.2124  0.1461 -1.2358
 5195TIP3    H237001   1.922   6.131  14.935  0.3440 -0.7332  0.4214
 5196TIP3   OH237002   6.418   0.307  11.132  0.4107  0.2821 -0.0100
 5196TIP3    H137003   6.356   0.308  11.206 -0.2547  0.2153 -0.5623
 5196TIP3    H237004   6.365   0.334  11.057  1.2444  0.9903 -0.3434
 5197TIP3   OH237005   0.112   3.953   2.010  0.0209  0.9763  0.0026
 5197TIP3    H137006   0.107   4.001   1.927  0.6969 -0.4654 -0.8915
 5197TIP3    H237007   0.046   3.884   2.002  2.4282 -1.3595 -0.8316
 5198TIP3   OH237008   1.072   6.785   0.119 -0.5918  0.1286  0.4582
 5198TIP3    H137009   1.037   6.872   0.138  0.5350  0.6623  0.0973
 5198TIP3    H237010   1.112   6.793   0.033  1.3145 -0.1990  1.2769
 5199TIP3   OH237011   1.742   2.304  15.694 -0.1928 -0.1805  0.0854
 5199TIP3    H137012   1.749   2.396  15.668 -0.8497 -0.3806 -0.8552
 5199TIP3    H237013   1.810   2.292  15.760  0.0156  0.9347  0.0842
 5200TIP3   OH237014   5.498   3.020  16.689 -0.7002 -0.1358  0.0330
 5200TIP3    H137015   5.505   2.954  16.758  0.4245  1.2011  1.2417
 5200TIP3    H237016   5.458   2.974  16.615 -1.6670 -1.6774  1.4730
 5201TIP3   OH237017   3.200   4.908   5.782  0.3368 -0.0433 -0.0068
 5201TIP3    H137018   3.131   4.919   5.716  0.3792 -2.6279 -0.5288
 5201TIP3    H237019   3.216   4.997   5.815 -1.1159  1.0007 -2.0118
 5202TIP3   OH237020   5.459   1.957   5.302 -0.0805 -0.1185 -0.6202
 5202TIP3    H137021   5.394   1.889   5.283  1.9433 -2.2026 -0.2511
 5202TIP3    H237022   5.441   1.982   5.393 -1.2541  0.3241 -0.9663
 5203TIP3   OH237023   1.229   2.626   0.641  0.0806  0.3700 -0.1815
 5203TIP3    H137024   1.150   2.650   0.690 -1.3828  0.4535 -2.4839
 5203TIP3    H237025   1.280   2.706   0.635  1.3954 -0.1478  3.0933
 5204TIP3   OH237026   2.007   2.441  16.486 -0.0593  0.0480  0.0332
 5204TIP3    H137027   2.041   2.355  16.464 -1.1128 -0.0161 -1.4247
 5204TIP3    H237028   2.084   2.499  16.484  0.2208 -0.3703 -1.6882
 5205TIP3   OH237029   2.410   1.815   0.151 -0.4450 -0.3040  0.2454
 5205TIP3    H137030   2.318   1.799   0.130 -0.4264 -1.3050  0.8822
 5205TIP3    H237031   2.449   1.844   0.069 -0.7500 -2.4441 -0.6639
 5206TIP3   OH237032   5.296   0.853  12.069  0.1532  0.0499 -0.0718
 5206TIP3    H137033   5.380   0.881  12.034 -0.5570  0.6290 -1.3550
 5206TIP3    H237034   5.234   0.920  12.041 -0.5530  0.2409  1.8345
 5207TIP3   OH237035   5.639   0.222  12.610  0.3214  0.2083  0.7269
 5207TIP3    H137036   5.717   0.260  12.651 -0.2890  0.6022  1.5401
 5207TIP3    H237037   5.624   0.276  12.533  1.6137 -0.6756 -0.1553
 5208TIP3   OH237038   2.322   2.761   1.811  0.4662  0.3144  0.2761
 5208TIP3    H137039   2.243   2.800   1.848 -0.8702 -3.6860  1.9942
 5208TIP3    H237040   2.295   2.729   1.725  0.0163 -1.4093  1.0251
 5209TIP3   OH237041   5.931   4.284  10.668 -0.5727 -0.0740 -0.1635
 5209TIP3    H137042   5.959   4.373  10.646 -1.1783  0.5225  1.3494
 5209TIP3    H237043   6.010   4.231  10.659 -0.1285  0.6772 -0.7738
 5210TIP3   OH237044   2.928   5.432  11.665  0.0732 -0.2373 -0.1411
 5210TIP3    H137045   2.909   5.435  11.571  0.6984  0.8176 -0.2447
 5210TIP3    H237046   2.989   5.359  11.674 -1.4694 -1.5824 -0.2599
 5211TIP3   OH237047   4.678   6.363   2.645 -0.1845  0.3235 -0.1038
 5211TIP3    H137048   4.726   6.307   2.584  1.8614  0.6502  1.1777
 5211TIP3    H237049   4.586   6.349   2.623  0.2779 -3.6182  0.2697
 5212TIP3   OH237050   6.267   0.965   0.048  0.8796  0.1446 -0.0961
 5212TIP3    H137051   6.345   0.936   0.002  1.1697  1.0568 -0.1789
 5212TIP3    H237052   6.194   0.933  -0.006  1.2067  0.5571 -0.7883
 5213TIP3   OH237053   5.453   5.655  14.477 -0.2145  0.1451 -0.4944
 5213TIP3    H137054   5.360   5.660  14.499 -0.3896  1.6489 -1.5434
 5213TIP3    H237055   5.498   5.667  14.561 -0.9365  0.7899 -0.1951
 5214TIP3   OH237056   0.781   4.022  16.299 -0.4035 -0.1833  0.4915
 5214TIP3    H137057   0.769   4.037  16.393  1.6071  0.7940  0.6259
 5214TIP3    H237058   0.864   4.065  16.279 -0.5983 -0.7712 -1.6520
 5215TIP3   OH237059   1.574   5.472  11.048  0.1807 -0.4908 -0.1065
 5215TIP3    H137060   1.534   5.392  11.015  0.4326 -0.1475 -1.2426
 5215TIP3    H237061   1.666   5.464  11.025 -0.3391  1.5790 -3.1106
 5216TIP3   OH237062   3.588   2.674   2.734  0.1649 -0.3165  0.1991
 5216TIP3    H137063   3.650   2.640   2.800  0.7810  0.3159 -0.0484
 5216TIP3    H237064   3.508   2.693   2.784  0.0143 -1.5486  0.4466
 5217TIP3   OH237065   6.366   5.067   4.978 -0.4467  0.4655 -0.4389
 5217TIP3    H137066   6.291   5.125   4.993 -1.3152 -0.3304 -1.6519
 5217TIP3    H237067   6.332   4.979   4.995  0.3172  0.1331 -0.6271
 5218TIP3   OH237068   1.225   4.854   2.369 -0.8154 -0.2108 -0.0330
 5218TIP3    H137069   1.247   4.868   2.277 -0.7726  0.0831  0.0227
 5218TIP3    H237070   1.235   4.759   2.382 -2.4319 -0.5021 -0.7451
 5219TIP3   OH237071   0.061   1.017   4.911  0.6508 -0.1424  0.2853
 5219TIP3    H137072   0.045   0.970   4.830 -0.2289  0.6777 -0.0326
 5219TIP3    H237073   0.138   1.071   4.893  1.7150 -1.4913  0.6796
 5220TIP3   OH237074   1.787   0.066   5.377 -0.6867 -0.3630  0.1417
 5220TIP3    H137075   1.780   0.114   5.294  1.0907 -1.5356 -0.7164
 5220TIP3    H237076   1.720  -0.002   5.370 -0.3052 -0.6806 -0.5009
 5221TIP3   OH237077   6.686   1.092   5.433 -0.2472  0.2061 -0.4571
 5221TIP3    H137078   6.736   1.072   5.512  1.2701  0.7144 -1.2586
 5221TIP3    H237079   6.615   1.149   5.462 -0.1573 -0.2424  0.6554
 5222TIP3   OH237080   3.362   5.030   5.327 -0.7952 -0.0097 -0.3065
 5222TIP3    H137081   3.376   5.124   5.337 -1.5520 -0.0097  0.9211
 5222TIP3    H237082   3.326   5.020   5.239 -0.9963  0.8966 -0.3282
 5223TIP3   OH237083   5.529   5.024  12.987  0.5335 -0.0934 -0.0574
 5223TIP3    H137084   5.479   5.029  13.068  3.1319  1.9361  1.5098
 5223TIP3    H237085   5.464   5.031  12.917 -1.4543  1.5223  1.8884
 5224TIP3   OH237086   3.767   3.767   3.857  0.0482 -0.3232 -0.1665
 5224TIP3    H137087   3.840   3.706   3.867 -1.6907 -2.5155 -0.4565
 5224TIP3    H237088   3.689   3.715   3.878 -1.3708  2.2405  1.2150
 5225TIP3   OH237089   2.908   4.203  15.360 -0.2226 -0.0369 -0.5403
 5225TIP3    H137090   2.873   4.127  15.405  0.0294  0.1423 -0.0389
 5225TIP3    H237091   2.872   4.278  15.408 -0.6334  0.1654 -1.1522
 5226TIP3   OH237092   0.323   6.178   3.087  0.5111 -0.2373 -0.3537
 5226TIP3    H137093   0.284   6.265   3.095 -0.7198 -0.8105 -0.0788
 5226TIP3    H237094   0.256   6.118   3.120  1.7302 -1.2128  0.4319
 5227TIP3   OH237095   2.367   3.745  12.318 -0.8278  0.2222  0.1862
 5227TIP3    H137096   2.317   3.705  12.389  1.0318  0.3690  1.5999
 5227TIP3    H237097   2.369   3.838  12.339  0.2598  0.1824  0.2838
 5228TIP3   OH237098   3.298   1.108  14.888 -0.3197 -0.6499  0.8537
 5228TIP3    H137099   3.326   1.199  14.880 -1.4463 -0.5808 -2.8894
 5228TIP3    H237100   3.379   1.060  14.907  0.9565  0.6314 -1.1697
 5229TIP3   OH237101   5.851   6.557  14.306  0.3391  0.1547 -0.5477
 5229TIP3    H137102   5.933   6.606  14.303  0.0531  0.7462  0.9208
 5229TIP3    H237103   5.876   6.468  14.280  1.6770  0.0484  0.9902
 5230TIP3   OH237104   2.783   6.684   5.314  0.1496 -0.3539  0.3447
 5230TIP3    H137105   2.773   6.773   5.350 -0.8293  0.9135 -2.8701
 5230TIP3    H237106   2.872   6.659   5.337  0.4043  1.4359  1.4097
 5231TIP3   OH237107   6.687   0.388   3.953  0.2128  0.6802  0.5941
 5231TIP3    H137108   6.783   0.388   3.946  0.1993  1.4839  0.3471
 5231TIP3    H237109   6.657   0.427   3.871 -0.2303  3.2338  1.9322
 5232TIP3   OH237110   6.072   1.020   4.557 -0.1935  0.2769 -0.1168
 5232TIP3    H137111   6.032   0.998   4.473 -2.1235 -0.9496  1.0668
 5232TIP3    H237112   6.165   1.005   4.544 -0.6439 -1.4565 -1.5730
 5233TIP3   OH237113   2.342   0.750   3.782 -0.2276 -0.5176 -0.0798
 5233TIP3    H137114   2.385   0.774   3.864 -2.5026  0.0480  0.9950
 5233TIP3    H237115   2.370   0.660   3.766  0.1774 -0.6670  1.3755
 5234TIP3   OH237116   5.577   2.120  13.341  0.1517 -0.4309  0.1298
 5234TIP3    H137117   5.658   2.072  13.353  1.3413  1.4179 -0.3229
 5234TIP3    H237118   5.592   2.205  13.383 -0.8411  0.6259 -1.5607
 5235TIP3   OH237119   0.379   5.780  16.053  0.0200 -0.3030  0.3619
 5235TIP3    H137120   0.473   5.790  16.067  0.3146  0.1567 -1.6858
 5235TIP3    H237121   0.354   5.703  16.104  1.8388 -1.3842 -0.3427
 5236TIP3   OH237122   1.000   2.542   7.061  0.8352 -0.4568 -0.3719
 5236TIP3    H137123   0.945   2.534   6.984  2.6601  0.0387 -1.7549
 5236TIP3    H237124   0.994   2.634   7.086  2.8811  0.1643 -1.9817
 5237TIP3   OH237125   5.872   4.810  11.582  0.1174  0.2855  0.1338
 5237TIP3    H137126   5.959   4.828  11.618  0.5478  1.2921 -1.3637
 5237TIP3    H237127   5.825   4.892  11.593 -0.3630  0.0060  0.1519
 5238TIP3   OH237128   4.273   0.529   0.663 -0.0103 -0.7541  0.8594
 5238TIP3    H137129   4.178   0.536   0.669  0.1017 -0.5163  2.3436
 5238TIP3    H237130   4.287   0.460   0.597 -1.1834  0.1085 -0.3354
 5239TIP3   OH237131   1.084   0.077  15.277 -0.0639 -0.0303 -0.0293
 5239TIP3    H137132   1.169   0.120  15.285 -0.8420  1.6238 -0.4188
 5239TIP3    H237133   1.061   0.051  15.366  1.0203 -0.8427  0.0207
 5240TIP3   OH237134   2.054   0.098   4.938 -0.0919 -0.5645  0.0496
 5240TIP3    H137135   1.966   0.061   4.941 -0.1179 -0.3838  1.5291
 5240TIP3    H237136   2.067   0.119   4.845 -1.4731 -0.8961 -0.2360
 5241TIP3   OH237137   3.407   2.424  11.546 -0.3325  0.3108 -0.4614
 5241TIP3    H137138   3.494   2.464  11.546 -0.5729  0.8560 -2.0362
 5241TIP3    H237139   3.360   2.467  11.617  0.1404  1.2130 -0.6975
 5242TIP3   OH237140   5.787   4.457  17.036  0.1103  0.3948 -1.0170
 5242TIP3    H137141   5.759   4.424  17.121  0.5293  2.0020 -0.2265
 5242TIP3    H237142   5.879   4.482  17.050  0.1049  0.8970 -1.8727
 5243TIP3   OH237143   4.552   6.120  13.623 -0.0395  0.6182 -0.1455
 5243TIP3    H137144   4.475   6.110  13.679  0.2674 -1.6300 -0.0777
 5243TIP3    H237145   4.517   6.116  13.534 -0.0958  0.5297 -0.1195
 5244TIP3   OH237146   3.798   3.677  15.471  0.5801 -0.1726 -0.5179
 5244TIP3    H137147   3.720   3.687  15.416 -0.9491  0.6082  1.7105
 5244TIP3    H237148   3.823   3.766  15.494  1.2336 -0.4903  0.0122
 5245TIP3   OH237149   5.860   0.651  16.663 -0.2573  0.2971 -0.3752
 5245TIP3    H137150   5.876   0.591  16.590  0.0406 -1.5289  1.1689
 5245TIP3    H237151   5.893   0.735  16.632  0.9192 -0.7039 -1.9136
 5246TIP3   OH237152   6.656   0.708   0.123 -0.5419  0.5141 -0.3418
 5246TIP3    H137153   6.622   0.774   0.184 -1.2170  0.8348 -1.0477
 5246TIP3    H237154   6.611   0.627   0.147 -0.4431  0.5309 -0.1016
 5247TIP3   OH237155   5.403   0.054  15.182  0.5874  0.1327  0.5063
 5247TIP3    H137156   5.464   0.038  15.111 -0.4749 -0.1930 -0.3519
 5247TIP3    H237157   5.382  -0.033  15.216 -0.3042  0.1431  0.0064
 5248TIP3   OH237158   6.315   2.945   4.929 -0.0483 -0.1764  0.3914
 5248TIP3    H137159   6.409   2.937   4.914  0.0102 -0.2730  0.8144
 5248TIP3    H237160   6.276   2.875   4.876  0.3555 -2.4050  2.9538
 5249TIP3   OH237161   4.455   2.458  13.389 -0.1847  0.3411 -0.2429
 5249TIP3    H137162   4.399   2.381  13.378 -0.3508  0.2054  1.4198
 5249TIP3    H237163   4.513   2.456  13.312 -0.0611 -1.5642 -0.1362
 5250TIP3   OH237164   0.057   6.211  17.116 -0.2899 -0.2451 -0.0277
 5250TIP3    H137165   0.142   6.190  17.157 -0.4217  0.7302  0.7609
 5250TIP3    H237166   0.026   6.288  17.164 -1.6501 -0.6312 -0.2787
 5251TIP3   OH237167   1.330   0.803   3.150 -0.1154 -0.2892 -0.5808
 5251TIP3    H137168   1.236   0.798   3.136 -0.4012  1.4914  0.5845
 5251TIP3    H237169   1.365   0.724   3.108 -1.7683  0.6389 -3.8133
 5252TIP3   OH237170   6.024   5.951   0.344  0.0961 -0.0374  0.5682
 5252TIP3    H137171   5.978   5.934   0.262 -2.1362 -0.2301  1.8082
 5252TIP3    H237172   6.042   5.864   0.380  2.7299  0.0084 -0.5780
 5253TIP3   OH237173   0.439   0.756  14.124 -0.6487 -0.0957  0.1460
 5253TIP3    H137174   0.382   0.785  14.053  0.3431  1.6093  0.0267
 5253TIP3    H237175   0.495   0.689  14.084 -1.3261 -0.4556 -0.2013
 5254TIP3   OH237176   3.123   5.909  11.524 -0.3361  0.0160  0.7668
 5254TIP3    H137177   3.160   5.953  11.600  3.1317 -1.1262 -0.1800
 5254TIP3    H237178   3.165   5.823  11.523 -0.9984 -0.3254 -1.9394
 5255TIP3   OH237179   0.030   5.555   0.208  0.4203 -0.0353 -0.2099
 5255TIP3    H137180   0.121   5.528   0.222  0.9572  1.2241 -1.1635
 5255TIP3    H237181   0.012   5.616   0.279  0.1445 -0.6615  0.2670
 5256TIP3   OH237182   2.983   1.745  17.167  0.0548 -0.8488 -0.2030
 5256TIP3    H137183   3.042   1.700  17.228  0.2471  1.1921  1.1708
 5256TIP3    H237184   2.926   1.796  17.224 -2.0854 -1.6490 -1.6030
 5257TIP3   OH237185   2.805   2.931   4.656 -0.4903  0.0390  0.4018
 5257TIP3    H137186   2.734   2.907   4.595 -0.8525  0.7671  0.5297
 5257TIP3    H237187   2.885   2.923   4.604 -0.6900 -0.4691  0.1623
 5258TIP3   OH237188   1.556   3.670  16.026 -0.0061 -0.6199  0.0527
 5258TIP3    H137189   1.622   3.640  16.089  0.3188 -1.0735 -0.5021
 5258TIP3    H237190   1.532   3.757  16.056  1.6077 -0.0362 -0.3349
 5259TIP3   OH237191   5.249   3.216   5.521 -0.2591  0.1460 -0.2306
 5259TIP3    H137192   5.333   3.194   5.560 -1.0306 -1.2480  0.6680
 5259TIP3    H237193   5.237   3.309   5.541  0.5509  0.0782  0.5961
 5260TIP3   OH237194   2.783   5.604   5.661 -0.0625  0.1021 -0.5060
 5260TIP3    H137195   2.695   5.623   5.694  0.1672  1.4455 -0.6694
 5260TIP3    H237196   2.772   5.523   5.610 -0.8983 -0.5877  0.7269
 5261TIP3   OH237197   5.572   1.827  14.529 -0.1120 -0.0199 -0.1530
 5261TIP3    H137198   5.485   1.787  14.531  0.9548 -2.4445  0.0377
 5261TIP3    H237199   5.612   1.794  14.448 -0.0128  2.5413 -1.1899
 5262TIP3   OH237200   1.535   5.839  16.447  0.2994  0.3386 -0.4908
 5262TIP3    H137201   1.616   5.789  16.433 -0.8363 -1.1082 -2.0684
 5262TIP3    H237202   1.515   5.826  16.539  0.8761 -0.8339 -0.5199
 5263TIP3   OH237203   2.323   3.263  16.671  0.2887  0.4547 -0.1535
 5263TIP3    H137204   2.261   3.324  16.632 -0.7148  1.6823  3.1329
 5263TIP3    H237205   2.299   3.177  16.636 -2.0732  1.1822 -0.3673
 5264TIP3   OH237206   2.626   5.884   0.134 -0.6249  0.1998  0.1991
 5264TIP3    H137207   2.563   5.830   0.180 -1.2641  1.3712  0.7301
 5264TIP3    H237208   2.711   5.857   0.169 -0.8578 -1.0586 -0.1842
 5265TIP3   OH237209   2.029   3.453  12.555 -0.0302  0.3099 -0.2144
 5265TIP3    H137210   2.122   3.446  12.532  0.3232  1.8576  0.7236
 5265TIP3    H237211   1.995   3.520  12.495 -0.1881  0.8634  0.4931
 5266TIP3   OH237212   4.626   4.006  11.834  0.4934 -0.1315 -0.7529
 5266TIP3    H137213   4.555   4.060  11.799  0.9897  0.3434 -1.0316
 5266TIP3    H237214   4.703   4.032  11.784  0.7414 -1.1000 -0.8862
 5267TIP3   OH237215   1.640   0.976  12.989  0.4704 -0.3462 -0.0943
 5267TIP3    H137216   1.554   0.991  12.949  0.1786 -0.9946  0.2822
 5267TIP3    H237217   1.701   1.023  12.933 -0.0653 -0.3604 -0.6945
 5268TIP3   OH237218   1.915   0.739   1.087  0.0274  0.4070  0.0463
 5268TIP3    H137219   1.927   0.831   1.111  1.0579 -0.1475  1.7158
 5268TIP3    H237220   1.902   0.741   0.992  0.2152  2.2535  0.0327
 5269TIP3   OH237221   5.382   0.893  14.258 -0.6491  0.0295 -0.2448
 5269TIP3    H137222   5.342   0.979  14.247 -2.4467 -0.6998  0.4087
 5269TIP3    H237223   5.394   0.860  14.169 -2.2284 -0.0533 -0.4366
 5270TIP3   OH237224   3.977   0.549   0.638 -0.0645  0.0182 -0.0833
 5270TIP3    H137225   3.979   0.578   0.546 -0.0126  0.5633  0.0917
 5270TIP3    H237226   3.891   0.576   0.670 -0.9756 -2.1308 -0.6028
 5271TIP3   OH237227   1.294   5.457  15.402 -0.2321 -0.0558 -0.4456
 5271TIP3    H137228   1.276   5.443  15.494 -1.9285  0.1283 -0.7307
 5271TIP3    H237229   1.366   5.520  15.401 -0.6454  0.4483  0.7405
 5272TIP3   OH237230   0.533   0.798  11.138  0.3648  0.2347 -0.0102
 5272TIP3    H137231   0.504   0.889  11.131  3.5112  1.2023 -1.7272
 5272TIP3    H237232   0.573   0.793  11.224 -0.9577  0.1073  0.6033
 5273TIP3   OH237233   2.043   1.422   5.715  0.5076 -0.3208 -0.6604
 5273TIP3    H137234   2.131   1.388   5.697  0.6090 -0.0984 -0.5807
 5273TIP3    H237235   2.007   1.363   5.781  0.6862 -0.2706 -0.5194
 5274TIP3   OH237236   2.709   6.553   0.385  0.3219  0.5504 -0.0521
 5274TIP3    H137237   2.711   6.575   0.292  0.3971  2.4177  0.3777
 5274TIP3    H237238   2.779   6.488   0.396  0.3768  0.3915 -1.2651
 5275TIP3   OH237239   6.680   1.942   3.895  0.1939 -0.1488  0.2616
 5275TIP3    H137240   6.634   1.872   3.941 -1.8549  1.3125  0.4803
 5275TIP3    H237241   6.611   2.001   3.864  1.8640  1.7726  0.0703
 5276TIP3   OH237242   3.017   4.730  15.904 -0.0295 -0.1142 -0.3674
 5276TIP3    H137243   2.998   4.784  15.827 -0.5195 -0.5265 -0.5416
 5276TIP3    H237244   3.113   4.726  15.907  0.0078  0.5207 -0.5179
 5277TIP3   OH237245   4.511   5.647   0.022 -0.1395  0.7519 -0.0910
 5277TIP3    H137246   4.505   5.742   0.025 -0.3941  0.7250  0.2710
 5277TIP3    H237247   4.605   5.630   0.022 -0.0916  0.9729  1.0330
 5278TIP3   OH237248   0.057   3.590   2.917  0.0491 -0.9502  0.4497
 5278TIP3    H137249   0.049   3.547   2.832 -1.4534 -0.4400  0.3145
 5278TIP3    H237250   0.112   3.531   2.968  0.2213 -1.7115 -0.5913
 5279TIP3   OH237251   2.446   0.241   2.741  0.3286  0.1641  0.1985
 5279TIP3    H137252   2.354   0.223   2.719  0.0843  1.1945  0.3462
 5279TIP3    H237253   2.496   0.196   2.673 -0.3547  1.4999 -1.2353
 5280TIP3   OH237254   0.076   1.424   2.177  0.5869 -0.1515  0.1101
 5280TIP3    H137255   0.098   1.375   2.257 -3.0171  0.8129  1.7977
 5280TIP3    H237256   0.068   1.357   2.110 -2.3065 -1.7243  1.9417
 5281TIP3   OH237257   6.635   1.828  13.794  0.5438  0.5945  0.1328
 5281TIP3    H137258   6.675   1.884  13.860  0.0191  2.0974 -0.8149
 5281TIP3    H237259   6.704   1.813  13.729  0.3876  0.9258 -0.1067
 5282TIP3   OH237260   2.390   5.311  12.288 -0.2557  0.2254  0.1247
 5282TIP3    H137261   2.389   5.374  12.216  0.1627  2.7029  2.2285
 5282TIP3    H237262   2.298   5.287  12.301 -0.3228 -0.3312 -1.2592
 5283TIP3   OH237263   5.734   4.226   2.358  0.2037  0.5377 -0.3624
 5283TIP3    H137264   5.829   4.234   2.354  0.3007  1.3475  2.4774
 5283TIP3    H237265   5.705   4.308   2.398 -1.6456  0.1095 -0.7858
 5284TIP3   OH237266   2.212   5.606   1.437  0.9417 -0.0574 -0.4569
 5284TIP3    H137267   2.188   5.699   1.434  0.0565 -0.2967 -1.1069
 5284TIP3    H237268   2.288   5.599   1.379  1.8545  0.4890  0.6445
 5285TIP3   OH237269   0.056   4.399   6.206 -0.2435 -0.1987  0.2048
 5285TIP3    H137270  -0.001   4.325   6.190 -1.5552  1.2444 -2.0762
 5285TIP3    H237271   0.030   4.432   6.292 -1.8962 -0.3912 -0.2130
 5286TIP3   OH237272   6.109   0.007  12.044  0.0132  0.3487 -0.2081
 5286TIP3    H137273   6.160  -0.073  12.058  0.7924  0.6172 -1.4097
 5286TIP3    H237274   6.173   0.071  12.013 -0.5940  1.4649  0.8117
 5287TIP3   OH237275   4.098   6.417  12.580  0.5242  0.2325 -0.7447
 5287TIP3    H137276   4.019   6.435  12.529 -1.5528 -3.5180  0.8943
 5287TIP3    H237277   4.069   6.418  12.671  2.6651  0.0741 -0.0282
 5288TIP3   OH237278   6.771   4.596   4.881 -0.4379  0.5116  0.0682
 5288TIP3    H137279   6.706   4.659   4.912 -0.5518 -0.0273  0.9439
 5288TIP3    H237280   6.856   4.636   4.903 -0.5114  0.3184  0.7192
 5289TIP3   OH237281   6.373   5.714  11.022  0.2816  0.0020 -0.2278
 5289TIP3    H137282   6.340   5.698  11.111 -1.8562  0.4667 -0.9101
 5289TIP3    H237283   6.439   5.782  11.033  1.0125 -0.9048  1.1693
 5290TIP3   OH237284   1.425   2.048  15.654 -0.0653 -0.4701  0.0159
 5290TIP3    H137285   1.341   2.003  15.646  0.4524 -1.5631  0.5621
 5290TIP3    H237286   1.419   2.122  15.594 -1.4171 -0.5385  0.0629
 5291TIP3   OH237287   6.065   4.215  16.375  0.3427  0.2859  0.0261
 5291TIP3    H137288   6.035   4.141  16.427  0.6746  1.1250  1.4383
 5291TIP3    H237289   6.139   4.181  16.325  0.0353 -0.5250  0.1151
 5292TIP3   OH237290   0.249   5.540   1.386  0.2650 -0.4212  0.1536
 5292TIP3    H137291   0.339   5.512   1.374  0.9618  1.0443  1.8226
 5292TIP3    H237292   0.206   5.465   1.428  1.2653 -0.2826  1.4272
 5293TIP3   OH237293   2.827   2.096  11.213 -0.5774  0.0164  0.5740
 5293TIP3    H137294   2.813   2.128  11.124 -1.3016 -0.7307  0.4141
 5293TIP3    H237295   2.857   2.006  11.201 -0.1487  0.0927  1.0708
 5294TIP3   OH237296   2.812   5.014  11.568 -0.3206 -0.1679 -0.6604
 5294TIP3    H137297   2.872   5.051  11.503 -0.4323  0.8767 -0.1762
 5294TIP3    H237298   2.856   5.029  11.652 -1.8846  1.8547 -0.1801
 5295TIP3   OH237299   0.320   5.776   1.519  0.6098 -0.1788 -0.3885
 5295TIP3    H137300   0.277   5.713   1.462 -1.5153  0.6133  0.2756
 5295TIP3    H237301   0.319   5.735   1.605  0.5304  0.1506 -0.2318
 5296TIP3   OH237302   3.050   0.295  16.042  0.5595 -0.0626  0.5229
 5296TIP3    H137303   3.129   0.348  16.043  0.5386 -0.0432  2.5385
 5296TIP3    H237304   3.002   0.324  15.964  0.8244  2.4442  1.2684
 5297TIP3   OH237305   3.873   6.058  15.764  0.1361 -0.3680  0.5369
 5297TIP3    H137306   3.895   5.982  15.818 -2.7208 -1.1459  0.6508
 5297TIP3    H237307   3.790   6.035  15.722  0.6545  1.5553 -1.6488
 5298TIP3   OH237308   3.040   3.669  13.791 -0.5203  0.4805 -0.2884
 5298TIP3    H137309   2.972   3.637  13.851  1.3795 -2.2048  0.5309
 5298TIP3    H237310   3.088   3.734  13.842  2.0203 -2.8553  1.7414
 5299TIP3   OH237311   2.385   1.852  12.006 -0.2776 -0.2261 -0.4529
 5299TIP3    H137312   2.428   1.936  11.990  0.7834 -0.2949  1.7886
 5299TIP3    H237313   2.445   1.806  12.066 -0.7642 -2.6249 -1.7509
 5300TIP3   OH237314   5.270   2.668   3.351  0.2033  0.4118  0.5161
 5300TIP3    H137315   5.303   2.668   3.441  0.6061  0.7121  0.3701
 5300TIP3    H237316   5.348   2.658   3.297 -0.0515  0.1254  0.2012
 5301TIP3   OH237317   2.061   1.684   5.720 -0.1284  0.1530  0.2932
 5301TIP3    H137318   2.052   1.589   5.724  0.0928  0.2188  3.2898
 5301TIP3    H237319   1.985   1.717   5.767  1.1722  1.3696  1.5971
 5302TIP3   OH237320   6.342   4.707  14.643 -0.4612  0.2509 -0.0658
 5302TIP3    H137321   6.314   4.787  14.688 -0.9575  0.5291 -0.8556
 5302TIP3    H237322   6.414   4.674  14.696 -0.8944  0.6933  0.8105
 5303TIP3   OH237323   5.402   0.984  11.493 -0.3695  0.0141  1.0661
 5303TIP3    H137324   5.411   0.960  11.400 -1.4598  1.0437  0.6785
 5303TIP3    H237325   5.371   0.904  11.535 -2.0530  0.1413  0.1313
 5304TIP3   OH237326   2.380   1.548   3.545  0.9666 -0.2271 -0.6749
 5304TIP3    H137327   2.312   1.550   3.478  1.5745 -0.8076 -1.3154
 5304TIP3    H237328   2.459   1.522   3.498  0.9321 -2.9690  0.7003
 5305TIP3   OH237329   0.413   5.053   1.739 -0.0533 -0.3639 -0.3412
 5305TIP3    H137330   0.425   5.042   1.834 -0.0307 -0.0262 -0.3045
 5305TIP3    H237331   0.497   5.027   1.701 -0.4043 -1.5337 -0.3497
 5306TIP3   OH237332   1.550   2.472  16.111 -0.3030 -0.5904  0.6475
 5306TIP3    H137333   1.465   2.481  16.154 -0.5609  0.2020 -0.0254
 5306TIP3    H237334   1.573   2.380  16.123 -1.2824 -0.8262  0.7754
 5307TIP3   OH237335   6.351   0.001  15.093 -0.1387 -0.2121 -0.0753
 5307TIP3    H137336   6.354   0.014  14.998 -0.3820  0.7910  0.0413
 5307TIP3    H237337   6.415   0.064  15.127  0.6057 -1.2080  0.3649
 5308TIP3   OH237338   4.265   1.139   2.923  0.1210  0.1068 -0.2230
 5308TIP3    H137339   4.224   1.079   2.985  1.7649 -0.8271 -0.0160
 5308TIP3    H237340   4.310   1.204   2.977  0.6534 -0.0786 -0.4394
 5309TIP3   OH237341   5.537   3.807  15.078 -0.1326  0.0116 -0.1560
 5309TIP3    H137342   5.466   3.871  15.074  0.7708  0.9794 -1.1783
 5309TIP3    H237343   5.616   3.859  15.094  0.5649 -0.8840 -0.5893
 5310TIP3   OH237344   3.904   2.829  17.041 -0.2559 -0.5846 -0.1915
 5310TIP3    H137345   3.849   2.786  17.106 -2.2304 -0.5924 -1.8223
 5310TIP3    H237346   3.867   2.917  17.032 -0.2739 -0.7236 -1.6019
 5311TIP3   OH237347   2.907   2.531  16.361 -0.2274  0.5459  0.1748
 5311TIP3    H137348   2.972   2.515  16.292 -0.1587  0.4219  0.2665
 5311TIP3    H237349   2.926   2.619  16.392  1.7355 -0.5356  2.1566
 5312TIP3   OH237350   5.655   3.755  12.602 -0.4107 -0.4422  0.2849
 5312TIP3    H137351   5.594   3.802  12.545 -1.2691 -0.4274  1.1946
 5312TIP3    H237352   5.629   3.663  12.595 -1.7682 -0.2357  2.0877
 5313TIP3   OH237353   4.699   3.651   0.396 -0.2956  0.7426 -0.2894
 5313TIP3    H137354   4.670   3.714   0.462 -0.3826  0.6363 -0.2262
 5313TIP3    H237355   4.691   3.566   0.439  1.2460  0.7989  0.1447
 5314TIP3   OH237356   5.588   0.982   1.982  0.0955  0.7774  0.2672
 5314TIP3    H137357   5.612   1.056   1.926  0.5708  0.7100  0.3811
 5314TIP3    H237358   5.619   1.007   2.069  0.9866  0.0911  0.1480
 5315TIP3   OH237359   3.309   2.149  13.904  0.1514 -0.1308 -0.4948
 5315TIP3    H137360   3.270   2.165  13.990  1.7797  0.4283  0.1616
 5315TIP3    H237361   3.274   2.220  13.849  0.4562  0.5350  0.1589
 5316TIP3   OH237362   6.051   1.125  10.626 -0.0969 -0.3189 -0.6740
 5316TIP3    H137363   5.958   1.106  10.637 -0.6393  2.6599  0.5906
 5316TIP3    H237364   6.053   1.196  10.562  1.1713  0.5880  0.3403
 5317TIP3   OH237365   3.627   3.774   4.155  0.0079  0.2745  0.2796
 5317TIP3    H137366   3.700   3.713   4.169 -0.2879 -0.8122 -2.5717
 5317TIP3    H237367   3.667   3.861   4.158  1.1950 -0.2552  0.1356
 5318TIP3   OH237368   1.849   2.653   1.308  0.6990 -0.2894 -0.0111
 5318TIP3    H137369   1.839   2.678   1.217  0.1862  2.7409  0.8223
 5318TIP3    H237370   1.760   2.632   1.337  0.6105  0.3895  0.2221
 5319TIP3   OH237371   6.382   4.563  15.723 -0.6821  0.1667  0.1955
 5319TIP3    H137372   6.323   4.622  15.677 -1.1450 -0.5922 -0.2069
 5319TIP3    H237373   6.434   4.523  15.653  0.3848  0.9190  0.5628
 5320TIP3   OH237374   2.331   5.738   2.959  0.4622  0.4099  0.0667
 5320TIP3    H137375   2.410   5.686   2.975  0.1317  0.4444  1.8646
 5320TIP3    H237376   2.347   5.820   3.006  0.5801  1.5905 -1.9828
 5321TIP3   OH237377   2.744   0.259  13.138 -0.2217  0.0484 -0.7773
 5321TIP3    H137378   2.826   0.214  13.158  0.6684  0.1960 -3.8655
 5321TIP3    H237379   2.677   0.191  13.149  0.2423 -0.0339  1.9200
 5322TIP3   OH237380   5.181   1.358   1.988  0.2339  0.4405 -0.1314
 5322TIP3    H137381   5.106   1.400   2.029 -1.0729 -1.2353 -0.7282
 5322TIP3    H237382   5.144   1.281   1.944  2.6754 -1.9436  1.8259
 5323TIP3   OH237383   1.036   3.915   4.891 -0.3545 -0.5134  0.0177
 5323TIP3    H137384   1.053   4.006   4.916  1.4332 -0.2858 -1.8711
 5323TIP3    H237385   1.122   3.873   4.897 -1.2755 -2.2158  1.4023
 5324TIP3   OH237386   5.424   5.261   1.919 -0.4233  0.0664  0.0478
 5324TIP3    H137387   5.509   5.245   1.961  0.9021  0.9063 -2.1831
 5324TIP3    H237388   5.372   5.306   1.986  2.0182  2.4065  0.4660
 5325TIP3   OH237389   5.395   6.621   5.757  0.4455 -0.3054 -0.3256
 5325TIP3    H137390   5.449   6.692   5.790  0.5359 -0.3268 -0.4271
 5325TIP3    H237391   5.447   6.582   5.686  1.2105 -1.6481  0.9446
 5326TIP3   OH237392   2.213   3.049  12.852  0.1495  0.3660 -0.3483
 5326TIP3    H137393   2.300   3.063  12.889  0.9673 -1.5204 -1.5056
 5326TIP3    H237394   2.226   2.981  12.786 -3.0441 -3.3763  2.6684
 5327TIP3   OH237395   2.236   3.445   6.465 -0.6091 -0.1103  0.1183
 5327TIP3    H137396   2.299   3.482   6.528  0.4495  3.5937 -2.9719
 5327TIP3    H237397   2.155   3.494   6.480 -0.5127  0.4030 -0.9850
 5328TIP3   OH237398   2.341   3.170  12.060 -0.1541  0.2916  0.1468
 5328TIP3    H137399   2.367   3.224  12.135  0.4866 -1.0048  0.8815
 5328TIP3    H237400   2.254   3.139  12.083  0.0555 -0.1320  0.3663
 5329TIP3   OH237401   3.401   2.793   4.434 -0.0039  0.0037  0.7369
 5329TIP3    H137402   3.408   2.717   4.492 -0.3093 -0.0113  0.7538
 5329TIP3    H237403   3.326   2.773   4.378 -0.5691  0.6550  1.2628
 5330TIP3   OH237404   0.554   3.926  11.134 -0.2847 -0.1400  0.5665
 5330TIP3    H137405   0.541   3.950  11.226 -4.2139 -1.3144  0.4092
 5330TIP3    H237406   0.566   4.010  11.089  1.2171  0.4703  2.0350
 5331TIP3   OH237407   3.228   4.891  16.118 -0.0381  0.1074  0.1075
 5331TIP3    H137408   3.241   4.796  16.118 -2.7884 -0.3062  1.5533
 5331TIP3    H237409   3.316   4.927  16.129  1.0014 -2.2671 -0.1049
 5332TIP3   OH237410   5.017   4.651   1.276 -0.4731 -0.4527 -0.1253
 5332TIP3    H137411   4.968   4.575   1.308 -1.5302  0.1321 -0.3194
 5332TIP3    H237412   4.986   4.724   1.329  0.7343 -0.1905  0.2402
 5333TIP3   OH237413   0.556   0.118  14.677 -0.1085  0.0871 -0.0487
 5333TIP3    H137414   0.483   0.059  14.695 -0.1087  0.0357 -0.2193
 5333TIP3    H237415   0.601   0.079  14.602  0.1818  0.0367  0.1494
 5334TIP3   OH237416   4.648   4.942  15.670  0.3523  0.0978 -0.3957
 5334TIP3    H137417   4.740   4.918  15.658  0.8581  1.1171  1.2037
 5334TIP3    H237418   4.644   5.034  15.644 -0.1884  0.0759 -0.3844
 5335TIP3   OH237419   3.219   1.839  11.008  0.4009 -0.2452 -0.4358
 5335TIP3    H137420   3.127   1.863  10.996  0.6222  0.8892  0.1333
 5335TIP3    H237421   3.268   1.906  10.961  0.9519 -0.6659 -0.4681
 5336TIP3   OH237422   0.223   5.064   1.320 -0.5728 -0.1636  0.0390
 5336TIP3    H137423   0.313   5.083   1.348 -0.4216  1.0668 -1.2120
 5336TIP3    H237424   0.168   5.122   1.372 -0.6911 -1.2105  1.1007
 5337TIP3   OH237425   3.785   0.516  14.965  0.3206 -0.1055  0.0203
 5337TIP3    H137426   3.712   0.455  14.975  0.8073 -0.7532 -0.3956
 5337TIP3    H237427   3.783   0.569  15.045 -0.1952 -0.5567  0.3105
 5338TIP3   OH237428   4.712   5.795  11.086 -0.6210  0.1162  0.2292
 5338TIP3    H137429   4.664   5.739  11.024  0.2792 -1.7512  1.1609
 5338TIP3    H237430   4.790   5.823  11.038 -0.1328 -0.9970  0.3419
 5339TIP3   OH237431   6.309   4.277  11.596  0.5941 -0.0914 -0.3578
 5339TIP3    H137432   6.275   4.328  11.522  1.5864  0.8174 -0.1885
 5339TIP3    H237433   6.231   4.255  11.647  0.0239  0.2432 -1.0700
 5340TIP3   OH237434   2.996   2.423   6.177  0.4976  0.3168  0.1402
 5340TIP3    H137435   2.977   2.411   6.270  1.5832  1.6890  0.5611
 5340TIP3    H237436   3.088   2.396   6.168  0.0985 -0.8027 -0.7447
 5341TIP3   OH237437   3.698   0.411   3.169  0.6780  0.3276 -0.1977
 5341TIP3    H137438   3.605   0.428   3.153  0.3822 -1.1367 -0.0601
 5341TIP3    H237439   3.715   0.451   3.254  0.3798  1.3120 -0.5935
 5342TIP3   OH237440   3.107   5.105  13.443 -0.5483 -0.5442 -0.4263
 5342TIP3    H137441   3.195   5.129  13.415 -0.3424 -1.6541 -0.7436
 5342TIP3    H237442   3.086   5.027  13.392 -1.0229 -1.3138  0.9385
 5343TIP3   OH237443   2.142   4.659   1.410  0.4189  0.6467 -0.3430
 5343TIP3    H137444   2.051   4.647   1.383 -0.3395  1.6018  1.7319
 5343TIP3    H237445   2.186   4.689   1.330 -1.1482  0.5696 -1.2658
 5344TIP3   OH237446   5.144   1.313  12.490  0.3300  0.8557 -0.2643
 5344TIP3    H137447   5.172   1.238  12.542  2.0452  1.5866 -0.1225
 5344TIP3    H237448   5.109   1.274  12.409 -1.7340 -0.2354  1.1088
 5345TIP3   OH237449   4.266   3.785  13.160 -0.1799 -0.1487 -0.3308
 5345TIP3    H137450   4.179   3.746  13.154 -0.6766  0.6078  1.6769
 5345TIP3    H237451   4.275   3.834  13.078 -0.3613 -2.7287 -1.9812
 5346TIP3   OH237452   2.992   6.596   4.986  0.8676  0.2830  0.2201
 5346TIP3    H137453   3.034   6.510   4.976  0.3699 -0.2384  2.2936
 5346TIP3    H237454   2.904   6.576   5.016 -0.3073  1.4434 -2.3718
 5347TIP3   OH237455   0.106   2.747   3.115  0.4264 -0.1688  0.5118
 5347TIP3    H137456   0.177   2.752   3.051 -0.7317  1.9902 -0.6710
 5347TIP3    H237457   0.140   2.690   3.184  3.7611  1.6901  0.5197
 5348TIP3   OH237458   5.332   3.714   3.599 -0.3435  0.0895 -0.1382
 5348TIP3    H137459   5.311   3.621   3.591  0.0204  0.0606 -0.7434
 5348TIP3    H237460   5.381   3.721   3.681  0.0604 -0.3252 -0.3447
 5349TIP3   OH237461   6.147   0.415   1.495 -0.4231  0.0562  0.8038
 5349TIP3    H137462   6.207   0.450   1.561 -1.0259  0.8481  0.9420
 5349TIP3    H237463   6.062   0.453   1.518 -0.8125 -0.3843  0.1058
 5350TIP3   OH237464   3.636   0.530   2.113  0.3452  0.0473  0.0128
 5350TIP3    H137465   3.664   0.609   2.159 -0.1169  0.7351 -0.8761
 5350TIP3    H237466   3.619   0.559   2.023  1.5956 -1.3394 -0.6966
 5351TIP3   OH237467   4.030   1.943  10.976 -0.4015  0.3723  0.3127
 5351TIP3    H137468   4.070   2.004  10.914 -3.6622  1.1177 -1.1324
 5351TIP3    H237469   4.039   1.857  10.934  1.3634  0.2282  0.9156
 5352TIP3   OH237470   2.131   0.181  14.387  0.2682  0.1141  0.1048
 5352TIP3    H137471   2.137   0.093  14.349 -0.8273 -0.1919  0.6422
 5352TIP3    H237472   2.194   0.181  14.459 -1.4920 -1.0315  1.6714
 5353TIP3   OH237473   2.660   4.349  11.495 -0.3111  0.0649  0.2815
 5353TIP3    H137474   2.682   4.407  11.568 -2.6437  0.8699  0.3825
 5353TIP3    H237475   2.652   4.262  11.534 -0.7012  0.3504  0.8531
 5354TIP3   OH237476   3.139   0.793   6.071 -0.4746 -1.0720  0.3078
 5354TIP3    H137477   3.160   0.872   6.023  0.5364 -0.5083  1.6573
 5354TIP3    H237478   3.043   0.786   6.066 -0.5770  0.3169  0.3061
 5355TIP3   OH237479   6.622   2.700  14.958  0.0745  0.1888 -0.7622
 5355TIP3    H137480   6.715   2.697  14.983 -0.1592 -1.4528  0.0142
 5355TIP3    H237481   6.582   2.758  15.023  0.1569 -1.0046  0.3780
 5356TIP3   OH237482   0.720   0.265   1.255 -0.6726  0.1791  0.3359
 5356TIP3    H137483   0.739   0.238   1.345  0.9037  0.6756  0.1736
 5356TIP3    H237484   0.791   0.326   1.233 -0.9097 -0.1161 -1.3203
 5357TIP3   OH237485   3.247   4.091  16.806  0.2739 -0.1341  0.1064
 5357TIP3    H137486   3.161   4.079  16.765  0.4062  1.3189 -0.6462
 5357TIP3    H237487   3.310   4.077  16.735  0.5992  0.1186  0.3418
 5358TIP3   OH237488   4.189   1.350  12.463 -0.5120 -0.3353 -0.2867
 5358TIP3    H137489   4.201   1.433  12.415 -4.0701  1.6733  2.1190
 5358TIP3    H237490   4.271   1.338  12.511 -0.0889  2.0238 -0.3623
 5359TIP3   OH237491   1.884   5.416   1.655  0.6614 -0.1964 -0.4648
 5359TIP3    H137492   1.947   5.415   1.727  0.6448 -1.3761 -0.4536
 5359TIP3    H237493   1.898   5.333   1.610 -0.5653 -0.2626 -0.7422
 5360TIP3   OH237494   0.622   3.773   4.334  0.1203 -0.3119 -0.8887
 5360TIP3    H137495   0.590   3.862   4.346  0.6236 -0.3801  1.0151
 5360TIP3    H237496   0.552   3.729   4.285 -1.5974  0.2210  1.0430
 5361TIP3   OH237497   6.385   5.636  15.905 -0.2696  0.6307  0.2924
 5361TIP3    H137498   6.312   5.686  15.942  0.9034  2.7689 -0.1861
 5361TIP3    H237499   6.391   5.666  15.814 -1.2345 -2.3916 -0.8102
 5362TIP3   OH237500   1.888   6.375  16.690  0.0786 -0.0921 -0.2428
 5362TIP3    H137501   1.919   6.289  16.716 -0.3706 -0.7410 -1.7613
 5362TIP3    H237502   1.794   6.363  16.675 -0.1331  0.8509  0.2944
 5363TIP3   OH237503   2.578   4.498   0.211  0.1616 -0.2950 -0.1016
 5363TIP3    H137504   2.584   4.453   0.126  1.4447 -0.3091 -0.0093
 5363TIP3    H237505   2.610   4.587   0.194 -0.7125  0.0643  0.1078
 5364TIP3   OH237506   5.365   0.248  14.926  0.0526 -0.0668  0.1408
 5364TIP3    H137507   5.319   0.332  14.923  0.4002  0.1161 -0.1482
 5364TIP3    H237508   5.341   0.210  15.011 -0.2937  0.2163  0.1691
 5365TIP3   OH237509   1.586   6.619   3.086 -0.1600  0.1707 -0.6421
 5365TIP3    H137510   1.605   6.612   3.179 -2.7277  0.4667 -0.0695
 5365TIP3    H237511   1.539   6.538   3.064 -0.7490  0.7074 -1.3841
 5366TIP3   OH237512   4.445   3.545   2.852 -0.4338  0.7959 -0.2244
 5366TIP3    H137513   4.485   3.608   2.912  0.4905  0.8777 -0.9066
 5366TIP3    H237514   4.500   3.467   2.860 -0.8056  0.5251 -0.3381
 5367TIP3   OH237515   2.398   0.948   5.780  0.4185 -0.0505 -0.1771
 5367TIP3    H137516   2.423   0.888   5.710  1.4862 -3.6086  3.0998
 5367TIP3    H237517   2.473   0.948   5.840 -2.0117 -0.2887  3.0231
 5368TIP3   OH237518   1.315   3.577   3.593 -0.2440  0.7742  0.0826
 5368TIP3    H137519   1.349   3.503   3.644  0.6627  1.3338  0.3016
 5368TIP3    H237520   1.333   3.554   3.502 -1.2990  0.0608  0.0418
 5369TIP3   OH237521   5.178   2.310   5.204  0.0088  0.4470  0.9241
 5369TIP3    H137522   5.089   2.312   5.238 -0.4773  0.6319 -0.3246
 5369TIP3    H237523   5.223   2.381   5.250 -1.5225  2.8765 -1.1386
 5370TIP3   OH237524   4.991   0.654   4.169  0.8965 -0.0130  0.8217
 5370TIP3    H137525   4.948   0.740   4.162  0.0003 -0.4476  0.8925
 5370TIP3    H237526   4.988   0.618   4.081 -1.3147 -1.1858  1.3504
 5371TIP3   OH237527   5.235   5.209   0.925  0.0474  0.1718  0.3645
 5371TIP3    H137528   5.232   5.305   0.929  0.6812  0.2441 -0.7690
 5371TIP3    H237529   5.233   5.181   1.016  2.4471  1.3458  0.8115
 5372TIP3   OH237530   6.290   0.558   5.539  0.7031 -0.1785  0.1670
 5372TIP3    H137531   6.318   0.540   5.450  1.7675  0.1994  0.4242
 5372TIP3    H237532   6.231   0.633   5.531 -0.0515 -0.8224 -0.3411
 5373TIP3   OH237533   0.847   5.069  16.785  0.8179 -0.8356  0.2625
 5373TIP3    H137534   0.852   4.997  16.847  0.3792 -0.9970  0.1118
 5373TIP3    H237535   0.828   5.027  16.701  0.7361 -0.5611  0.1420
 5374TIP3   OH237536   3.630   3.116   0.801 -0.2774  0.3271  0.3530
 5374TIP3    H137537   3.657   3.030   0.836  0.4357 -0.6980 -2.6106
 5374TIP3    H237538   3.712   3.162   0.785 -0.6392  1.2050  1.0188
 5375TIP3   OH237539   6.128   3.551   1.121  0.1343 -0.2017  0.6126
 5375TIP3    H137540   6.214   3.512   1.105  0.8041  0.8538  1.5929
 5375TIP3    H237541   6.127   3.631   1.069 -1.4835 -1.7554 -1.8883
 5376TIP3   OH237542   0.962   5.228   4.442  0.3067  0.0199 -0.2416
 5376TIP3    H137543   0.983   5.137   4.464  0.7210 -0.2962 -1.8249
 5376TIP3    H237544   0.868   5.227   4.424 -0.2422  0.4923  2.3940
 5377TIP3   OH237545   1.097   1.505   3.535 -0.0718  0.5563  0.5786
 5377TIP3    H137546   1.105   1.546   3.449  1.4555  2.2184  1.4880
 5377TIP3    H237547   1.003   1.510   3.555 -0.3873  0.4948 -0.8019
 5378TIP3   OH237548   5.943   1.656   6.094  0.2162 -0.2200  0.2541
 5378TIP3    H137549   5.868   1.635   6.149  0.2124 -2.0769 -0.4264
 5378TIP3    H237550   5.907   1.706   6.021 -0.1707 -0.0685  0.5491
 5379TIP3   OH237551   1.326   4.627  12.544  0.1058 -0.6209  0.1727
 5379TIP3    H137552   1.249   4.679  12.522  0.8560  0.6407  0.4910
 5379TIP3    H237553   1.388   4.690  12.581  1.5703 -1.4724 -0.7699
 5380TIP3   OH237554   6.100   3.813   1.026  0.0339 -0.0511 -0.6873
 5380TIP3    H137555   6.031   3.868   0.989  1.3245  1.0443 -1.5303
 5380TIP3    H237556   6.182   3.857   1.001  1.0193 -0.6164  1.3756
 5381TIP3   OH237557   3.711   5.481   4.785 -0.3667 -0.3137  0.3953
 5381TIP3    H137558   3.702   5.453   4.693  0.2785 -0.8551  0.5001
 5381TIP3    H237559   3.776   5.550   4.782 -0.7341  0.0357  0.3765
 5382TIP3   OH237560   0.099   5.117  15.033  0.4728 -0.0727  0.0108
 5382TIP3    H137561   0.152   5.171  15.093  2.1842 -2.1546  0.4341
 5382TIP3    H237562   0.123   5.149  14.946  0.8300  0.4213  0.2840
 5383TIP3   OH237563   3.737   2.337  11.708 -0.0352 -0.6793  0.1800
 5383TIP3    H137564   3.726   2.426  11.675  0.0181  0.1566  2.2989
 5383TIP3    H237565   3.718   2.280  11.633 -4.3309  1.0093 -0.1640
 5384TIP3   OH237566   5.021   3.024   1.638  0.2526 -0.5853 -0.4520
 5384TIP3    H137567   4.969   3.065   1.707  0.2222  0.7279 -1.2431
 5384TIP3    H237568   4.966   2.952   1.607 -0.6738  0.1634 -0.5843
 5385TIP3   OH237569   0.275   5.069  17.042 -0.0838 -0.6231 -0.1629
 5385TIP3    H137570   0.274   4.973  17.048 -0.3176 -0.7530 -1.8771
 5385TIP3    H237571   0.368   5.092  17.045  0.0706 -1.0439 -1.4143
 5386TIP3   OH237572   6.713   5.686  11.102  0.5220  0.2947  0.6385
 5386TIP3    H137573   6.799   5.647  11.088  0.4433 -0.2289  1.5534
 5386TIP3    H237574   6.693   5.731  11.020  1.5467  0.1903  0.3267
 5387TIP3   OH237575   5.592   0.672  14.772  0.0037  0.0867 -0.2709
 5387TIP3    H137576   5.508   0.718  14.779  0.3773  0.7425 -0.0199
 5387TIP3    H237577   5.569   0.586  14.738 -0.4862  1.2045 -2.8923
 5388TIP3   OH237578   2.817   3.179  15.801 -0.1376 -0.5996 -0.1427
 5388TIP3    H137579   2.725   3.191  15.827  0.5256 -0.4071  2.2942
 5388TIP3    H237580   2.838   3.089  15.827  0.5300 -0.4411 -0.1188
 5389TIP3   OH237581   1.060   5.734   6.238  0.1050  0.1746 -0.2101
 5389TIP3    H137582   1.110   5.805   6.197  1.7035  0.3430  1.9522
 5389TIP3    H237583   1.108   5.714   6.318 -2.1162 -1.1697  0.8299
 5390TIP3   OH237584   2.060   1.101   1.724  0.9149 -0.5481 -0.1187
 5390TIP3    H137585   2.140   1.094   1.672  1.7789 -0.6334  1.2149
 5390TIP3    H237586   1.995   1.135   1.662  2.6462  2.1385 -0.5563
 5391TIP3   OH237587   1.868   2.455   3.779 -0.3773 -0.0274  0.1936
 5391TIP3    H137588   1.785   2.485   3.818 -0.1501  1.6535 -0.5788
 5391TIP3    H237589   1.843   2.416   3.696 -0.3979  0.4374 -0.0179
 5392TIP3   OH237590   4.128   5.814  11.847  0.9732  0.0478  0.3092
 5392TIP3    H137591   4.145   5.722  11.826 -0.7131 -0.8210  2.5283
 5392TIP3    H237592   4.074   5.845  11.775  0.6198 -1.0266  0.1014
 5393TIP3   OH237593   1.621   2.020   0.834 -0.4177  0.4133 -0.5119
 5393TIP3    H137594   1.640   2.114   0.839 -2.4381  0.8337 -0.2910
 5393TIP3    H237595   1.576   2.000   0.916  2.6116 -1.4194  0.7714
 5394TIP3   OH237596   4.601   2.662  13.928  0.3053  0.2174 -0.1696
 5394TIP3    H137597   4.516   2.620  13.939 -0.2547  1.1586 -0.9059
 5394TIP3    H237598   4.650   2.636  14.006 -0.8382  0.1045  0.5275
 5395TIP3   OH237599   5.116   6.639   0.490  0.3129 -0.3487 -0.0985
 5395TIP3    H137600   5.195   6.683   0.520  0.8258 -0.9904 -0.4925
 5395TIP3    H237601   5.101   6.674   0.402 -2.5219  3.2996  1.7224
 5396TIP3   OH237602   0.649   3.435  10.970 -0.3350  0.1405 -0.5165
 5396TIP3    H137603   0.632   3.366  10.905 -1.2380 -0.2375  0.1131
 5396TIP3    H237604   0.618   3.398  11.052  1.1672  0.4734  0.2055
 5397TIP3   OH237605   2.251   5.738  15.209 -0.0573 -0.2065 -0.1036
 5397TIP3    H137606   2.331   5.743  15.261 -0.1155  0.2968 -0.0650
 5397TIP3    H237607   2.241   5.825  15.171 -0.8768 -0.1167  0.3220
 5398TIP3   OH237608   5.225   4.298  17.106 -0.3745  0.4948 -0.4021
 5398TIP3    H137609   5.229   4.242  17.184  1.1110  0.4603 -0.4862
 5398TIP3    H237610   5.197   4.383  17.139  1.1523  0.7278  0.3219
 5399TIP3   OH237611   1.557   4.992  15.066 -0.1063  0.2349 -0.1414
 5399TIP3    H137612   1.535   4.926  15.000  2.2610 -0.2938 -0.4517
 5399TIP3    H237613   1.622   5.048  15.023 -0.3813  1.3816  0.9057
 5400TIP3   OH237614   3.905   2.796  15.188  0.1473 -0.3284  0.2452
 5400TIP3    H137615   3.989   2.766  15.152  1.6827  1.3166  2.3042
 5400TIP3    H237616   3.852   2.816  15.111  2.4831  0.8397 -1.1430
 5401TIP3   OH237617   1.696   2.959   3.874 -0.3743 -0.2630  0.3614
 5401TIP3    H137618   1.691   3.053   3.892 -0.1806 -0.4053  1.1597
 5401TIP3    H237619   1.706   2.953   3.779  1.8571  0.5902  0.5345
 5402TIP3   OH237620   6.606   3.578   1.427  0.0137  0.0282 -0.0708
 5402TIP3    H137621   6.592   3.539   1.341 -0.3440  0.7466 -0.3429
 5402TIP3    H237622   6.519   3.581   1.467  0.5180 -2.5195  1.2905
 5403TIP3   OH237623   6.558   3.551  11.766 -0.1245 -0.3158  0.4410
 5403TIP3    H137624   6.468   3.545  11.798  0.7954  0.5721  3.3197
 5403TIP3    H237625   6.612   3.527  11.841  2.0811  0.5399 -0.8303
 5404TIP3   OH237626   1.058   1.687  17.145 -0.2130  0.0397  0.0254
 5404TIP3    H137627   1.100   1.609  17.182  2.1074  1.2470  0.0319
 5404TIP3    H237628   1.112   1.708  17.068 -0.5780  1.8774  0.2663
 5405TIP3   OH237629   0.937   1.463  14.105  0.2557 -0.5112  0.1655
 5405TIP3    H137630   0.989   1.526  14.155 -1.1701  0.2884  0.6927
 5405TIP3    H237631   0.921   1.392  14.167 -1.6430  0.5515  0.9431
 5406TIP3   OH237632   0.499   6.544  12.198 -0.0209  0.3315 -0.1785
 5406TIP3    H137633   0.426   6.605  12.210 -0.5437 -0.2641 -0.3093
 5406TIP3    H237634   0.474   6.467  12.249  0.5979  0.1923 -0.0835
 5407TIP3   OH237635   0.614   5.557   0.004 -0.3704  0.5723 -0.3950
 5407TIP3    H137636   0.684   5.540   0.068 -0.0701  1.4378 -0.4783
 5407TIP3    H237637   0.656   5.546  -0.081 -0.1365  1.8233 -0.4489
 5408TIP3   OH237638   6.431   5.930   3.438  0.2270 -0.1596  0.0570
 5408TIP3    H137639   6.443   5.944   3.532  0.9682  0.1370 -0.0800
 5408TIP3    H237640   6.434   6.017   3.400  1.6486 -0.4106 -0.4337
 5409TIP3   OH237641   5.306   2.242  13.065  0.0590  0.0850 -0.8206
 5409TIP3    H137642   5.267   2.328  13.048 -1.0461 -0.3392 -0.4720
 5409TIP3    H237643   5.315   2.203  12.978 -1.2532 -0.2174 -0.8296
 5410TIP3   OH237644   4.234   1.107   2.657  0.3285 -0.1273 -0.6310
 5410TIP3    H137645   4.266   1.107   2.747  3.9647  2.5304 -1.8224
 5410TIP3    H237646   4.160   1.168   2.659 -0.9851 -1.7016  0.9236
 5411TIP3   OH237647   2.122   0.107   0.867 -0.1461  0.2883  0.2028
 5411TIP3    H137648   2.181   0.161   0.920  0.3595 -0.7245  0.6911
 5411TIP3    H237649   2.088   0.167   0.800  1.5151  0.8614 -0.1455
 5412TIP3   OH237650   5.726   0.055   2.438  0.4006 -0.1987 -0.0892
 5412TIP3    H137651   5.739   0.149   2.428  2.6498 -0.4832 -0.1351
 5412TIP3    H237652   5.814   0.020   2.451 -0.0418 -2.6621 -3.0795
 5413TIP3   OH237653   5.634   1.863   1.683  0.5416  0.5963  0.0999
 5413TIP3    H137654   5.635   1.780   1.730 -0.7009 -1.4709 -3.3244
 5413TIP3    H237655   5.721   1.869   1.643 -0.1046 -0.2274 -1.4883
 5414TIP3   OH237656   1.944   3.576   3.215 -0.1776  0.3487  0.1576
 5414TIP3    H137657   1.899   3.594   3.297  0.5859 -2.4350  1.2402
 5414TIP3    H237658   1.875   3.546   3.156 -0.4866  0.8263  0.2753
 5415TIP3   OH237659   5.641   2.500  10.839 -0.1502 -0.2709  0.2336
 5415TIP3    H137660   5.732   2.487  10.813 -0.2154 -0.1000 -0.0856
 5415TIP3    H237661   5.627   2.594  10.831 -0.1859 -0.2227  0.8475
 5416TIP3   OH237662   3.632   5.348   2.437  0.0675 -0.4027  0.2317
 5416TIP3    H137663   3.662   5.437   2.417 -0.7658 -0.0543  0.5254
 5416TIP3    H237664   3.709   5.294   2.422  0.4091  0.2869 -0.5845
 5417TIP3   OH237665   2.585   0.617   4.970  0.0900  0.2964  0.4514
 5417TIP3    H137666   2.658   0.654   4.920  0.3961 -1.1609 -0.1919
 5417TIP3    H237667   2.516   0.605   4.906  0.0178 -0.3292  0.6496
 5418TIP3   OH237668   5.939   4.503  14.190  0.5459  0.2279 -0.3045
 5418TIP3    H137669   6.032   4.483  14.177  0.4431 -0.7458  0.3691
 5418TIP3    H237670   5.924   4.583  14.139  1.4792 -0.2611 -1.3811
 5419TIP3   OH237671   6.176   2.491  12.131  0.2175  0.2590 -0.2145
 5419TIP3    H137672   6.085   2.504  12.160  0.7528  0.9837  1.1959
 5419TIP3    H237673   6.203   2.409  12.172 -0.4966 -1.1221 -2.4401
 5420TIP3   OH237674   2.356   1.460   2.763 -0.2976  0.0250 -0.3052
 5420TIP3    H137675   2.268   1.478   2.796  0.1769  1.0037  0.4571
 5420TIP3    H237676   2.350   1.475   2.669 -0.9356  0.1197 -0.2529
 5421TIP3   OH237677   2.854   1.824   1.748 -0.2675 -0.1948 -0.0253
 5421TIP3    H137678   2.903   1.749   1.781  0.7248 -0.8414 -2.8710
 5421TIP3    H237679   2.776   1.786   1.708 -0.0560  0.3345 -0.9438
 5422TIP3   OH237680   5.959   5.858   2.659  0.5486  1.0863 -0.3431
 5422TIP3    H137681   5.933   5.877   2.569  1.5041  1.3863 -0.5701
 5422TIP3    H237682   5.905   5.917   2.713  0.5536  1.4916 -0.7744
 5423TIP3   OH237683   6.179   0.231  14.967 -0.1121  0.1394  0.0865
 5423TIP3    H137684   6.235   0.292  15.015  0.4457  0.4614 -0.9659
 5423TIP3    H237685   6.191   0.254  14.875 -2.3076  0.4874 -0.1344
 5424TIP3   OH237686   4.241   6.058   0.799  0.8427 -0.1241 -0.0466
 5424TIP3    H137687   4.188   6.038   0.877  0.6161 -0.3181 -0.2493
 5424TIP3    H237688   4.235   6.153   0.790 -0.3104 -0.2344 -0.6529
 5425TIP3   OH237689   6.054   4.609   0.599  0.1552  0.7061 -0.1740
 5425TIP3    H137690   6.080   4.538   0.658 -1.1645  0.2396 -0.1212
 5425TIP3    H237691   6.136   4.642   0.563  0.8521 -0.2307  0.5256
 5426TIP3   OH237692   2.966   3.444   1.870 -0.1199 -0.3871  0.0658
 5426TIP3    H137693   3.001   3.356   1.852  0.9618  0.1144 -0.3507
 5426TIP3    H237694   2.963   3.486   1.785 -1.9314 -0.4720  0.0840
 5427TIP3   OH237695   0.179   3.585  13.001  0.4000  0.4613 -0.6901
 5427TIP3    H137696   0.220   3.669  12.981  0.4582  0.7827  0.7481
 5427TIP3    H237697   0.177   3.539  12.917  2.4687  0.9781 -1.0523
 5428TIP3   OH237698   1.999   3.745   1.042 -0.9928 -0.0381 -0.0513
 5428TIP3    H137699   1.908   3.763   1.067 -0.7529 -0.3521  1.0547
 5428TIP3    H237700   2.010   3.651   1.055 -0.0483  0.2584  1.3156
 5429TIP3   OH237701   0.496   0.587   1.865  0.4796 -0.0399  0.5902
 5429TIP3    H137702   0.537   0.659   1.817  0.4045 -0.6692 -0.4368
 5429TIP3    H237703   0.553   0.512   1.850  0.8991 -0.0580  2.1856
 5430TIP3   OH237704   4.182   3.990  17.100 -0.6888 -0.1973 -0.1193
 5430TIP3    H137705   4.109   3.929  17.091 -1.5978  0.8620 -0.1111
 5430TIP3    H237706   4.169   4.053  17.028 -0.5449  0.7451  0.6675
 5431TIP3   OH237707   4.485   2.005   2.378  0.5897  0.3055  0.2914
 5431TIP3    H137708   4.421   1.937   2.357  1.1647  0.2350 -1.3167
 5431TIP3    H237709   4.504   1.992   2.471 -2.2173  0.7535  0.9911
 5432TIP3   OH237710   5.558   2.914  12.674 -0.2229 -0.1592 -0.3300
 5432TIP3    H137711   5.503   2.974  12.725 -0.9648 -1.4486  0.4121
 5432TIP3    H237712   5.512   2.903  12.591 -0.3049 -0.0268 -0.3009
 5433TIP3   OH237713   6.347   1.993  10.785  0.1676  0.5171 -0.2943
 5433TIP3    H137714   6.290   2.041  10.845 -1.7417 -0.4546 -1.2861
 5433TIP3    H237715   6.318   1.902  10.791  1.9461 -0.0632 -0.4563
 5434TIP3   OH237716   1.566   6.224   5.628  0.0719  0.2339  0.4203
 5434TIP3    H137717   1.545   6.282   5.555  0.9655  0.9584  0.7264
 5434TIP3    H237718   1.621   6.156   5.590 -1.3364 -0.6840 -0.0300
 5435TIP3   OH237719   1.108   2.290   2.786  0.4093  0.0724  0.0159
 5435TIP3    H137720   1.142   2.326   2.704 -0.8375 -1.8796 -1.3987
 5435TIP3    H237721   1.161   2.212   2.801  1.7224  1.2865  1.9841
 5436TIP3   OH237722   0.990   2.301  16.632  0.1215  0.1091 -0.5889
 5436TIP3    H137723   0.966   2.232  16.694  0.4595 -1.0042 -1.6826
 5436TIP3    H237724   0.922   2.297  16.564  0.2730  0.6912 -0.7760
 5437TIP3   OH237725   2.586   4.435  14.888  0.0321 -0.4713  0.1066
 5437TIP3    H137726   2.565   4.505  14.826  0.4066  1.9514  2.6128
 5437TIP3    H237727   2.506   4.424  14.939 -0.4551 -2.8368 -1.0902
 5438TIP3   OH237728   3.126   3.438   1.266 -0.5830  0.1856 -0.4269
 5438TIP3    H137729   3.200   3.499   1.261  1.5118 -2.0984  0.9421
 5438TIP3    H237730   3.067   3.477   1.331  0.2092  1.2845 -0.3546
 5439TIP3   OH237731   1.936   2.281   0.326  0.9168 -0.3900 -0.4304
 5439TIP3    H137732   1.934   2.325   0.411  1.3473  0.0791 -0.6590
 5439TIP3    H237733   1.931   2.188   0.346 -1.7197 -0.1943  0.0019
 5440TIP3   OH237734   1.231   1.187  11.460 -0.0144 -0.0333 -0.1340
 5440TIP3    H137735   1.169   1.260  11.464 -0.0335 -0.0477 -0.1694
 5440TIP3    H237736   1.312   1.225  11.428  0.0051 -0.0079 -0.0547
 5441TIP3   OH237737   0.010   4.116   0.942  0.1847  0.2184  0.2815
 5441TIP3    H137738  -0.034   4.100   0.858  0.0900  0.7480  0.2303
 5441TIP3    H237739   0.019   4.211   0.947  0.7513  0.1534  0.5873
 5442TIP3   OH237740   5.245   2.350   0.120  0.2203 -0.2249 -0.2419
 5442TIP3    H137741   5.160   2.308   0.132 -0.5021  1.9162  2.4045
 5442TIP3    H237742   5.309   2.281   0.139 -0.9151 -1.2668 -0.1591
 5443TIP3   OH237743   3.966   0.473  11.625  0.1494 -0.0590  0.2978
 5443TIP3    H137744   4.041   0.451  11.681  0.0381  0.7684  0.7837
 5443TIP3    H237745   3.890   0.441  11.673  0.1395 -0.3069  0.1170
 5444TIP3   OH237746   1.283   0.340   1.028  0.1100 -0.1298  0.0784
 5444TIP3    H137747   1.337   0.404   0.982 -0.0477 -0.8442 -1.1208
 5444TIP3    H237748   1.247   0.284   0.959 -0.1790 -1.1840  1.0537
 5445TIP3   OH237749   1.169   2.599   5.250  0.0904  0.5384  0.8598
 5445TIP3    H137750   1.166   2.668   5.316 -0.0069  1.3950 -0.0257
 5445TIP3    H237751   1.189   2.644   5.168 -2.2109 -0.1678 -0.1475
 5446TIP3   OH237752   2.756   3.357   3.506 -0.6514 -0.0469 -0.3031
 5446TIP3    H137753   2.765   3.417   3.580 -1.3477  1.1896 -1.1925
 5446TIP3    H237754   2.772   3.270   3.543 -2.0477  0.4320  1.5372
 5447TIP3   OH237755   2.066   0.571  13.881  0.1939  0.2373 -0.0127
 5447TIP3    H137756   2.079   0.654  13.834  1.6416 -0.1101 -0.2545
 5447TIP3    H237757   1.971   0.559  13.882 -0.1335  2.6053  1.2821
 5448TIP3   OH237758   4.301   6.543   1.489 -0.2074  0.1336 -0.3812
 5448TIP3    H137759   4.210   6.514   1.480  0.6474 -1.8888 -3.4791
 5448TIP3    H237760   4.319   6.536   1.583 -3.1038  0.1493  0.2216
 5449TIP3   OH237761   6.593   1.508   5.079  0.3945  0.1882 -0.3364
 5449TIP3    H137762   6.590   1.412   5.080  1.4125  0.1581  1.2381
 5449TIP3    H237763   6.502   1.535   5.082  0.0734 -0.7338 -1.4150
 5450TIP3   OH237764   0.681   1.933  14.983  0.7265  0.0897 -0.5076
 5450TIP3    H137765   0.681   1.845  14.945 -1.6251 -1.4397  2.7428
 5450TIP3    H237766   0.641   1.988  14.917  1.4572 -1.4417 -2.2810
 5451TIP3   OH237767   1.191   6.017  16.920 -0.3114 -0.7100 -0.4268
 5451TIP3    H137768   1.160   5.986  16.835 -0.5573  2.8386 -1.7242
 5451TIP3    H237769   1.134   6.091  16.941  0.4315 -0.8603  2.3428
 5452TIP3   OH237770   3.576   6.024   6.397 -0.3188  0.6636 -0.2021
 5452TIP3    H137771   3.516   6.050   6.467 -0.4036  0.2323 -0.1133
 5452TIP3    H237772   3.658   6.068   6.418 -0.3345  0.5095  0.1816
 5453TIP3   OH237773   4.712   1.889   3.879 -0.0457 -0.2981  0.4070
 5453TIP3    H137774   4.650   1.890   3.951  0.0832  1.3368  0.5063
 5453TIP3    H237775   4.785   1.943   3.908  0.3749 -0.2869 -0.6261
 5454TIP3   OH237776   3.468   2.378   5.797 -0.4546 -0.5218 -0.4198
 5454TIP3    H137777   3.478   2.402   5.890 -1.6285  1.0133 -0.6569
 5454TIP3    H237778   3.513   2.294   5.789  0.7353 -0.0860  1.2763
 5455TIP3   OH237779   1.466   3.372  15.921 -0.4201 -0.7061  0.6129
 5455TIP3    H137780   1.558   3.397  15.911 -0.5564 -0.4859 -0.1374
 5455TIP3    H237781   1.421   3.420  15.851 -0.8926 -1.9667  0.0423
 5456TIP3   OH237782   4.022   6.464   5.751  0.4347  0.2443 -0.6507
 5456TIP3    H137783   3.948   6.455   5.812 -0.5615 -2.1671 -2.1269
 5456TIP3    H237784   4.074   6.536   5.786 -2.5688  1.9286  0.4733
 5457TIP3   OH237785   5.454   1.679   1.114 -0.0623  0.4017  0.7989
 5457TIP3    H137786   5.404   1.613   1.066  0.9494  1.7225 -2.2234
 5457TIP3    H237787   5.479   1.635   1.195  0.5354 -2.9380 -1.0737
 5458TIP3   OH237788   3.815   4.308   3.300  0.5313  0.1512 -0.3608
 5458TIP3    H137789   3.835   4.215   3.309 -1.6671 -0.1041  2.3255
 5458TIP3    H237790   3.735   4.310   3.248 -1.6017  0.2775  2.8135
 5459TIP3   OH237791   0.191   2.993   1.311 -0.0373 -0.5289  0.0319
 5459TIP3    H137792   0.204   2.977   1.404 -0.2465  1.2189  0.3801
 5459TIP3    H237793   0.143   2.916   1.280 -0.7769 -0.7093  1.5655
 5460TIP3   OH237794   6.065   3.268  16.972  0.1472  0.3112 -0.4887
 5460TIP3    H137795   6.122   3.290  17.045  1.2668  0.8201 -1.4950
 5460TIP3    H237796   6.117   3.289  16.894 -0.8032 -0.7607 -1.4291
 5461TIP3   OH237797   3.550   0.569  11.356  0.6235 -0.3491  0.0042
 5461TIP3    H137798   3.588   0.653  11.380  0.0096 -0.3767  1.1311
 5461TIP3    H237799   3.607   0.535  11.287  1.9288  0.1675  0.8102
 5462TIP3   OH237800   0.225   5.129   4.685 -0.2841 -0.4677  0.6479
 5462TIP3    H137801   0.165   5.142   4.759 -2.0432  0.7681 -0.9539
 5462TIP3    H237802   0.258   5.217   4.665 -0.5167 -0.6573 -0.5969
 5463TIP3   OH237803   1.265   3.014  12.275  0.4052  0.2428  0.2100
 5463TIP3    H137804   1.176   3.013  12.241  0.8280 -1.4411 -0.9194
 5463TIP3    H237805   1.272   2.934  12.328  0.8862  0.9750  1.2838
 5464TIP3   OH237806   6.703   4.266  17.057  0.4041  0.0709  0.2446
 5464TIP3    H137807   6.711   4.207  16.983 -1.6254  0.6004 -0.4328
 5464TIP3    H237808   6.735   4.350  17.024 -0.3434  0.2668  0.0094
 5465TIP3   OH237809   0.598   4.819  15.851  0.3693 -0.0777 -0.2850
 5465TIP3    H137810   0.617   4.832  15.758 -1.0221  0.6446 -0.4795
 5465TIP3    H237811   0.506   4.842  15.861  0.7000  0.6428  1.4241
 5466TIP3   OH237812   6.633   0.057  12.495  0.8593 -0.3380  0.0188
 5466TIP3    H137813   6.572   0.069  12.567  0.5905 -0.5907 -0.1677
 5466TIP3    H237814   6.714   0.026  12.536  0.4067 -1.3984  0.1059
 5467TIP3   OH237815   5.171   5.191   1.528  0.1834  0.2668  0.1636
 5467TIP3    H137816   5.110   5.245   1.478 -0.5522  0.8093  1.6026
 5467TIP3    H237817   5.130   5.182   1.614  1.2987 -0.8485  0.6006
 5468TIP3   OH237818   1.145   2.368   1.961  0.0385  0.2636  0.0213
 5468TIP3    H137819   1.129   2.420   2.040  0.2392  2.0220 -1.0532
 5468TIP3    H237820   1.241   2.366   1.952  0.0319 -0.2888  0.0455
 5469TIP3   OH237821   4.550   2.088  14.778  0.3115 -0.2260 -0.1879
 5469TIP3    H137822   4.623   2.074  14.718 -0.4136 -1.9692 -0.6995
 5469TIP3    H237823   4.588   2.085  14.865  1.1242  0.7485 -0.4951
 5470TIP3   OH237824   1.484   6.291  13.475  0.1140 -0.2002  0.7647
 5470TIP3    H137825   1.577   6.274  13.490 -0.4552 -2.9880  1.4362
 5470TIP3    H237826   1.451   6.326  13.558  0.1678 -1.0282  1.1354
 5471TIP3   OH237827   3.097   1.252  13.874 -0.0164  0.2480 -0.2371
 5471TIP3    H137828   3.080   1.330  13.822 -2.3746 -0.3120 -0.3983
 5471TIP3    H237829   3.177   1.215  13.838  0.2253  1.7135 -1.2250
 5472TIP3   OH237830   0.869   5.790  11.748  0.2609  0.1390  0.3454
 5472TIP3    H137831   0.925   5.865  11.727 -0.7964  0.7607 -0.3156
 5472TIP3    H237832   0.926   5.714  11.736  1.1112  0.7872  0.2005
 5473TIP3   OH237833   0.673   3.169  12.194  0.4134 -0.0784 -0.1158
 5473TIP3    H137834   0.710   3.244  12.148 -1.0537  0.7515  0.0139
 5473TIP3    H237835   0.677   3.097  12.131 -0.4722  0.7431 -1.1099
 5474TIP3   OH237836   0.321   1.676  12.062  0.1021  0.2711 -0.8621
 5474TIP3    H137837   0.295   1.697  11.972  0.2257  1.1711 -0.6983
 5474TIP3    H237838   0.316   1.581  12.067 -1.1261  0.2978 -1.4481
 5475TIP3   OH237839   1.359   0.762  13.590  0.1292 -0.1598 -0.2408
 5475TIP3    H137840   1.276   0.789  13.551  0.0663  0.4490  0.2922
 5475TIP3    H237841   1.350   0.787  13.683  0.6506 -0.6896 -0.0477
 5476TIP3   OH237842   0.254   0.702   4.979  0.5987  0.4082 -0.2652
 5476TIP3    H137843   0.222   0.627   4.928  0.4196 -1.9165  3.0806
 5476TIP3    H237844   0.343   0.677   5.005  1.0179  1.9389 -0.1841
 5477TIP3   OH237845   0.219   3.605  16.463 -0.2351 -0.0955  0.1565
 5477TIP3    H137846   0.163   3.638  16.393  2.0810  2.2934 -0.6772
 5477TIP3    H237847   0.186   3.648  16.543  0.0999  0.9583 -0.2593
 5478TIP3   OH237848   0.171   4.826  16.306  0.0006  0.1426 -0.1862
 5478TIP3    H137849   0.143   4.912  16.272  1.0247  0.6351  0.2160
 5478TIP3    H237850   0.090   4.786  16.337 -0.4347  1.1255 -0.0266
 5479TIP3   OH237851   3.786   6.736  15.684 -0.3429 -0.5878 -0.3405
 5479TIP3    H137852   3.836   6.656  15.667 -0.5878 -0.6897 -0.5785
 5479TIP3    H237853   3.694   6.710  15.674 -0.5627 -0.8714  1.9578
 5480TIP3   OH237854   1.040   5.371   1.953  0.2352 -0.2516 -0.0480
 5480TIP3    H137855   1.093   5.427   1.895 -0.5728 -0.1863 -0.7381
 5480TIP3    H237856   0.962   5.423   1.970  0.1858 -0.5351  0.5996
 5481TIP3   OH237857   4.997   4.173   3.452  0.5386  0.3789 -0.4136
 5481TIP3    H137858   5.081   4.208   3.424  0.7001  0.7525  0.4935
 5481TIP3    H237859   4.932   4.222   3.402  0.7458  2.3172  1.1490
 5482TIP3   OH237860   3.754   0.703  11.621  0.0908  0.7399  0.0279
 5482TIP3    H137861   3.779   0.617  11.588  1.0257  1.1511 -0.3599
 5482TIP3    H237862   3.827   0.730  11.676 -0.6469  0.8589  0.9661
 5483TIP3   OH237863   6.062   4.228   1.776  0.0652 -0.5809 -0.6132
 5483TIP3    H137864   5.991   4.235   1.713  1.7228 -0.2548 -2.5061
 5483TIP3    H237865   6.125   4.168   1.735  1.9691  0.9948 -0.0607
 5484TIP3   OH237866   3.447   3.696   1.975  0.6043  0.1387  0.0207
 5484TIP3    H137867   3.384   3.639   2.020 -0.5330  1.7911  0.5683
 5484TIP3    H237868   3.394   3.742   1.909  1.2809  1.4137  0.3724
 5485TIP3   OH237869   5.195   4.783  12.936 -0.2189  0.4135 -0.4927
 5485TIP3    H137870   5.185   4.726  12.860  1.4423  0.4671 -0.7670
 5485TIP3    H237871   5.188   4.725  13.012 -0.7390  0.1865 -0.7142
 5486TIP3   OH237872   3.822   3.937   4.873 -0.1160  0.3389 -0.2868
 5486TIP3    H137873   3.848   4.017   4.826  0.8444  0.2981  0.1713
 5486TIP3    H237874   3.760   3.895   4.814  0.7114  0.5400 -1.3305
 5487TIP3   OH237875   0.371   1.220  13.456 -0.4656 -0.0745 -0.3973
 5487TIP3    H137876   0.434   1.272  13.406  2.5045 -2.5924  0.5153
 5487TIP3    H237877   0.324   1.169  13.390  0.1248  0.0793 -0.9370
 5488TIP3   OH237878   4.645   3.941   4.421 -0.0010 -0.5048 -0.1627
 5488TIP3    H137879   4.683   3.954   4.335  1.0359  1.5055  0.5693
 5488TIP3    H237880   4.702   3.876   4.463  1.7785  1.3845  0.3898
 5489TIP3   OH237881   4.487   4.774   3.324 -0.4594  0.8983  0.2753
 5489TIP3    H137882   4.400   4.745   3.351 -0.2875  0.7276  0.6513
 5489TIP3    H237883   4.532   4.694   3.297 -0.5863  1.0524 -0.3975
 5490TIP3   OH237884   5.470   3.080   5.090 -0.0000 -0.0505  0.1198
 5490TIP3    H137885   5.438   3.093   5.001 -0.6249  1.3546  0.5281
 5490TIP3    H237886   5.454   3.164   5.133  0.9026 -0.5072  1.3682
 5491TIP3   OH237887   3.756   2.161  13.603 -0.0510  0.3150  0.3979
 5491TIP3    H137888   3.736   2.252  13.582  3.0513  0.6778 -1.4079
 5491TIP3    H237889   3.806   2.130  13.527  0.2046 -2.4616  1.6391
 5492TIP3   OH237890   5.279   4.057  11.544 -0.5859  0.5762  0.0553
 5492TIP3    H137891   5.361   4.099  11.518 -0.8538  1.1448  0.1091
 5492TIP3    H237892   5.271   3.981  11.487 -0.4767  1.0402 -0.5853
 5493TIP3   OH237893   1.871   4.719  17.101  0.5482  0.4274  0.0893
 5493TIP3    H137894   1.805   4.738  17.034 -1.3557 -2.6891  0.9957
 5493TIP3    H237895   1.822   4.717  17.183  2.3223  1.0744  1.1941
 5494TIP3   OH237896   6.076   2.100  12.407 -0.5128 -0.0681  0.2840
 5494TIP3    H137897   6.127   2.165  12.359 -0.2157 -0.1325  0.5143
 5494TIP3    H237898   6.136   2.027  12.422 -0.7205 -0.2192  0.3984
 5495TIP3   OH237899   5.815   6.310   3.937 -0.0024 -0.0675  0.3327
 5495TIP3    H137900   5.798   6.371   3.866 -1.4726 -1.0939 -0.2119
 5495TIP3    H237901   5.877   6.247   3.901 -0.2393 -0.2034  0.1599
 5496TIP3   OH237902   6.723   3.928   5.392  0.7976  0.0875 -0.2227
 5496TIP3    H137903   6.676   3.853   5.427  2.2103 -0.5126  0.4171
 5496TIP3    H237904   6.792   3.890   5.337  1.2296  0.9168 -0.2650
 5497TIP3   OH237905   4.150   3.951   0.239 -0.1557 -0.2763  0.3229
 5497TIP3    H137906   4.066   3.922   0.275 -0.0458 -1.3719 -0.2784
 5497TIP3    H237907   4.213   3.886   0.268 -0.3328 -2.0746 -3.0696
 5498TIP3   OH237908   6.336   3.706   2.537 -0.3537  0.4995 -0.3877
 5498TIP3    H137909   6.427   3.730   2.556  0.2625 -1.4139 -0.8337
 5498TIP3    H237910   6.287   3.734   2.614  0.7289  0.9037  0.1596
 5499TIP3   OH237911   4.640   1.462  15.746  0.2654  0.2490 -0.2461
 5499TIP3    H137912   4.611   1.394  15.685  0.6298  0.9024 -1.1404
 5499TIP3    H237913   4.687   1.525  15.692  1.1676  0.4931  0.8124
 5500TIP3   OH237914   4.380   2.096  15.862  0.0869  0.5563 -0.3657
 5500TIP3    H137915   4.473   2.114  15.846  0.7797 -2.8442 -0.5739
 5500TIP3    H237916   4.338   2.105  15.776 -0.1100  3.5684 -0.0144
 5501TIP3   OH237917   3.242   1.577   1.621  0.4753  0.0985  0.4086
 5501TIP3    H137918   3.210   1.655   1.575  0.1847  0.0390  0.5091
 5501TIP3    H237919   3.180   1.508   1.597  0.0568  0.1811  1.2722
 5502TIP3   OH237920   4.476   0.133   5.854 -0.7964  0.5985 -0.5745
 5502TIP3    H137921   4.556   0.153   5.805  1.2109 -1.5255  1.6682
 5502TIP3    H237922   4.419   0.207   5.837  1.7305  2.3069 -2.0825
 5503TIP3   OH237923   6.123   5.670   1.803 -0.1746 -0.4631 -0.1713
 5503TIP3    H137924   6.067   5.741   1.835 -1.4790 -1.5847  0.1072
 5503TIP3    H237925   6.133   5.687   1.710 -0.0587  0.3610 -0.0090
 5504TIP3   OH237926   4.121   3.098  16.899 -0.1253 -0.7783  0.0666
 5504TIP3    H137927   4.190   3.113  16.964 -2.7351 -0.8439  2.9176
 5504TIP3    H237928   4.114   3.003  16.894  0.3522 -0.7818 -0.6563
 5505TIP3   OH237929   1.894   5.506   3.678  0.0113 -0.0310 -0.0483
 5505TIP3    H137930   1.921   5.493   3.769 -0.7619 -1.8081 -0.0676
 5505TIP3    H237931   1.900   5.601   3.665  3.4162 -0.0635  0.8366
 5506TIP3   OH237932   2.531   0.826  17.128  0.2967  0.1262  0.1907
 5506TIP3    H137933   2.508   0.772  17.052 -1.0821  0.5236  0.3075
 5506TIP3    H237934   2.622   0.851  17.112  0.2426 -0.3653 -0.9958
 5507TIP3   OH237935   5.957   0.516   4.999  0.5647 -0.1316 -0.0816
 5507TIP3    H137936   5.961   0.605   4.965  0.9167  0.1469  0.6600
 5507TIP3    H237937   5.906   0.467   4.934  0.0200  0.7006 -0.2925
 5508TIP3   OH237938   1.126   5.697   4.645 -1.1354  0.5168 -0.2971
 5508TIP3    H137939   1.067   5.625   4.669  0.7027 -1.1772 -0.7087
 5508TIP3    H237940   1.140   5.687   4.551  1.1028 -0.1290  0.0764
 5509TIP3   OH237941   5.705   1.057   3.862  0.2346 -0.0634  0.5990
 5509TIP3    H137942   5.681   0.964   3.872 -0.0169 -0.1989 -1.0494
 5509TIP3    H237943   5.795   1.055   3.830 -0.4344  0.1745 -1.3750
 5510TIP3   OH237944   0.189   1.178   0.094  0.0021  0.0147 -0.2868
 5510TIP3    H137945   0.227   1.091   0.078 -0.2523  0.0442 -1.0724
 5510TIP3    H237946   0.164   1.176   0.186 -0.8811 -1.0949 -0.5311
 5511TIP3   OH237947   2.357   6.068   4.853  0.3804  0.2139  0.2952
 5511TIP3    H137948   2.263   6.065   4.833  0.8457  1.7137 -2.3464
 5511TIP3    H237949   2.391   5.986   4.817  0.1178 -0.2522  1.1012
 5512TIP3   OH237950   2.548   5.352   0.754 -0.9095  0.5378  0.7206
 5512TIP3    H137951   2.602   5.431   0.756 -0.0349 -0.0254 -0.4017
 5512TIP3    H237952   2.493   5.362   0.676  0.3885 -0.7268 -0.3733
 5513TIP3   OH237953   1.885   0.620   5.706 -0.5033  0.4718 -0.1794
 5513TIP3    H137954   1.969   0.650   5.742 -1.3584 -0.5924  2.8496
 5513TIP3    H237955   1.831   0.602   5.783 -3.1231 -0.0165 -2.0637
 5514TIP3   OH237956   3.045   0.543   3.712  0.4425 -0.5146 -0.6306
 5514TIP3    H137957   2.965   0.491   3.715 -1.3815  2.1948 -0.4081
 5514TIP3    H237958   3.069   0.544   3.620  0.6658 -1.9788 -0.5961
 5515TIP3   OH237959   0.559   2.010  11.888  0.1878  0.0948 -0.0525
 5515TIP3    H137960   0.471   2.026  11.921 -0.2021 -0.5694 -0.7446
 5515TIP3    H237961   0.611   1.991  11.966 -0.7922 -1.7936  0.1951
 5516TIP3   OH237962   4.103   2.349   5.406  0.0866 -0.6630  0.5759
 5516TIP3    H137963   4.082   2.261   5.378  0.5817 -0.5815 -0.0534
 5516TIP3    H237964   4.022   2.399   5.393 -0.4227 -1.1971  1.6668
 5517TIP3   OH237965   0.495   0.154   4.879 -0.1627  0.0074  0.0867
 5517TIP3    H137966   0.493   0.147   4.974 -2.0539  1.5068  0.1942
 5517TIP3    H237967   0.587   0.165   4.857  0.4391 -1.7792  1.6087
 5518TIP3   OH237968   6.346   2.615   3.913  0.0322  0.1308  0.0286
 5518TIP3    H137969   6.435   2.648   3.927  0.8783 -1.6984 -0.8902
 5518TIP3    H237970   6.350   2.571   3.828 -1.7351 -0.0533  0.0263
 5519TIP3   OH237971   5.248   4.598   4.674 -0.6577 -0.7951  0.4100
 5519TIP3    H137972   5.239   4.617   4.767  0.9048 -0.5427  0.5168
 5519TIP3    H237973   5.342   4.583   4.661 -0.5759  1.1620 -1.5056
 5520TIP3   OH237974   2.180   0.102   1.839 -0.4909  0.1887 -0.3601
 5520TIP3    H137975   2.182   0.058   1.754 -0.2317  0.8018 -0.6710
 5520TIP3    H237976   2.165   0.031   1.901 -2.7185 -0.0098 -1.0877
 5521TIP3   OH237977   6.511   2.167   6.337  0.4475 -0.2386  0.1350
 5521TIP3    H137978   6.561   2.232   6.288  0.7955  0.4281  1.3587
 5521TIP3    H237979   6.522   2.086   6.287 -0.2480  0.6869 -1.5812
 5522TIP3   OH237980   6.629   2.228  14.961 -0.2454 -0.1120 -0.0548
 5522TIP3    H137981   6.577   2.308  14.976  1.5956  1.2916 -0.9031
 5522TIP3    H237982   6.624   2.215  14.866  0.9593  0.0595 -0.1428
 5523TIP3   OH237983   3.122   2.600   4.693 -0.4085 -0.2335 -0.4882
 5523TIP3    H137984   3.105   2.682   4.738  1.2536 -0.8445  1.3168
 5523TIP3    H237985   3.109   2.533   4.761  1.2680 -1.2287 -1.1423
 5524TIP3   OH237986   6.035   0.580  14.414  0.7320  0.0191  0.1244
 5524TIP3    H137987   6.052   0.674  14.413  0.9707 -0.0048  0.9575
 5524TIP3    H237988   5.946   0.572  14.449 -0.3791  0.0541 -2.5515
 5525TIP3   OH237989   0.288   0.642   2.418  0.3625  0.3407  0.1849
 5525TIP3    H137990   0.339   0.715   2.452 -0.5157  0.5989  0.9563
 5525TIP3    H237991   0.229   0.618   2.490  0.3501 -0.8496 -0.2067
 5526TIP3   OH237992   2.406   1.813  14.209  0.2072 -0.7131 -0.4489
 5526TIP3    H137993   2.354   1.800  14.288  1.2607 -2.2237  0.0100
 5526TIP3    H237994   2.497   1.800  14.238  0.6238 -0.8573 -1.8140
 5527TIP3   OH237995   1.075   2.478  14.910 -0.2136  0.1519 -0.1984
 5527TIP3    H137996   1.103   2.392  14.941 -0.1102 -0.0905 -0.9687
 5527TIP3    H237997   1.154   2.531  14.913 -0.2276  0.1586  0.0608
 5528TIP3   OH237998   1.516   6.561  14.076 -0.8963  0.0469 -0.0725
 5528TIP3    H137999   1.596   6.592  14.033 -2.2390 -0.9712 -3.5410
 5528TIP3    H238000   1.489   6.632  14.133  0.3441  2.0158 -1.8961
 5529TIP3   OH238001   2.646   2.091  13.904 -0.2076  0.4569 -0.0200
 5529TIP3    H138002   2.617   2.002  13.882  0.2345  0.2087  0.3884
 5529TIP3    H238003   2.631   2.141  13.824 -1.9717  0.3928  0.2614
 5530TIP3   OH238004   0.239   5.495   3.636  0.1087 -0.0526 -0.2131
 5530TIP3    H138005   0.173   5.498   3.705  0.0859 -1.0293 -0.1788
 5530TIP3    H238006   0.239   5.582   3.598  0.6953  0.7463  1.5735
 5531TIP3   OH238007   1.725   1.012   2.290  0.2259  0.1456  0.1281
 5531TIP3    H138008   1.783   0.937   2.276  1.0876  0.5418  1.4734
 5531TIP3    H238009   1.685   1.028   2.205  1.4830 -0.6506 -0.6230
 5532TIP3   OH238010   0.862   6.163   3.211 -0.4024  0.8284  0.7013
 5532TIP3    H138011   0.946   6.206   3.226 -1.1329  2.1174  1.2307
 5532TIP3    H238012   0.861   6.144   3.117  1.8389 -2.1916  1.2092
 5533TIP3   OH238013   4.751   6.502  14.078  0.5679 -0.1135  0.6166
 5533TIP3    H138014   4.741   6.435  14.145 -0.8912  0.2329  0.7590
 5533TIP3    H238015   4.836   6.543  14.097  1.1843 -1.4855  0.8984
 5534TIP3   OH238016   0.776   0.983   4.734 -0.6580  0.8414  0.5082
 5534TIP3    H138017   0.807   0.915   4.794 -0.0655  0.5839 -0.0786
 5534TIP3    H238018   0.843   0.987   4.666 -2.4696 -0.5599 -1.4358
 5535TIP3   OH238019   5.369   1.449  12.422  0.6159 -0.4184  0.3359
 5535TIP3    H138020   5.295   1.409  12.467 -1.0118  1.2862 -0.7798
 5535TIP3    H238021   5.377   1.398  12.341 -1.7225  1.6811 -1.2831
 5536TIP3   OH238022   2.362   0.875  11.607 -0.2608  0.2876  0.4085
 5536TIP3    H138023   2.439   0.832  11.645  0.3599  1.4011  0.4260
 5536TIP3    H238024   2.288   0.821  11.636  0.2838  0.6095  2.4585
 5537TIP3   OH238025   1.059   3.068   6.231 -0.1374  0.1363 -0.1799
 5537TIP3    H138026   1.019   3.153   6.210  0.1248  0.0081 -1.2267
 5537TIP3    H238027   1.120   3.052   6.159  0.5456 -0.4769  0.5236
 5538TIP3   OH238028   2.949   3.808   0.550  0.0257 -0.2231  0.4935
 5538TIP3    H138029   3.017   3.744   0.530 -1.3455 -1.6996  0.4062
 5538TIP3    H238030   2.938   3.859   0.470  2.6213  1.5698  1.2382
 5539TIP3   OH238031   1.352   1.159   4.896 -0.2646 -0.3444  0.6769
 5539TIP3    H138032   1.320   1.124   4.813 -0.2477  2.6330 -0.6386
 5539TIP3    H238033   1.349   1.084   4.956 -2.1308 -2.0655 -1.4656
 5540TIP3   OH238034   3.694   3.063  16.229  0.2051  0.2626 -0.3527
 5540TIP3    H138035   3.641   2.985  16.248  0.4692  0.0203 -0.6083
 5540TIP3    H238036   3.672   3.124  16.300  0.2008 -0.1482  0.0058
 5541TIP3   OH238037   3.168   0.000   6.221  0.1913  0.1485 -0.3999
 5541TIP3    H138038   3.074   0.008   6.205  0.6079  1.0447 -2.5948
 5541TIP3    H238039   3.204   0.083   6.189  1.6047  0.3124  1.5517
 5542TIP3   OH238040   6.283   5.571  15.152  0.3248 -1.1567  0.0436
 5542TIP3    H138041   6.196   5.531  15.164 -1.8023  2.6520 -1.7731
 5542TIP3    H238042   6.327   5.556  15.235 -3.8054  0.7835  2.7712
 5543TIP3   OH238043   0.176   2.357  15.964 -0.2238 -0.0053 -0.3366
 5543TIP3    H138044   0.230   2.295  15.915 -2.2065 -0.9707 -1.3777
 5543TIP3    H238045   0.221   2.441  15.953  1.0018 -0.7526 -1.2547
 5544TIP3   OH238046   2.351   3.924  15.219  0.4419  0.1938  0.4672
 5544TIP3    H138047   2.280   3.872  15.255  0.1768  1.3299  1.6206
 5544TIP3    H238048   2.320   3.952  15.133  1.5090 -3.4328 -1.2224
 5545TIP3   OH238049   6.178   3.985  13.232 -0.7750 -0.3881 -0.2016
 5545TIP3    H138050   6.095   3.990  13.280 -1.3348 -0.3622 -1.1352
 5545TIP3    H238051   6.193   3.892  13.220  0.4271 -0.4600  1.7860
 5546TIP3   OH238052   5.543   2.252  15.945  0.1505 -0.5777 -0.2615
 5546TIP3    H138053   5.554   2.158  15.955  1.6633 -0.2422  1.4880
 5546TIP3    H238054   5.632   2.285  15.930 -0.3078  0.6196 -0.4362
 5547TIP3   OH238055   2.635   2.261   0.629  0.1774  0.2020  0.7644
 5547TIP3    H138056   2.548   2.303   0.630 -0.3515 -0.8883  2.2047
 5547TIP3    H238057   2.658   2.254   0.722  0.7378 -1.7139  0.4825
 5548TIP3   OH238058   3.060   0.338   1.312  0.1573 -0.0530 -0.0755
 5548TIP3    H138059   2.965   0.325   1.307  0.1945 -0.3954  0.0787
 5548TIP3    H238060   3.095   0.288   1.238  0.4196 -2.1009  1.3855
 5549TIP3   OH238061   4.370   2.533   4.218 -0.5257  0.8174 -0.0354
 5549TIP3    H138062   4.285   2.537   4.175 -0.7628  0.2993  0.3893
 5549TIP3    H238063   4.384   2.440   4.235 -0.1072  0.9540  0.3593
 5550TIP3   OH238064   3.374   3.856  15.219  0.1716  0.1253  0.7084
 5550TIP3    H138065   3.392   3.949  15.227 -0.7144  0.4354 -0.8885
 5550TIP3    H238066   3.281   3.847  15.239 -0.4387 -0.0130 -2.0671
 5551TIP3   OH238067   4.978   2.968  15.121  0.0015 -0.3841  0.2023
 5551TIP3    H138068   4.910   2.952  15.056 -0.5789  0.5170  0.5748
 5551TIP3    H238069   4.933   2.965  15.205  0.6792 -1.1503  0.5437
 5552TIP3   OH238070   0.856   1.662  12.501  0.0433  0.1102 -0.0424
 5552TIP3    H138071   0.916   1.731  12.472 -0.9461  1.1081  0.2209
 5552TIP3    H238072   0.826   1.622  12.419 -1.4471  1.8066 -0.3619
 5553TIP3   OH238073   2.908   3.291  13.524 -0.0992  0.1605  0.2073
 5553TIP3    H138074   2.956   3.208  13.520  1.2584  0.9735 -0.6698
 5553TIP3    H238075   2.957   3.344  13.588  0.7629  1.3483 -1.3972
 5554TIP3   OH238076   0.856   3.937   2.306  0.2923 -0.2894 -0.5008
 5554TIP3    H138077   0.923   3.926   2.238 -0.4374 -0.8918 -1.1386
 5554TIP3    H238078   0.777   3.898   2.268 -0.0834 -0.7872  0.7623
 5555TIP3   OH238079   2.161   2.925   5.231  0.2948 -0.2191  0.2905
 5555TIP3    H138080   2.184   2.849   5.284 -0.6478 -1.2472 -0.7332
 5555TIP3    H238081   2.190   2.902   5.142  0.9906  1.0727  0.1774
 5556TIP3   OH238082   5.455   3.425  14.947  0.1357 -0.1371 -0.2668
 5556TIP3    H138083   5.505   3.427  15.028  0.5060  0.7110 -0.5084
 5556TIP3    H238084   5.379   3.481  14.965  0.2945  0.1739 -0.5465
 5557TIP3   OH238085   2.069   3.838   3.244 -0.1322  0.4829  0.1673
 5557TIP3    H138086   2.138   3.789   3.200 -0.6611 -0.6869  0.6334
 5557TIP3    H238087   1.988   3.809   3.203 -0.4594  0.8911  0.5090
 5558TIP3   OH238088   5.528   5.659   6.431  0.1315 -0.1868 -0.1467
 5558TIP3    H138089   5.475   5.585   6.399  0.5275 -0.8143  0.6299
 5558TIP3    H238090   5.601   5.664   6.369 -0.3895  0.1522 -0.7408
 5559TIP3   OH238091   5.247   6.314  11.444 -0.0502 -0.0716  0.2528
 5559TIP3    H138092   5.334   6.273  11.443 -0.2647 -0.5769  1.2116
 5559TIP3    H238093   5.261   6.399  11.486  0.1170  0.1815 -0.3102
 5560TIP3   OH238094   2.090   1.770   3.408 -0.7666  0.1221 -0.0178
 5560TIP3    H138095   2.015   1.813   3.448 -1.4007 -2.5273  1.6893
 5560TIP3    H238096   2.165   1.797   3.461 -0.8906  0.6173 -0.0946
 5561TIP3   OH238097   1.460   4.852  14.576  0.7564  0.6234  0.3324
 5561TIP3    H138098   1.375   4.809  14.582 -0.1858  2.3459 -0.3902
 5561TIP3    H238099   1.519   4.784  14.542 -1.0667  0.3354 -2.4556
 5562TIP3   OH238100   0.284   2.240   5.181  0.4835  0.2055 -0.7234
 5562TIP3    H138101   0.302   2.286   5.099  1.0470  2.1524  0.4690
 5562TIP3    H238102   0.198   2.271   5.208  0.5070 -0.0717 -0.3180
 5563TIP3   OH238103   5.594   1.034  13.928  0.0378  0.1181 -0.4967
 5563TIP3    H138104   5.591   0.941  13.953  0.9380  0.0962 -0.4737
 5563TIP3    H238105   5.522   1.044  13.865  0.7800 -0.9005 -1.5274
 5564TIP3   OH238106   3.413   2.335  12.268 -0.3090 -0.2252  0.3093
 5564TIP3    H138107   3.394   2.402  12.333 -1.1321 -2.7378  2.7292
 5564TIP3    H238108   3.480   2.280  12.309  1.0727 -0.3702 -2.0312
 5565TIP3   OH238109   4.420   6.014  12.777  0.4179 -0.0502 -0.2413
 5565TIP3    H138110   4.391   6.096  12.737 -4.2723  0.2841  3.4374
 5565TIP3    H238111   4.462   6.040  12.859  1.8813 -1.1690 -0.6149
 5566TIP3   OH238112   1.298   1.211   4.218 -0.1243  0.6173  0.0983
 5566TIP3    H138113   1.351   1.131   4.218 -2.2177 -0.8175 -1.9127
 5566TIP3    H238114   1.354   1.277   4.177  0.1118 -0.9163 -2.1510
 5567TIP3   OH238115   0.636   6.684   5.026 -0.1341  0.1954 -0.1559
 5567TIP3    H138116   0.700   6.735   4.978  0.4729  1.0304  1.4790
 5567TIP3    H238117   0.608   6.742   5.097 -1.6379 -0.6757 -0.0096
 5568TIP3   OH238118   4.269   1.010  13.473 -0.0344 -0.3290  0.7317
 5568TIP3    H138119   4.199   0.946  13.459 -0.7493  0.2342  1.6661
 5568TIP3    H238120   4.310   1.020  13.388 -1.5326 -0.1625  0.0154
 5569TIP3   OH238121   0.636   1.953  16.626 -0.0814  0.2827  0.0813
 5569TIP3    H138122   0.727   1.927  16.611 -0.0650  0.2784  0.1862
 5569TIP3    H238123   0.634   1.982  16.717 -0.2953 -0.1720  0.2221
 5570TIP3   OH238124   5.113   5.811   1.629  0.8278  0.0337 -0.1931
 5570TIP3    H138125   5.070   5.821   1.715 -1.2613 -0.6320 -1.1419
 5570TIP3    H238126   5.126   5.717   1.619  1.7323  0.1660 -0.3080
 5571TIP3   OH238127   4.162   1.354   1.792  0.3200  0.5385 -0.5864
 5571TIP3    H138128   4.193   1.361   1.882  1.2913 -0.6141 -0.8170
 5571TIP3    H238129   4.218   1.413   1.742  0.1871  0.7086 -0.5345
 5572TIP3   OH238130   0.950   3.421  17.226  0.1600  0.1943 -0.1169
 5572TIP3    H138131   0.925   3.440  17.136  1.3776  0.8192 -0.3424
 5572TIP3    H238132   0.892   3.350  17.254 -0.9469  0.7338 -1.0288
 5573TIP3   OH238133   6.335   2.752   5.208  0.2881 -0.1901  0.3585
 5573TIP3    H138134   6.253   2.705   5.225  0.3078 -0.5557 -0.4928
 5573TIP3    H238135   6.319   2.799   5.126  0.6262  0.4557  0.6605
 5574TIP3   OH238136   0.780   4.788  11.265  0.1037 -0.3436 -0.3932
 5574TIP3    H138137   0.842   4.720  11.238  0.8479  0.2124 -0.1222
 5574TIP3    H238138   0.743   4.820  11.183 -2.1730 -2.8266 -0.3942
 5575TIP3   OH238139   0.770   1.997   2.945 -0.1617  0.1358 -0.2235
 5575TIP3    H138140   0.818   2.079   2.955 -0.5116  0.5367 -1.6903
 5575TIP3    H238141   0.695   2.019   2.889 -0.0170 -1.2699 -1.0073
 5576TIP3   OH238142   4.116   6.408  14.059  0.0772  0.1855 -0.2423
 5576TIP3    H138143   4.206   6.441  14.060 -0.0175  0.4498 -0.2688
 5576TIP3    H238144   4.072   6.460  14.126  0.0652 -0.2901  0.1215
 5577TIP3   OH238145   2.019   5.327   0.222 -0.4090 -0.5298 -0.6796
 5577TIP3    H138146   2.085   5.257   0.221  0.0877 -0.0605 -1.1887
 5577TIP3    H238147   1.954   5.300   0.158  0.4429  0.0953 -1.8219
 5578TIP3   OH238148   0.242   2.617  15.899 -0.1501  0.1782  0.2052
 5578TIP3    H138149   0.275   2.691  15.950  0.5341  1.7359 -2.3868
 5578TIP3    H238150   0.314   2.594  15.840 -1.1118 -1.1907 -0.4625
 5579TIP3   OH238151   3.091   5.498  16.700 -0.3001 -0.0337 -0.7530
 5579TIP3    H138152   3.170   5.453  16.672  0.1214  1.4948 -2.1334
 5579TIP3    H238153   3.119   5.552  16.773 -0.6468 -1.4340  0.4265
 5580TIP3   OH238154   5.281   1.376  11.819 -0.0249  0.0213 -0.0363
 5580TIP3    H138155   5.375   1.363  11.827  0.2956  1.5913 -0.8993
 5580TIP3    H238156   5.260   1.341  11.732  0.0956  1.3113 -0.5947
 5581TIP3   OH238157   3.918   1.700  17.014 -0.0662  0.4245 -0.2242
 5581TIP3    H138158   3.876   1.627  16.969  0.7364  0.2364 -0.6643
 5581TIP3    H238159   3.997   1.662  17.053  0.5444  1.1309 -0.7553
 5582TIP3   OH238160   3.176   5.076   3.459 -0.0655  0.3541 -0.5228
 5582TIP3    H138161   3.190   4.991   3.501 -0.4099  0.4358 -0.2348
 5582TIP3    H238162   3.245   5.083   3.394 -0.3518 -0.3890 -0.9186
 5583TIP3   OH238163   0.017   5.586   6.234  0.5327  0.0558  0.5123
 5583TIP3    H138164   0.094   5.625   6.275  0.6632 -0.4094  0.7131
 5583TIP3    H238165   0.042   5.575   6.142  0.6472  0.0497  0.5434
 5584TIP3   OH238166   0.785   4.242  14.159  0.2272  0.4440  0.7741
 5584TIP3    H138167   0.800   4.166  14.214 -1.8406 -1.1965 -0.8412
 5584TIP3    H238168   0.842   4.310  14.195  0.9272 -1.3844  3.2054
 5585TIP3   OH238169   1.998   0.616   3.896 -0.2124 -0.2798  0.0214
 5585TIP3    H138170   1.981   0.600   3.989  0.6315  0.2283  0.2665
 5585TIP3    H238171   2.068   0.555   3.874  1.2847  1.2660  0.3402
 5586TIP3   OH238172   0.277   5.841  11.270  0.0059 -0.1546  0.1924
 5586TIP3    H138173   0.329   5.832  11.191  0.1993  1.5038  0.1088
 5586TIP3    H238174   0.188   5.859  11.239 -0.2545 -1.1504  0.3477
 5587TIP3   OH238175   1.570   2.140   2.888  0.0893  0.4509  0.3130
 5587TIP3    H138176   1.604   2.224   2.858 -0.9892  1.4869  1.9170
 5587TIP3    H238177   1.553   2.153   2.981  0.6543 -1.7993  0.7628
 5588TIP3   OH238178   3.154   0.967  12.332  0.1380 -0.1535 -0.2599
 5588TIP3    H138179   3.119   1.054  12.315 -2.3112 -0.6492  1.8881
 5588TIP3    H238180   3.206   0.977  12.411  0.3325 -0.5193 -0.3400
 5589TIP3   OH238181   3.722   1.006  16.746 -0.5115 -0.2722  0.6483
 5589TIP3    H138182   3.627   1.013  16.760 -0.5753 -0.4965  0.3409
 5589TIP3    H238183   3.745   0.921  16.782 -0.9514 -1.5689 -2.0143
 5590TIP3   OH238184   1.810   1.192   4.094 -0.3735  0.0465  0.7655
 5590TIP3    H138185   1.738   1.230   4.044 -1.2216 -0.7540  1.3374
 5590TIP3    H238186   1.889   1.216   4.046 -1.0337  0.8390  0.0623
 5591TIP3   OH238187   0.149   3.897   5.187  0.0115  0.7198  0.0099
 5591TIP3    H138188   0.245   3.894   5.180 -0.1559 -0.6137 -2.9577
 5591TIP3    H238189   0.126   3.986   5.161  0.3460  0.1775 -2.3388
 5592TIP3   OH238190   3.339   2.021   1.579 -0.0658  0.2685 -0.0361
 5592TIP3    H138191   3.380   2.080   1.516  1.3303  0.0376  0.6296
 5592TIP3    H238192   3.258   2.065   1.605 -0.4388  0.5542 -1.6579
 5593TIP3   OH238193   4.872   5.343  12.855  0.1929 -0.0755 -0.9052
 5593TIP3    H138194   4.777   5.346  12.850  0.1085 -0.7060  0.1385
 5593TIP3    H238195   4.891   5.267  12.910  1.2848  0.2854 -0.7729
 5594TIP3   OH238196   1.690   1.784   2.034 -0.2926  0.2782 -0.1667
 5594TIP3    H138197   1.629   1.711   2.046 -0.7244  0.2651 -2.3864
 5594TIP3    H238198   1.775   1.742   2.022  0.0044  0.2661  1.7382
 5595TIP3   OH238199   5.425   5.930  15.817  0.0790  0.0841 -0.1661
 5595TIP3    H138200   5.492   5.868  15.847 -0.5025 -0.5646 -0.1778
 5595TIP3    H238201   5.474   6.002  15.779  0.7707 -0.4475 -0.2919
 5596TIP3   OH238202   4.530   6.184  14.050 -0.3906 -0.0531 -0.2194
 5596TIP3    H138203   4.589   6.111  14.033  1.5679  1.4698 -0.0231
 5596TIP3    H238204   4.569   6.230  14.125 -2.2035  0.5627  0.3833
 5597TIP3   OH238205   3.362   6.340   2.330  0.1211 -0.1388 -0.0594
 5597TIP3    H138206   3.434   6.369   2.274  0.5348  1.9058  1.5026
 5597TIP3    H238207   3.405   6.302   2.407 -0.4454 -2.9542 -1.0596
 5598TIP3   OH238208   4.133   2.276  12.609 -0.0165  0.5008  1.1183
 5598TIP3    H138209   4.188   2.332  12.554 -0.1738  0.5419  1.0011
 5598TIP3    H238210   4.061   2.333  12.636 -0.6094  0.1209  0.3274
 5599TIP3   OH238211   4.426   5.631  11.519 -0.3980  0.0538 -0.6331
 5599TIP3    H138212   4.415   5.553  11.464 -1.2662  0.0425 -0.4481
 5599TIP3    H238213   4.412   5.599  11.608  1.0271  0.0668 -0.3837
 5600TIP3   OH238214   0.271   6.641   3.293  0.7699 -0.1492 -0.6416
 5600TIP3    H138215   0.317   6.724   3.285 -0.0276  0.5406  1.4494
 5600TIP3    H238216   0.179   6.666   3.308  0.1618 -1.4472 -2.0072
 5601TIP3   OH238217   1.891   1.252  16.024  0.0497  0.0970  0.0693
 5601TIP3    H138218   1.851   1.215  16.103 -1.3887  1.0413 -0.2108
 5601TIP3    H238219   1.923   1.175  15.976 -2.4661 -0.7748 -0.2659
 5602TIP3   OH238220   0.100   4.542   0.541 -0.3034 -0.4000 -0.2283
 5602TIP3    H138221   0.020   4.524   0.491 -0.9998 -0.1544  0.7804
 5602TIP3    H238222   0.102   4.475   0.608 -1.6610  1.7854  2.0839
 5603TIP3   OH238223   3.195   5.782   2.111 -0.0554 -0.2879 -0.2312
 5603TIP3    H138224   3.138   5.722   2.061 -1.2016 -0.2450  0.9852
 5603TIP3    H238225   3.150   5.867   2.106 -0.5832 -0.4508  1.4919
 5604TIP3   OH238226   0.909   1.191   5.773 -0.4003  0.1204 -0.1539
 5604TIP3    H138227   0.977   1.156   5.831  0.1896  1.1137 -0.2378
 5604TIP3    H238228   0.833   1.135   5.788 -0.0358 -0.0581  1.0621
 5605TIP3   OH238229   3.706   2.843  11.118  0.2513  0.4630  0.0852
 5605TIP3    H138230   3.696   2.780  11.046  0.4039  1.9528 -1.2431
 5605TIP3    H238231   3.798   2.866  11.117  0.7627 -1.3186  2.3231
 5606TIP3   OH238232   3.287   3.976  14.160 -0.4187 -0.9888 -0.0053
 5606TIP3    H138233   3.300   3.913  14.231  0.3207  0.3464  1.0850
 5606TIP3    H238234   3.300   4.061  14.202  0.6745 -0.2020 -1.8767
 5607TIP3   OH238235   2.664   2.656  12.532  0.3056  0.0010 -0.3676
 5607TIP3    H138236   2.666   2.676  12.438 -1.6387  0.3060 -0.3623
 5607TIP3    H238237   2.679   2.740  12.575 -1.3370  0.3157 -0.3953
 5608TIP3   OH238238   2.694   4.879   0.386  0.4058  0.0170  0.5030
 5608TIP3    H138239   2.682   4.881   0.291 -1.1036 -1.1252  0.6618
 5608TIP3    H238240   2.662   4.793   0.413  0.5901  0.4281  2.0833
 5609TIP3   OH238241   3.800   6.585  16.287  0.3495  0.1656  0.0387
 5609TIP3    H138242   3.874   6.622  16.335  0.5554 -0.4424  0.1913
 5609TIP3    H238243   3.736   6.563  16.354  0.4918 -0.3589 -0.0017
 5610TIP3   OH238244   0.076   1.703  16.059  0.3250 -0.0638  0.3564
 5610TIP3    H138245   0.134   1.758  16.112 -0.0546 -0.4414  1.1659
 5610TIP3    H238246   0.053   1.630  16.116  0.8876 -1.1162 -0.7369
 5611TIP3   OH238247   6.359   2.782   6.025 -0.1148  0.0757 -0.1438
 5611TIP3    H138248   6.382   2.708   6.080  0.5274 -0.1266 -0.6760
 5611TIP3    H238249   6.265   2.792   6.035 -0.4212 -1.6268 -1.0619
 5612TIP3   OH238250   0.986   0.254   3.518 -0.4851 -0.3680 -0.2386
 5612TIP3    H138251   1.039   0.334   3.517 -0.8315 -0.0424  2.4945
 5612TIP3    H238252   0.896   0.285   3.526 -1.1128 -0.9413 -4.1248
 5613TIP3   OH238253   3.950   6.334   4.748 -0.1956  0.4784  0.4705
 5613TIP3    H138254   4.026   6.383   4.779 -0.4694  0.7727  0.6841
 5613TIP3    H238255   3.975   6.303   4.662  0.2770  0.3264  0.6605
 5614TIP3   OH238256   3.227   4.743  13.473  0.1921  0.2824 -0.6167
 5614TIP3    H138257   3.296   4.710  13.416 -0.6009 -2.1806 -0.2301
 5614TIP3    H238258   3.186   4.664  13.508 -2.0257  1.7195  0.1124
 5615TIP3   OH238259   3.932   5.425   2.671  0.5057 -0.3752  0.3855
 5615TIP3    H138260   3.950   5.476   2.750 -2.0746 -1.1115  1.5160
 5615TIP3    H238261   3.890   5.345   2.703 -0.6584 -0.6545 -1.7199
 5616TIP3   OH238262   0.692   4.741   4.060  0.5037  0.0695 -0.0203
 5616TIP3    H138263   0.662   4.686   4.133 -1.3804  0.7203 -0.2809
 5616TIP3    H238264   0.710   4.679   3.989 -1.2686 -0.2776 -0.1970
 5617TIP3   OH238265   6.664   4.555   0.375  0.0209  0.1553  0.1104
 5617TIP3    H138266   6.613   4.619   0.327  2.6788  1.4665 -1.0793
 5617TIP3    H238267   6.630   4.470   0.346  0.3074  0.9610 -2.6807
 5618TIP3   OH238268   4.301   4.592   2.128  0.0665  0.1657 -0.1338
 5618TIP3    H138269   4.332   4.613   2.216  1.2982  1.0621 -0.7574
 5618TIP3    H238270   4.236   4.523   2.141  0.5617 -0.0309  1.4407
 5619TIP3   OH238271   0.930   2.972   5.763  0.6636  0.0529 -0.0573
 5619TIP3    H138272   0.876   3.010   5.694 -0.0165  0.3303  0.6315
 5619TIP3    H238273   0.966   3.047   5.810 -1.3797 -0.1411  1.8526
 5620TIP3   OH238274   6.363   2.194   1.236  0.5745  0.0606  0.5286
 5620TIP3    H138275   6.340   2.107   1.203  1.2200 -1.3797  3.6780
 5620TIP3    H238276   6.459   2.195   1.235  0.5969  0.2248  1.6721
 5621TIP3   OH238277   5.201   6.785  15.787 -0.5744  0.2820  0.0823
 5621TIP3    H138278   5.249   6.857  15.826  4.2356 -3.1726  0.9510
 5621TIP3    H238279   5.228   6.785  15.695 -0.0197 -0.7483  0.2330
 5622TIP3   OH238280   5.358   3.614  15.617  0.1456  0.0626 -0.1948
 5622TIP3    H138281   5.276   3.652  15.649 -0.5846 -1.5064 -0.1878
 5622TIP3    H238282   5.424   3.645  15.679 -0.3610  1.6858 -0.4422
 5623TIP3   OH238283   1.630   6.619   3.354 -0.1288  0.4381 -0.0213
 5623TIP3    H138284   1.604   6.543   3.405 -0.9860  1.0669  0.4822
 5623TIP3    H238285   1.607   6.694   3.409  0.2851  1.0734 -0.7086
 5624TIP3   OH238286   5.291   6.369   3.737  0.4383  0.4980 -0.0041
 5624TIP3    H138287   5.367   6.393   3.685  0.1944 -1.8982 -1.5392
 5624TIP3    H238288   5.328   6.332   3.818  1.0019 -2.1773 -1.4246
 5625TIP3   OH238289   3.808   1.340  16.224 -0.2739 -0.0421  0.0029
 5625TIP3    H138290   3.755   1.369  16.299  0.5603 -0.3426  0.7155
 5625TIP3    H238291   3.834   1.421  16.180 -0.7886  0.1333  0.0126
 5626TIP3   OH238292   6.508   3.996  16.401 -0.5831 -0.3487  0.3027
 5626TIP3    H138293   6.433   4.039  16.361 -0.6212  0.4245  1.1764
 5626TIP3    H238294   6.542   4.060  16.463  0.4175 -0.9336  0.3686
 5627TIP3   OH238295   2.477   5.187   4.461  0.0656 -0.0299  0.7103
 5627TIP3    H138296   2.445   5.098   4.472 -1.1954  0.0147 -1.9476
 5627TIP3    H238297   2.401   5.235   4.426  1.4645  1.4321 -0.4113
 5628TIP3   OH238298   4.681   2.003  16.120 -0.1572 -0.0746 -0.0855
 5628TIP3    H138299   4.716   1.914  16.129  0.3942  0.1164 -0.2823
 5628TIP3    H238300   4.712   2.049  16.198 -2.4297 -0.6873  1.2078
 5629TIP3   OH238301   0.286   3.732   1.776  0.2979  0.1024 -0.5488
 5629TIP3    H138302   0.370   3.776   1.761 -0.0289  1.3178  1.0125
 5629TIP3    H238303   0.241   3.738   1.692  1.3901  0.2605 -1.1398
 5630TIP3   OH238304   3.137   1.043   4.502  0.1579 -0.0845 -0.1359
 5630TIP3    H138305   3.192   0.989   4.444 -0.0981  0.6332 -1.0387
 5630TIP3    H238306   3.200   1.095   4.552  0.2677  1.8855 -2.2793
 5631TIP3   OH238307   4.114   5.211   0.493 -0.0669  0.2264 -0.4869
 5631TIP3    H138308   4.129   5.305   0.506  2.8126 -0.5004  2.0213
 5631TIP3    H238309   4.146   5.193   0.405  1.2520  1.2456 -0.2299
 5632TIP3   OH238310   5.523   5.680  13.787 -0.7607 -0.3418  0.3022
 5632TIP3    H138311   5.497   5.671  13.695  1.8813 -1.2458 -0.3856
 5632TIP3    H238312   5.483   5.604  13.830 -1.2385 -0.4153 -0.2631
 5633TIP3   OH238313   2.360   2.345   0.604  0.0130 -0.2393  0.1195
 5633TIP3    H138314   2.341   2.409   0.673 -2.1608 -1.6691  0.9237
 5633TIP3    H238315   2.331   2.388   0.523 -0.0784  0.3678  0.4722
 5634TIP3   OH238316   3.108   3.301   5.646 -0.0544  0.4272 -0.4202
 5634TIP3    H138317   3.029   3.348   5.620  1.2531  1.9770 -1.7066
 5634TIP3    H238318   3.141   3.262   5.565 -0.4522 -1.7348  0.4195
 5635TIP3   OH238319   1.953   6.035   5.283  0.8035 -0.6621 -0.0671
 5635TIP3    H138320   1.950   6.126   5.313 -2.2366 -0.7991  0.1996
 5635TIP3    H238321   1.932   6.039   5.190 -0.4973 -1.1860  0.1963
 5636TIP3   OH238322   2.039   1.169   3.615 -0.8424  0.8101  0.3854
 5636TIP3    H138323   2.044   1.207   3.703  0.9705  0.1051  0.6010
 5636TIP3    H238324   1.976   1.098   3.623 -0.6514  0.7208  1.1198
 5637TIP3   OH238325   3.404   4.589   5.690 -0.0048  0.0996 -0.4400
 5637TIP3    H138326   3.379   4.670   5.645 -0.8979 -0.0930 -0.2960
 5637TIP3    H238327   3.327   4.565   5.740  0.7722 -0.0342  0.7138
 5638TIP3   OH238328   4.123   6.586   2.127 -0.2908  0.0567 -0.2243
 5638TIP3    H138329   4.078   6.669   2.113  0.5905  0.3324 -1.5290
 5638TIP3    H238330   4.134   6.550   2.039  2.6594  0.3410  0.0034
 5639TIP3   OH238331   1.133   6.647   1.766 -0.0194 -0.6998  0.2360
 5639TIP3    H138332   1.170   6.565   1.733  1.6756  0.3842 -0.6130
 5639TIP3    H238333   1.204   6.689   1.814 -1.0082  0.0705  1.0688
 5640TIP3   OH238334   0.714   2.953  16.339  0.4717 -0.6485  0.0462
 5640TIP3    H138335   0.773   2.966  16.265  1.7461 -2.8728  0.6244
 5640TIP3    H238336   0.699   3.041  16.373  1.0417  0.2477 -1.9586
 5641TIP3   OH238337   1.517   6.394   6.455 -0.6507 -0.5452  0.6283
 5641TIP3    H138338   1.589   6.407   6.394  0.2164 -1.6107  1.4023
 5641TIP3    H238339   1.560   6.375   6.539 -1.7728  3.1648  2.1386
 5642TIP3   OH238340   4.574   0.009  12.861 -0.6129  0.3647  0.1888
 5642TIP3    H138341   4.519  -0.068  12.876  0.3243 -0.0362  1.7812
 5642TIP3    H238342   4.640   0.004  12.931  0.0338  2.0871 -0.2847
 5643TIP3   OH238343   4.245   5.548   4.103  0.3177 -0.0251 -0.2819
 5643TIP3    H138344   4.321   5.602   4.129 -0.2198 -0.2576  1.8872
 5643TIP3    H238345   4.284   5.468   4.069  1.0787  0.1919  0.0473
 5644TIP3   OH238346   6.176   2.453   4.071 -1.0670  0.0142  0.4830
 5644TIP3    H138347   6.095   2.495   4.098 -0.7953  0.2800  0.8934
 5644TIP3    H238348   6.227   2.523   4.030 -1.4649 -0.3797 -0.7009
 5645TIP3   OH238349   0.982   2.097   5.543 -0.1177  0.1910 -0.0357
 5645TIP3    H138350   0.932   2.175   5.517  0.1824  0.5614  0.4915
 5645TIP3    H238351   1.072   2.128   5.547 -0.2495  0.3809  2.3293
 5646TIP3   OH238352   0.482   3.141  11.369 -0.4399 -0.0374  0.1678
 5646TIP3    H138353   0.421   3.110  11.301 -0.0222 -1.0414  0.2353
 5646TIP3    H238354   0.562   3.090  11.354  0.0225  0.5257  0.7328
 5647TIP3   OH238355   5.346   2.981  11.877 -0.4875  0.1288  0.4930
 5647TIP3    H138356   5.369   2.913  11.941  0.3106 -1.5173 -1.5036
 5647TIP3    H238357   5.272   2.944  11.828 -0.9182  1.2733  0.2604
 5648TIP3   OH238358   4.901   1.748  13.178 -0.0595 -0.3332 -0.2227
 5648TIP3    H138359   4.899   1.841  13.158  1.9862 -0.3381 -0.5487
 5648TIP3    H238360   4.817   1.715  13.148 -1.8850  1.8527  2.2321
 5649TIP3   OH238361   5.574   1.370  16.653  0.5011  0.3655 -0.3903
 5649TIP3    H138362   5.592   1.418  16.572  1.7796  0.0594 -0.3078
 5649TIP3    H238363   5.659   1.366  16.698  0.0999 -0.6768  0.3039
 5650TIP3   OH238364   2.592   1.702   5.832  0.4296 -0.3701 -0.0388
 5650TIP3    H138365   2.570   1.612   5.859  2.0539 -0.7847 -0.0739
 5650TIP3    H238366   2.571   1.756   5.908 -0.3067 -0.7991  0.0727
 5651TIP3   OH238367   5.597   6.448  15.295  0.3136 -0.5607  0.7323
 5651TIP3    H138368   5.621   6.378  15.235 -0.8810 -1.4774  1.2971
 5651TIP3    H238369   5.677   6.467  15.343  1.3858  0.4606 -1.3896
 5652TIP3   OH238370   1.285   4.032   5.687  0.6506 -0.0639 -0.1560
 5652TIP3    H138371   1.346   3.993   5.750 -2.8507  0.3871  3.7721
 5652TIP3    H238372   1.286   4.126   5.709 -2.9800 -0.3369  1.5225
 5653TIP3   OH238373   3.681   1.710  11.695 -0.4646 -0.8733  0.0203
 5653TIP3    H138374   3.717   1.630  11.657 -2.7711 -0.9062 -2.2748
 5653TIP3    H238375   3.605   1.681  11.746 -1.4245 -0.1661 -0.9719
 5654TIP3   OH238376   2.224   6.086  16.840  0.6758  0.8263  0.6533
 5654TIP3    H138377   2.156   6.042  16.788 -0.1903  1.8045  0.9584
 5654TIP3    H238378   2.205   6.060  16.931  0.6666  1.1623  0.7460
 5655TIP3   OH238379   5.311   2.487   0.967  0.3711 -0.2043  0.0157
 5655TIP3    H138380   5.291   2.568   0.921  0.3344 -0.3621 -0.2500
 5655TIP3    H238381   5.392   2.505   1.015  1.6741 -0.7420 -1.9214
 5656TIP3   OH238382   1.975   0.446   1.823  0.2184 -0.0435 -1.1477
 5656TIP3    H138383   2.067   0.426   1.836 -0.0068  0.0564  0.6749
 5656TIP3    H238384   1.948   0.492   1.902 -1.5755 -0.7254 -1.3167
 5657TIP3   OH238385   4.800   4.892  11.053 -0.3229 -0.0319  1.3301
 5657TIP3    H138386   4.828   4.832  11.122  1.3700 -0.2364  0.4998
 5657TIP3    H238387   4.785   4.836  10.977 -0.2109  0.4231  0.9716
 5658TIP3   OH238388   3.747   1.377  14.978  0.1662 -0.0093 -0.0841
 5658TIP3    H138389   3.790   1.364  15.062  0.8287 -0.6391 -0.5075
 5658TIP3    H238390   3.817   1.363  14.913 -0.2281  0.9335 -0.7198
 5659TIP3   OH238391   6.537   6.486   0.485  0.4578  0.6219  0.0465
 5659TIP3    H138392   6.611   6.502   0.544  0.8079  1.9251 -0.7267
 5659TIP3    H238393   6.473   6.439   0.539  0.3817  2.5975  1.7488
 5660TIP3   OH238394   2.915   5.039  11.810  0.2365 -0.5123  0.1835
 5660TIP3    H138395   2.848   5.082  11.864  0.1534 -2.1514  1.4287
 5660TIP3    H238396   2.996   5.086  11.831  0.2337 -1.2116  1.8961
 5661TIP3   OH238397   5.193   4.604  12.258 -0.1520 -0.3605 -0.2932
 5661TIP3    H138398   5.256   4.560  12.314  1.3892  0.1457 -1.6097
 5661TIP3    H238399   5.152   4.670  12.313  0.1567 -0.9819  0.6791
 5662TIP3   OH238400   3.428   1.915  14.560 -0.7042 -0.0879  0.1415
 5662TIP3    H138401   3.430   1.854  14.634 -0.4684 -0.1144  0.1161
 5662TIP3    H238402   3.403   1.861  14.485 -1.8923  0.1247  0.3677
 5663TIP3   OH238403   2.895   4.687   2.515  0.5300  0.3056  0.4539
 5663TIP3    H138404   2.840   4.743   2.461  0.9876  0.6305  0.3296
 5663TIP3    H238405   2.983   4.722   2.505  1.2685 -2.0305 -1.7229
 5664TIP3   OH238406   5.831   6.722  12.673 -0.3750  0.7342 -0.5335
 5664TIP3    H138407   5.883   6.781  12.617 -0.6606  0.5624 -0.9835
 5664TIP3    H238408   5.860   6.742  12.762  0.4964  0.6120 -0.7794
 5665TIP3   OH238409   4.211   1.626   5.475 -0.0608  0.2077 -0.1730
 5665TIP3    H138410   4.276   1.695   5.461  0.9394 -0.9193 -1.1689
 5665TIP3    H238411   4.262   1.551   5.504 -1.1193 -0.2161  0.6139
 5666TIP3   OH238412   0.083   6.061  12.489  0.6001 -0.2895  0.2052
 5666TIP3    H138413   0.104   5.976  12.451  1.4645 -0.1748  0.4209
 5666TIP3    H238414   0.006   6.090  12.440 -0.4134 -1.7151  0.9363
 5667TIP3   OH238415   5.041   2.864   6.226  0.3899  0.5650  0.4830
 5667TIP3    H138416   5.005   2.776   6.237 -1.5304  1.5979  3.0129
 5667TIP3    H238417   5.133   2.855   6.253  0.9770 -1.1838 -1.8971
 5668TIP3   OH238418   3.980   2.166   3.350  0.2783  0.1064 -0.6740
 5668TIP3    H138419   4.063   2.118   3.339 -0.4427 -1.6752  1.1982
 5668TIP3    H238420   3.912   2.100   3.333 -0.7390  0.7916  0.6266
 5669TIP3   OH238421   0.728   3.717   1.666 -0.1698 -0.2261  0.3532
 5669TIP3    H138422   0.768   3.641   1.624 -1.4451  0.3114 -1.9129
 5669TIP3    H238423   0.794   3.786   1.658 -0.2237 -0.2540 -0.3736
 5670TIP3   OH238424   0.741   0.409   2.435  0.2103 -0.4694 -0.0995
 5670TIP3    H138425   0.812   0.442   2.490 -0.2430  0.0064  0.2081
 5670TIP3    H238426   0.683   0.485   2.423  0.8219 -0.2836 -2.0627
 5671TIP3   OH238427   5.032   2.608  15.583 -0.4942  0.7800 -0.0400
 5671TIP3    H138428   5.024   2.651  15.668 -0.2629  0.6983  0.0210
 5671TIP3    H238429   5.040   2.680  15.521 -1.0144  0.8514 -0.0311
 5672TIP3   OH238430   2.234   5.173  10.303 -0.4538  0.0171  0.6640
 5672TIP3    H138431   2.170   5.243  10.295 -0.4472 -0.0993 -0.5422
 5672TIP3    H238432   2.193   5.109  10.361 -1.9456 -0.6026 -1.0245
 5673TIP3   OH238433   0.857   0.056  13.207  0.6866  0.1403  0.5623
 5673TIP3    H138434   0.914   0.007  13.147 -0.0092  0.0316 -0.0141
 5673TIP3    H238435   0.783  -0.002  13.223 -2.1205  2.4284 -3.2291
 5674TIP3   OH238436   0.117   3.854  14.200  0.2018 -0.4407  0.0745
 5674TIP3    H138437   0.097   3.883  14.289  1.6665 -0.9889  0.5939
 5674TIP3    H238438   0.044   3.798  14.176  0.4691 -1.4055  1.4533
 5675TIP3   OH238439   6.129   3.398  13.149 -0.2129 -0.1376 -0.2634
 5675TIP3    H138440   6.035   3.404  13.168 -0.2228 -0.3098 -0.2633
 5675TIP3    H238441   6.168   3.372  13.232 -0.1014  0.4911 -0.1159
 5676TIP3   OH238442   5.633   6.252   2.208  0.0119 -0.3418 -0.0015
 5676TIP3    H138443   5.665   6.283   2.292  0.2426 -0.4488 -0.0491
 5676TIP3    H238444   5.712   6.233   2.157 -0.1238 -0.7601 -0.0639
 5677TIP3   OH238445   3.214   4.881  17.026 -0.1218 -0.0182 -0.2132
 5677TIP3    H138446   3.308   4.882  17.008 -0.1620  1.2028 -0.3858
 5677TIP3    H238447   3.199   4.798  17.072  0.6175 -1.3848 -2.3777
 5678TIP3   OH238448   4.155   6.154   3.110  0.1514 -0.1674  0.2527
 5678TIP3    H138449   4.073   6.175   3.154 -0.5362  0.9120 -1.4707
 5678TIP3    H238450   4.221   6.207   3.154 -0.5764  1.1490 -0.2254
 5679TIP3   OH238451   2.958   6.719  17.072 -0.3316 -0.0208  0.4200
 5679TIP3    H138452   2.955   6.627  17.047  1.2265 -0.3070  1.2788
 5679TIP3    H238453   2.968   6.766  16.989 -1.8606 -0.5623 -0.0894
 5680TIP3   OH238454   4.853   0.216  15.851  0.3972  0.1800  0.3810
 5680TIP3    H138455   4.875   0.131  15.889 -0.5344 -0.1389  0.2294
 5680TIP3    H238456   4.763   0.232  15.880 -0.0990  0.2329 -1.1326
 5681TIP3   OH238457   1.740   4.246   3.152  0.4149  0.2842 -0.3099
 5681TIP3    H138458   1.828   4.216   3.176 -0.0053 -0.1123  0.7628
 5681TIP3    H238459   1.702   4.277   3.235  0.2909  2.4010 -1.1134
 5682TIP3   OH238460   6.300   2.374   5.143 -0.2564 -0.1888  0.1501
 5682TIP3    H138461   6.285   2.443   5.078  0.7623 -1.1450 -1.1285
 5682TIP3    H238462   6.255   2.298   5.108 -0.6490 -0.4239  1.1399
 5683TIP3   OH238463   6.579   4.861   5.968 -0.8972  0.3417 -0.2967
 5683TIP3    H138464   6.528   4.915   6.029 -0.8373  0.7735 -0.6273
 5683TIP3    H238465   6.553   4.892   5.881 -1.0459 -0.3288 -0.4971
 5684TIP3   OH238466   0.498   0.672  15.919  0.8956  0.9066  0.2085
 5684TIP3    H138467   0.515   0.706  16.007  0.8164  2.5914 -0.4111
 5684TIP3    H238468   0.583   0.677  15.875  0.3533  2.5999 -0.6515
 5685TIP3   OH238469   3.546   0.476   0.183 -0.4881  0.4564 -0.9342
 5685TIP3    H138470   3.529   0.542   0.117  2.1714  2.7266  0.5425
 5685TIP3    H238471   3.612   0.418   0.144 -0.3535  0.6558 -1.0020
 5686TIP3   OH238472   1.776   3.471  15.372  0.1813  0.0191  0.0197
 5686TIP3    H138473   1.703   3.421  15.408  0.4538  0.8139  1.6982
 5686TIP3    H238474   1.747   3.497  15.285 -0.6684 -1.5295 -0.1740
 5687TIP3   OH238475   0.584   5.029  17.097 -0.5171  0.6927  0.5123
 5687TIP3    H138476   0.627   5.104  17.056 -0.0862  0.0131 -0.2995
 5687TIP3    H238477   0.632   5.014  17.178 -1.2829  1.9608  1.2248
 5688TIP3   OH238478   5.210   2.445  14.557 -0.2372  0.4473  0.6649
 5688TIP3    H138479   5.284   2.490  14.598  0.4843 -0.4373  0.3521
 5688TIP3    H238480   5.154   2.419  14.630  0.3599  0.0814  0.9998
 5689TIP3   OH238481   2.008   0.505  14.228  0.5477  0.7284  0.8380
 5689TIP3    H138482   1.962   0.585  14.201  0.4461  0.7111  0.9581
 5689TIP3    H238483   2.066   0.485  14.155  0.9163  1.1761  1.0054
 5690TIP3   OH238484   4.481   0.230  16.824 -0.3974  0.8073 -0.1426
 5690TIP3    H138485   4.415   0.277  16.876  0.4362  1.3187  0.4795
 5690TIP3    H238486   4.483   0.142  16.862 -1.2922  0.5542 -0.6893
 5691TIP3   OH238487   4.879   4.873   4.351 -0.2877  0.2759  0.5794
 5691TIP3    H138488   4.820   4.833   4.288  0.3038  1.1031 -0.4998
 5691TIP3    H238489   4.904   4.801   4.409 -1.3951 -0.3294  0.3103
 5692TIP3   OH238490   5.417   3.389   2.488 -0.0105 -0.5801  0.1285
 5692TIP3    H138491   5.402   3.327   2.417  0.4263 -0.8848  0.2984
 5692TIP3    H238492   5.340   3.445   2.488 -0.4255 -1.1494  0.0017
 5693TIP3   OH238493   6.440   1.588  14.401  0.0955  0.8967  0.6293
 5693TIP3    H138494   6.400   1.524  14.342  2.1902  1.9179 -1.9836
 5693TIP3    H238495   6.378   1.661  14.402 -1.5179 -0.4570  2.3357
 5694TIP3   OH238496   3.313   2.279   3.719 -0.5315 -0.1171 -0.4379
 5694TIP3    H138497   3.226   2.285   3.679 -0.7352 -0.6434 -0.0907
 5694TIP3    H238498   3.352   2.364   3.704 -0.7676 -0.1607 -1.3841
 5695TIP3   OH238499   4.223   5.590  13.293 -0.5282 -0.1069  0.0231
 5695TIP3    H138500   4.256   5.509  13.333 -3.0338  0.1440  2.7898
 5695TIP3    H238501   4.275   5.601  13.214  2.8152 -2.1433  1.8283
 5696TIP3   OH238502   4.154   3.464   0.239  0.1015  0.4969 -0.2959
 5696TIP3    H138503   4.071   3.498   0.206  0.9500  0.8237 -2.1882
 5696TIP3    H238504   4.220   3.517   0.194  1.3468 -0.4216  0.4357
 5697TIP3   OH238505   3.865   1.207  12.868 -0.0688 -0.0949 -0.5286
 5697TIP3    H138506   3.927   1.235  12.935 -0.0906 -0.4721 -0.3468
 5697TIP3    H238507   3.863   1.279  12.805  0.4978 -0.0457 -0.4946
 5698TIP3   OH238508   0.490   0.063   3.231 -0.0816  0.2226 -0.1710
 5698TIP3    H138509   0.482   0.155   3.254  1.6809  0.8884 -2.1128
 5698TIP3    H238510   0.558   0.030   3.289  1.5276  0.9267 -1.6358
 5699TIP3   OH238511   3.142   4.707  15.272  0.3418  0.2564 -0.5374
 5699TIP3    H138512   3.217   4.648  15.285 -0.1750 -0.3019 -0.0382
 5699TIP3    H238513   3.120   4.698  15.179 -0.4541 -1.2274 -0.2219
 5700TIP3   OH238514   1.128   1.075   2.744 -0.3682  0.1343  0.3156
 5700TIP3    H138515   1.171   0.991   2.757  0.5475  0.7313  1.2166
 5700TIP3    H238516   1.167   1.110   2.664 -1.1798 -0.5604 -0.3865
 5701TIP3   OH238517   0.379   0.491   1.164  0.4019 -0.2850 -0.2802
 5701TIP3    H138518   0.334   0.497   1.080 -2.1367 -1.1888  0.9391
 5701TIP3    H238519   0.433   0.569   1.169  0.8971 -0.4170 -2.9040
 5702TIP3   OH238520   0.230   0.596  11.163  0.0296 -0.3556  0.0050
 5702TIP3    H138521   0.157   0.649  11.131 -0.5636 -1.1073  0.0630
 5702TIP3    H238522   0.278   0.571  11.084  1.5969  2.0576  0.1583
 5703TIP3   OH238523   4.838   6.545   3.280 -0.4183 -0.2235 -0.2056
 5703TIP3    H138524   4.784   6.567   3.356  0.5373  0.1863  0.3671
 5703TIP3    H238525   4.916   6.504   3.317 -0.4623 -1.0667 -1.0462
 5704TIP3   OH238526   5.752   2.479   3.504 -0.1506 -0.0043  0.4950
 5704TIP3    H138527   5.660   2.470   3.529 -0.4624  1.5194 -0.0396
 5704TIP3    H238528   5.769   2.573   3.511  1.1022 -0.1635 -0.3240
 5705TIP3   OH238529   4.435   3.349  15.975  0.0168 -0.1455 -0.0408
 5705TIP3    H138530   4.439   3.287  16.047 -0.0398  0.1097  0.1844
 5705TIP3    H238531   4.486   3.425  16.005  2.3957 -1.1518 -1.3601
 5706TIP3   OH238532   4.616   6.331  13.013 -0.3475 -0.2328  0.0936
 5706TIP3    H138533   4.609   6.241  13.046 -0.3012 -0.1433  0.3446
 5706TIP3    H238534   4.551   6.380  13.063 -0.7345 -0.2305 -0.4051
 5707TIP3   OH238535   0.016   2.075  17.004  0.0305  0.1109  0.4530
 5707TIP3    H138536  -0.047   2.047  17.070  0.4812 -0.1798  0.7633
 5707TIP3    H238537   0.100   2.076  17.050  0.4966 -0.9715 -0.3513
 5708TIP3   OH238538   1.819   5.388   0.029  0.2905 -0.0556 -0.8599
 5708TIP3    H138539   1.831   5.359  -0.062  0.1219 -2.2864 -0.2043
 5708TIP3    H238540   1.725   5.381   0.044  0.1487  1.5724 -0.8977
 5709TIP3   OH238541   0.049   3.859  14.765 -0.4912 -0.2006  0.2774
 5709TIP3    H138542   0.010   3.774  14.742 -0.4542 -0.6815  1.9604
 5709TIP3    H238543   0.112   3.876  14.695 -2.0502 -0.5135 -1.2564
 5710TIP3   OH238544   1.098   4.973  11.529 -0.1408  0.0017 -0.1888
 5710TIP3    H138545   1.133   5.022  11.455 -1.1776 -0.3293 -0.9094
 5710TIP3    H238546   1.161   4.903  11.544  0.5334  0.6000 -0.1692
 5711TIP3   OH238547   4.824   3.404   6.246  0.4723  0.4195  0.3521
 5711TIP3    H138548   4.893   3.364   6.193  1.2567  0.8884  1.0157
 5711TIP3    H238549   4.796   3.481   6.196  0.6158  0.3823  0.2162
 5712TIP3   OH238550   4.179   4.323  14.605  0.2927 -0.8367  0.5169
 5712TIP3    H138551   4.158   4.284  14.520  0.7260 -0.1276  0.0824
 5712TIP3    H238552   4.102   4.304  14.659  0.0756 -1.4195  0.0148
 5713TIP3   OH238553   0.495   2.899  13.230 -0.4631 -0.2833  0.0535
 5713TIP3    H138554   0.554   2.865  13.298  0.6929  1.0365 -0.2551
 5713TIP3    H238555   0.506   2.838  13.157  0.2714 -0.2515  0.1285
 5714TIP3   OH238556   1.485   5.521   1.813 -0.3706 -0.2955  0.1161
 5714TIP3    H138557   1.552   5.513   1.746  0.4029  1.5226  0.6388
 5714TIP3    H238558   1.477   5.615   1.828 -1.3376 -0.6154  1.7449
 5715TIP3   OH238559   6.695   1.456  10.968  0.2079  0.3424  0.8112
 5715TIP3    H138560   6.755   1.389  11.001 -1.5840 -1.4116  0.5447
 5715TIP3    H238561   6.700   1.448  10.873  1.7455  2.1917  0.6970
 5716TIP3   OH238562   6.198   2.983  17.075 -0.0065 -0.1111 -0.3118
 5716TIP3    H138563   6.180   3.067  17.118 -1.0350 -0.2523 -0.4397
 5716TIP3    H238564   6.278   2.951  17.117 -0.4266  0.2428  0.7920
 5717TIP3   OH238565   1.733   6.488   1.045 -0.0309  0.4027  0.0359
 5717TIP3    H138566   1.810   6.478   0.988  0.5138  0.8006  0.6851
 5717TIP3    H238567   1.737   6.579   1.073 -0.7259  0.4087  0.1047
 5718TIP3   OH238568   0.755   0.435   0.087 -0.0394  0.3972  0.2535
 5718TIP3    H138569   0.722   0.396   0.006 -1.5133  0.3514  0.8783
 5718TIP3    H238570   0.709   0.519   0.094 -1.6531 -0.6298  2.2421
 5719TIP3   OH238571   2.603   5.452  11.478  0.5679 -0.4503 -0.0855
 5719TIP3    H138572   2.539   5.450  11.549  0.1660  0.4826 -0.4210
 5719TIP3    H238573   2.594   5.539  11.440  0.4138 -1.1253 -1.6268
 5720TIP3   OH238574   3.354   6.768   2.947 -0.0224 -0.4924 -0.1317
 5720TIP3    H138575   3.439   6.798   2.913 -1.0145  1.6044 -0.8693
 5720TIP3    H238576   3.376   6.715   3.023  1.9944 -0.5596 -0.7257
 5721TIP3   OH238577   1.748   2.130   3.475 -0.8496 -0.4140  0.2446
 5721TIP3    H138578   1.788   2.051   3.511 -1.3595 -0.1939  1.2990
 5721TIP3    H238579   1.654   2.114   3.481 -0.9503 -0.4675 -1.2046
 5722TIP3   OH238580   6.371   5.787  14.804  0.0472  0.7511  0.4594
 5722TIP3    H138581   6.353   5.694  14.820  1.6060  0.2717 -0.4924
 5722TIP3    H238582   6.317   5.833  14.869 -0.9313 -0.8028  0.7753
 5723TIP3   OH238583   6.103   2.756  14.436  0.2412  0.0702  0.0877
 5723TIP3    H138584   6.072   2.691  14.499  0.3338 -1.9473 -1.8894
 5723TIP3    H238585   6.191   2.726  14.412  0.4172  1.1201 -0.6138
 5724TIP3   OH238586   3.123   4.318  10.964 -0.2818  0.3581  0.1771
 5724TIP3    H138587   3.040   4.313  10.917  0.6756 -0.7541 -1.4396
 5724TIP3    H238588   3.121   4.245  11.026 -0.5593  0.4102  0.2273
 5725TIP3   OH238589   1.527   3.101  14.728 -0.3391 -0.4277 -0.0111
 5725TIP3    H138590   1.590   3.140  14.667 -0.4774  0.3624  0.3386
 5725TIP3    H238591   1.543   3.007  14.723 -0.2035 -0.3490 -1.0980
 5726TIP3   OH238592   2.324   4.780   0.428  0.1735  0.0412 -0.0983
 5726TIP3    H138593   2.325   4.763   0.522  2.4976  0.6668  0.0291
 5726TIP3    H238594   2.359   4.701   0.388  1.3826  0.6459 -0.2550
 5727TIP3   OH238595   0.989   4.075   1.162  0.1219 -0.0034  0.3048
 5727TIP3    H138596   0.925   4.082   1.233  0.2773  1.4759  0.3073
 5727TIP3    H238597   0.957   4.135   1.095  0.8416 -0.1841 -0.2077
 5728TIP3   OH238598   0.249   1.534   0.674 -0.3514  0.4240  0.9912
 5728TIP3    H138599   0.279   1.444   0.689  1.0352  0.9139  1.1895
 5728TIP3    H238600   0.153   1.526   0.668 -0.2882 -0.9829  1.5826
 5729TIP3   OH238601   4.409   3.788   3.438 -0.2875 -0.4603  0.6244
 5729TIP3    H138602   4.459   3.863   3.407  0.5329 -0.1486  2.6295
 5729TIP3    H238603   4.458   3.755   3.513 -0.7790 -2.8580 -0.0705
 5730TIP3   OH238604   1.563   4.412  12.216  0.1125 -0.1856  0.4764
 5730TIP3    H138605   1.525   4.489  12.257 -0.5327 -0.5307  0.5291
 5730TIP3    H238606   1.597   4.443  12.133  0.4547  0.2922  0.7931
 5731TIP3   OH238607   2.439   0.634   0.081 -0.2949 -0.1198  0.0820
 5731TIP3    H138608   2.495   0.696   0.035 -0.3674  1.1628  1.6977
 5731TIP3    H238609   2.351   0.652   0.048 -0.3800  0.9589  0.8574
 5732TIP3   OH238610   3.656   0.939   1.786  0.4104 -0.5542 -0.0777
 5732TIP3    H138611   3.624   0.872   1.726  2.3137 -1.8044  0.2350
 5732TIP3    H238612   3.701   1.002   1.729  1.4605 -1.2863 -0.0873
 5733TIP3   OH238613   2.602   2.942   5.696  0.8039 -0.1145 -0.0352
 5733TIP3    H138614   2.573   2.913   5.610 -0.1442 -0.3417  0.3542
 5733TIP3    H238615   2.684   2.895   5.711  0.3588 -0.9785 -0.3115
 5734TIP3   OH238616   4.781   2.008   3.363  0.2117 -0.2691  0.3487
 5734TIP3    H138617   4.755   1.917   3.348 -1.1908  0.0470  0.8123
 5734TIP3    H238618   4.750   2.055   3.285  2.7501 -0.5057 -0.8678
 5735TIP3   OH238619   3.384   2.518  14.051  0.1767  0.0086 -0.2297
 5735TIP3    H138620   3.344   2.448  13.999  0.5633 -0.8388  0.5903
 5735TIP3    H238621   3.316   2.584  14.060 -1.1300 -1.5084  1.3464
 5736TIP3   OH238622   3.945   0.517   4.788  0.3219  0.6332 -0.3385
 5736TIP3    H138623   3.870   0.513   4.729  1.3317  0.9307 -1.6774
 5736TIP3    H238624   4.000   0.586   4.751  0.1500  2.0731  1.9587
 5737TIP3   OH238625   6.166   2.277  14.209  0.3727 -0.3030 -0.5801
 5737TIP3    H138626   6.113   2.278  14.289 -2.1322 -2.7316 -2.0927
 5737TIP3    H238627   6.149   2.362  14.168  2.5394  1.4136  1.9139
 5738TIP3   OH238628   1.367   4.590  12.276 -0.2202 -0.2930  0.4635
 5738TIP3    H138629   1.338   4.667  12.228  1.2216  0.3251  0.5409
 5738TIP3    H238630   1.367   4.617  12.368 -0.0834 -0.5018  0.5270
 5739TIP3   OH238631   3.307   5.518  16.053 -0.7680 -0.2235 -0.2478
 5739TIP3    H138632   3.221   5.499  16.016  0.0324 -0.8891 -1.8245
 5739TIP3    H238633   3.327   5.442  16.108 -0.6123 -0.7033 -0.9590
 5740TIP3   OH238634   1.742   1.787   1.201 -0.4543 -0.4688  0.3653
 5740TIP3    H138635   1.816   1.752   1.252 -0.2277 -1.8195 -0.8774
 5740TIP3    H238636   1.742   1.736   1.120 -2.9318 -0.6792  0.4692
 5741TIP3   OH238637   2.583   3.981  16.061  0.2684 -0.2680  0.3737
 5741TIP3    H138638   2.511   3.981  15.998 -0.4547 -1.7135  1.1913
 5741TIP3    H238639   2.662   3.981  16.006 -0.3482 -0.2701 -0.5224
 5742TIP3   OH238640   1.691   2.614   1.667 -0.0009  0.6043 -0.1721
 5742TIP3    H138641   1.622   2.632   1.604  0.5602  0.5250 -0.8156
 5742TIP3    H238642   1.765   2.667   1.638  0.4720  0.0718  0.0450
 5743TIP3   OH238643   6.099   5.283   4.547  0.3141  0.1061  0.3884
 5743TIP3    H138644   6.010   5.317   4.558 -0.2523 -0.9929 -0.5983
 5743TIP3    H238645   6.101   5.251   4.457  0.0748 -4.4934  1.8763
 5744TIP3   OH238646   6.380   3.329   5.240 -0.3527  0.2213  0.0051
 5744TIP3    H138647   6.350   3.240   5.218  1.3723 -0.0805 -1.1882
 5744TIP3    H238648   6.340   3.385   5.173  3.0025 -0.3970 -2.6188
 5745TIP3   OH238649   1.832   2.021   2.152  0.6949 -0.3668  0.4735
 5745TIP3    H138650   1.774   1.950   2.123  0.3654 -0.0088  0.2617
 5745TIP3    H238651   1.918   1.995   2.120  0.6994 -1.0073  0.9718
 5746TIP3   OH238652   3.033   2.673   6.066  0.1304 -0.6581 -0.3294
 5746TIP3    H138653   3.127   2.674   6.086 -0.3229 -1.1002  1.9736
 5746TIP3    H238654   3.003   2.588   6.099 -1.2602 -0.1035 -0.1411
 5747TIP3   OH238655   4.966   3.141  12.252  0.2427 -0.5133  0.7606
 5747TIP3    H138656   4.995   3.050  12.243  0.9951 -0.2752  0.7662
 5747TIP3    H238657   4.980   3.161  12.345 -0.5471 -0.6000  0.9019
 5748TIP3   OH238658   1.253   2.151   1.533  0.0174  0.4989  0.3675
 5748TIP3    H138659   1.235   2.076   1.476  1.0598  2.5825 -2.8688
 5748TIP3    H238660   1.237   2.119   1.622 -3.8422 -2.2604 -1.2141
 5749TIP3   OH238661   6.381   3.471  15.249  0.1340 -0.2153 -0.3598
 5749TIP3    H138662   6.313   3.462  15.316  2.1429 -0.3513  1.7204
 5749TIP3    H238663   6.430   3.389  15.253  0.6592  0.0229 -1.6012
 5750TIP3   OH238664   4.665   6.122  11.981 -0.6826 -0.0601 -0.1905
 5750TIP3    H138665   4.732   6.181  12.017 -0.4742  0.6609 -1.6936
 5750TIP3    H238666   4.631   6.169  11.905 -1.3256 -1.4024 -0.7466
 5751TIP3   OH238667   0.256   5.253  11.564  0.0970 -0.2533 -0.5343
 5751TIP3    H138668   0.279   5.278  11.475 -0.4512 -1.1994 -0.9531
 5751TIP3    H238669   0.297   5.168  11.576 -1.2363 -0.8933 -0.4817
 5752TIP3   OH238670   2.521   0.224   5.019  0.6242 -0.4259  0.0150
 5752TIP3    H138671   2.466   0.284   5.068  0.4034 -0.6528  0.0454
 5752TIP3    H238672   2.597   0.209   5.076  0.2213 -0.9368  0.4312
 5753TIP3   OH238673   3.668   5.409   0.858 -0.4402 -0.3813 -0.0909
 5753TIP3    H138674   3.614   5.467   0.912 -0.3071 -0.5250  0.1972
 5753TIP3    H238675   3.690   5.462   0.782  0.0794  0.1184  0.3986
 5754TIP3   OH238676   6.369   3.082   5.691  0.1856 -0.4692  0.0519
 5754TIP3    H138677   6.439   3.134   5.732  2.0272 -3.9231  1.5033
 5754TIP3    H238678   6.305   3.070   5.760  1.2717 -2.7108  0.7154
 5755TIP3   OH238679   5.773   6.012  15.960 -0.4297  0.1670  0.2707
 5755TIP3    H138680   5.780   6.107  15.970  1.1968 -0.0848  1.8465
 5755TIP3    H238681   5.689   5.989  16.000 -0.3576  0.8336  0.8160
 5756TIP3   OH238682   5.425   1.864   4.399  0.1530  0.3300 -0.0644
 5756TIP3    H138683   5.509   1.854   4.443  0.3856  0.3655 -0.5066
 5756TIP3    H238684   5.445   1.907   4.316 -0.3518  0.7548  0.0268
 5757TIP3   OH238685   2.386   6.110  12.368 -0.0448  0.8357  0.2091
 5757TIP3    H138686   2.432   6.157  12.298  1.5617  1.5221  1.6938
 5757TIP3    H238687   2.410   6.156  12.448 -0.3063 -1.1091  1.4381
 5758TIP3   OH238688   3.854   1.308   0.047 -0.8612 -0.5890  0.0718
 5758TIP3    H138689   3.878   1.254   0.122 -0.0484  0.3903  0.5376
 5758TIP3    H238690   3.923   1.374   0.042 -1.9721  0.5765 -0.3063
 5759TIP3   OH238691   4.012   3.243  12.871 -0.1928  0.1175  0.2665
 5759TIP3    H138692   3.973   3.240  12.784  1.3504 -0.6631 -0.4241
 5759TIP3    H238693   3.938   3.241  12.931 -1.2297 -0.4874 -1.0204
 5760TIP3   OH238694   5.921   3.964  15.836  0.5410 -0.0904  0.4428
 5760TIP3    H138695   5.838   3.925  15.863  0.5332 -0.6436 -0.3578
 5760TIP3    H238696   5.895   4.041  15.784  0.5127 -0.7202 -0.4853
 5761TIP3   OH238697   1.512   4.500  16.732  0.3396  0.6102  0.2296
 5761TIP3    H138698   1.478   4.411  16.733  0.8748  0.3884 -1.2566
 5761TIP3    H238699   1.505   4.528  16.641 -3.7867  3.5988  1.3074
 5762TIP3   OH238700   1.841   3.801  15.356 -0.5188  0.3581 -0.2389
 5762TIP3    H138701   1.747   3.786  15.347 -0.6843  1.3753 -0.3393
 5762TIP3    H238702   1.848   3.891  15.389  0.3578 -0.3820  1.6680
 5763TIP3   OH238703   3.116   4.849  14.061  0.4282  0.0001 -0.1809
 5763TIP3    H138704   3.204   4.813  14.050  0.7793  0.7073  0.3131
 5763TIP3    H238705   3.122   4.939  14.031  0.0666  0.2919  0.6007
 5764TIP3   OH238706   1.171   4.210   2.285 -0.5737  0.0823  0.0578
 5764TIP3    H138707   1.119   4.290   2.292 -1.5932 -0.5774  0.2090
 5764TIP3    H238708   1.262   4.240   2.279 -1.0557  1.2982 -1.2859
 5765TIP3   OH238709   0.618   4.049  16.086 -0.3180 -0.0151  0.6181
 5765TIP3    H138710   0.683   4.065  16.154 -0.0945  1.6943  0.0266
 5765TIP3    H238711   0.535   4.039  16.133  0.0136  0.0353  1.2170
 5766TIP3   OH238712   4.165   1.984  12.043  0.4519  0.0739 -0.2895
 5766TIP3    H138713   4.212   2.029  12.113  1.8398  1.2659 -1.9632
 5766TIP3    H238714   4.081   2.029  12.037  1.8300  2.5255 -1.9623
 5767TIP3   OH238715   3.419   6.052  16.062  0.4867 -0.2228 -0.1024
 5767TIP3    H138716   3.415   5.957  16.076  1.1171 -0.2817 -0.3067
 5767TIP3    H238717   3.385   6.090  16.143  1.9288 -0.5969  0.6936
 5768TIP3   OH238718   3.752   0.981   0.427  0.1776  0.5834 -0.2365
 5768TIP3    H138719   3.773   0.942   0.512 -0.0894  1.4260  0.2246
 5768TIP3    H238720   3.705   1.062   0.449  0.6417  1.1105 -1.1741
 5769TIP3   OH238721   2.732   4.539   1.058  0.3850 -0.1015 -0.0545
 5769TIP3    H138722   2.755   4.477   0.989  1.4255  0.9502 -0.6773
 5769TIP3    H238723   2.648   4.507   1.092  0.3673 -1.2133 -1.1021
 5770TIP3   OH238724   5.637   2.150  11.353  0.3086 -0.4732 -0.5369
 5770TIP3    H138725   5.728   2.177  11.346  0.0168  0.2575 -1.5423
 5770TIP3    H238726   5.600   2.209  11.420  1.0279 -2.0172  1.2673
 5771TIP3   OH238727   2.593   0.245   1.525  0.2281 -0.2942  0.3516
 5771TIP3    H138728   2.582   0.153   1.546 -1.1384  0.0322  1.1848
 5771TIP3    H238729   2.629   0.284   1.604 -2.5137  0.4854  1.2820
 5772TIP3   OH238730   6.687   6.526  16.887  0.6559 -0.3595  0.1819
 5772TIP3    H138731   6.603   6.527  16.933  0.8054  0.4556  0.4428
 5772TIP3    H238732   6.707   6.618  16.871  1.8153 -0.5131  0.6997
 5773TIP3   OH238733   0.557   4.343   3.942 -0.3238  0.5389  0.3317
 5773TIP3    H138734   0.632   4.399   3.922 -0.9289  1.1111 -0.3739
 5773TIP3    H238735   0.538   4.362   4.034  1.1528 -0.5267  0.8703
 5774TIP3   OH238736   5.541   3.865  11.564 -0.5060  0.2801 -0.4049
 5774TIP3    H138737   5.520   3.811  11.487  2.5430  0.6286 -1.5656
 5774TIP3    H238738   5.598   3.934  11.530  0.8265  0.5060  2.1632
 5775TIP3   OH238739   1.956   4.627  14.115 -0.5487  0.4463  0.1201
 5775TIP3    H138740   1.976   4.689  14.185  1.4984  1.0115 -0.9339
 5775TIP3    H238741   1.969   4.677  14.035 -3.3850 -0.0287 -0.7060
 5776TIP3   OH238742   3.423   2.878   0.752 -0.1234 -0.0540 -0.2944
 5776TIP3    H138743   3.420   2.970   0.778  1.9100 -0.0138 -0.1043
 5776TIP3    H238744   3.484   2.838   0.814 -1.9680 -1.8126  0.4298
 5777TIP3   OH238745   6.497   3.868   4.447 -0.6091  0.0339  0.3208
 5777TIP3    H138746   6.511   3.919   4.367  0.1377  0.3782  0.6617
 5777TIP3    H238747   6.527   3.926   4.517 -0.2805 -0.6609  0.7568
 5778TIP3   OH238748   2.014   5.695  15.111 -0.1018 -0.3425  0.1438
 5778TIP3    H138749   2.108   5.706  15.124 -0.1233 -0.6014  0.5265
 5778TIP3    H238750   1.992   5.758  15.042  0.1923  0.3650  0.6830
 5779TIP3   OH238751   4.252   2.611   0.187 -0.7390 -0.1724  0.5010
 5779TIP3    H138752   4.262   2.520   0.217  1.0725 -0.2194 -0.2179
 5779TIP3    H238753   4.218   2.603   0.098 -2.4359 -0.0974  1.1275
 5780TIP3   OH238754   2.416   0.734  11.939 -0.1971  0.1165 -0.6439
 5780TIP3    H138755   2.328   0.724  11.903 -1.5136 -1.9718  2.9512
 5780TIP3    H238756   2.423   0.827  11.960 -2.0010  0.0804  0.1601
 5781TIP3   OH238757   2.477   1.181  14.985 -0.7458  0.2885  0.0206
 5781TIP3    H138758   2.394   1.211  14.948 -0.7205  0.0777 -0.2048
 5781TIP3    H238759   2.496   1.244  15.055  0.3791  2.0969 -1.8444
 5782TIP3   OH238760   0.477   3.044   4.100  0.2551  0.6964  0.0186
 5782TIP3    H138761   0.546   3.081   4.153 -0.5033  0.0443  1.4919
 5782TIP3    H238762   0.514   3.038   4.012  1.5395  1.7197  0.4890
 5783TIP3   OH238763   4.982   2.819   0.806 -0.9442 -0.2984  0.5706
 5783TIP3    H138764   4.893   2.854   0.812 -0.3288  1.4232 -0.2501
 5783TIP3    H238765   5.007   2.804   0.897 -1.4863  0.7399  0.9035
 5784TIP3   OH238766   4.876   2.194  15.756 -0.9274 -0.1263 -0.1730
 5784TIP3    H138767   4.964   2.181  15.721 -0.8029 -1.5338  0.6533
 5784TIP3    H238768   4.864   2.289  15.755  0.5622  0.0702 -0.3454
 5785TIP3   OH238769   0.132   0.377   4.557 -0.2163  0.6472 -0.4804
 5785TIP3    H138770   0.201   0.395   4.621 -1.0726 -0.7669  0.8716
 5785TIP3    H238771   0.178   0.373   4.473  1.0592  1.5944  0.1577
 5786TIP3   OH238772   5.814   4.254  12.553  0.1554 -1.0474  0.2951
 5786TIP3    H138773   5.847   4.307  12.481  0.8304 -2.2277 -0.2718
 5786TIP3    H238774   5.788   4.171  12.512  0.4986 -1.7082  1.3851
 5787TIP3   OH238775   1.405   3.460  13.416  0.6733 -0.0134 -0.3832
 5787TIP3    H138776   1.361   3.384  13.454 -1.0413  1.5031  0.7453
 5787TIP3    H238777   1.492   3.459  13.455  0.0759 -0.4251  0.9781
 5788TIP3   OH238778   5.869   1.473   2.244 -0.6407 -0.3454 -0.4120
 5788TIP3    H138779   5.930   1.479   2.171 -1.3763 -1.3427 -1.1143
 5788TIP3    H238780   5.923   1.445   2.318  0.1948  1.1428 -0.4322
 5789TIP3   OH238781   0.966   1.947   3.342  0.1410  0.1798  0.1313
 5789TIP3    H138782   1.029   1.877   3.327 -2.0501 -1.2514 -2.6795
 5789TIP3    H238783   0.991   1.984   3.427  4.0808 -1.0162 -0.4369
 5790TIP3   OH238784   5.029   1.491   0.872  0.8190 -0.4120  0.7979
 5790TIP3    H138785   4.979   1.417   0.904 -1.4002  0.4075 -0.6677
 5790TIP3    H238786   5.024   1.485   0.777  2.2389  0.5499  0.6304
 5791TIP3   OH238787   4.717   6.646  12.037  0.4555  0.7974 -0.0095
 5791TIP3    H138788   4.755   6.720  11.990 -0.5250 -0.2513 -2.5188
 5791TIP3    H238789   4.747   6.568  11.989 -1.2473 -0.2547  0.5759
 5792TIP3   OH238790   3.999   0.494  16.492 -0.0727 -0.5635 -0.5295
 5792TIP3    H138791   3.911   0.496  16.455  0.4543 -0.5453 -1.8134
 5792TIP3    H238792   3.988   0.523  16.582 -1.2206  0.5645 -1.0175
 5793TIP3   OH238793   0.850   6.033  16.503 -0.0224  0.0211 -0.1274
 5793TIP3    H138794   0.763   5.992  16.504 -0.9094  1.8115 -1.5201
 5793TIP3    H238795   0.875   6.033  16.411  1.4529 -0.4186  0.2628
 5794TIP3   OH238796   3.246   0.989  12.881  0.1087  0.1025 -0.3761
 5794TIP3    H138797   3.336   0.974  12.853  0.2630  0.0379  0.1557
 5794TIP3    H238798   3.213   0.901  12.904  0.4533  0.3327  1.0585
 5795TIP3   OH238799   4.406   2.251   1.841 -0.4866  0.2525  0.1177
 5795TIP3    H138800   4.369   2.308   1.773 -1.3140  0.4996  0.7745
 5795TIP3    H238801   4.332   2.229   1.897  0.6124  2.0473  2.3892
 5796TIP3   OH238802   5.388   1.210   2.806 -0.1436 -0.0257  0.9015
 5796TIP3    H138803   5.399   1.269   2.881 -0.4982 -0.8944  1.6541
 5796TIP3    H238804   5.458   1.145   2.816  0.0474  0.0816  0.2605
 5797TIP3   OH238805   4.496   5.967  16.039  0.3008  0.4540 -0.2553
 5797TIP3    H138806   4.565   6.030  16.016  0.9653 -0.7083 -1.5152
 5797TIP3    H238807   4.421   5.994  15.986  0.6976  0.0036 -1.0734
 5798TIP3   OH238808   1.200   3.866  15.463 -0.0590 -0.3527  0.5516
 5798TIP3    H138809   1.269   3.871  15.529 -0.8034 -0.4945  1.3376
 5798TIP3    H238810   1.237   3.911  15.387  0.2746  0.9858  1.4978
 5799TIP3   OH238811   5.306   4.392   2.651 -0.7974  0.0676  0.0597
 5799TIP3    H138812   5.363   4.376   2.726 -0.3373  2.1446  0.1892
 5799TIP3    H238813   5.289   4.486   2.654  0.7965  0.5418 -3.5264
 5800TIP3   OH238814   6.110   2.814  16.875 -0.8136  0.7754 -0.2737
 5800TIP3    H138815   6.158   2.862  16.943 -3.9657 -2.7137  4.7653
 5800TIP3    H238816   6.044   2.876  16.845  0.8953  2.5266 -0.5855
 5801TIP3   OH238817   4.150   3.884  12.425 -0.0613 -0.1425  0.4172
 5801TIP3    H138818   4.140   3.791  12.406 -1.9194  0.5209 -1.9765
 5801TIP3    H238819   4.070   3.924  12.392  1.3277  2.5019  0.1588
 5802TIP3   OH238820   4.499   2.763   0.129  0.0012  0.6086 -0.3188
 5802TIP3    H138821   4.442   2.736   0.201 -0.0986  2.4195  0.3001
 5802TIP3    H238822   4.543   2.682   0.102 -3.3117 -0.9339 -1.2635
 5803TIP3   OH238823   5.729   2.748   3.247 -0.0882 -0.0560  0.4541
 5803TIP3    H138824   5.737   2.663   3.205 -1.0060  0.0033  0.1543
 5803TIP3    H238825   5.818   2.783   3.249  0.2374 -0.8800  0.2845
 5804TIP3   OH238826   1.422   2.040   4.208 -0.0113  0.4026 -0.4087
 5804TIP3    H138827   1.390   1.988   4.134 -3.1475  0.0075  1.1303
 5804TIP3    H238828   1.483   1.983   4.254  0.2581 -0.1568 -1.4518
 5805TIP3   OH238829   5.483   1.219  14.992 -0.1051  0.1921  0.2849
 5805TIP3    H138830   5.424   1.274  15.044  1.1340  0.7919  1.1028
 5805TIP3    H238831   5.440   1.134  14.989 -0.7878  0.4884  1.2616
 5806TIP3   OH238832   6.781   2.584   0.787 -0.1021  0.0157  0.0989
 5806TIP3    H138833   6.801   2.500   0.829 -1.0064 -0.2279  0.0644
 5806TIP3    H238834   6.773   2.646   0.860 -0.2027 -0.0982  0.1867
 5807TIP3   OH238835   2.040   3.786   3.927 -0.6177 -0.2368  0.9866
 5807TIP3    H138836   1.983   3.863   3.926 -1.0515 -0.5227 -2.4379
 5807TIP3    H238837   2.036   3.755   4.017 -1.8754  2.6769  2.0088
 5808TIP3   OH238838   1.930   4.828  16.737 -0.5910  0.2311  0.0638
 5808TIP3    H138839   2.016   4.798  16.765 -1.4215 -1.1271  1.2561
 5808TIP3    H238840   1.914   4.782  16.654  0.2947  1.3619 -0.7423
 5809TIP3   OH238841   0.865   4.596  10.996 -0.0997  0.5667  0.4778
 5809TIP3    H138842   0.775   4.616  10.970  0.0284  0.5472  0.0173
 5809TIP3    H238843   0.919   4.651  10.940  0.2941 -1.6361 -1.3918
 5810TIP3   OH238844   3.347   6.441   5.428  0.9858 -0.4424  0.5619
 5810TIP3    H138845   3.295   6.431   5.348  2.8775  3.1484 -1.2476
 5810TIP3    H238846   3.394   6.358   5.436 -0.6049 -1.5376 -1.0567
 5811TIP3   OH238847   4.501   1.809   3.214  0.8671 -0.0689 -0.0732
 5811TIP3    H138848   4.567   1.760   3.264 -0.0017 -1.2094  0.0030
 5811TIP3    H238849   4.537   1.897   3.206  0.1509  0.7795  4.3718
 5812TIP3   OH238850   4.712   5.330   1.091 -0.6418  0.0945  0.1700
 5812TIP3    H138851   4.779   5.262   1.084  0.1127  0.9499 -1.1549
 5812TIP3    H238852   4.651   5.297   1.157  0.1310 -1.5047  0.1121
 5813TIP3   OH238853   0.217   3.109   5.962 -0.2080  0.4877  0.4661
 5813TIP3    H138854   0.278   3.094   6.035 -0.6601 -1.3189  0.4945
 5813TIP3    H238855   0.193   3.201   5.969  1.4114  0.8524  1.3236
 5814TIP3   OH238856   6.079   2.334  11.389  0.1918  0.7823  0.4802
 5814TIP3    H138857   6.117   2.262  11.439  0.9976 -0.1720 -1.4459
 5814TIP3    H238858   5.995   2.300  11.358 -0.1738  1.2604  0.9460
 5815TIP3   OH238859   2.679   0.114  17.028  0.3037 -0.0499 -0.0922
 5815TIP3    H138860   2.761   0.087  16.986  0.1975 -1.5140  0.6108
 5815TIP3    H238861   2.669   0.053  17.102 -1.0215  0.6050  0.2792
 5816TIP3   OH238862   5.460   6.778   4.153 -0.6512  0.8531  0.2879
 5816TIP3    H138863   5.437   6.736   4.070 -2.1037  1.2071  0.5080
 5816TIP3    H238864   5.413   6.861   4.152 -0.2445  1.1010  1.2358
 5817TIP3   OH238865   3.171   2.990   3.605  0.3137  0.3282  0.0774
 5817TIP3    H138866   3.203   2.995   3.515  1.7519 -2.5731  0.3649
 5817TIP3    H238867   3.250   2.974   3.657 -1.1076 -3.3938  1.2018
 5818TIP3   OH238868   5.544   1.309  13.626 -0.1817 -0.4178 -0.2360
 5818TIP3    H138869   5.556   1.311  13.531  1.2574  0.7710 -0.0603
 5818TIP3    H238870   5.460   1.353  13.641 -1.2794 -2.1822 -1.0486
 5819TIP3   OH238871   3.583   5.496  12.768 -0.0743 -0.1542 -0.4027
 5819TIP3    H138872   3.577   5.533  12.856 -0.3454 -1.6852  0.2498
 5819TIP3    H238873   3.589   5.401  12.783  0.5777 -0.3800 -2.0065
 5820TIP3   OH238874   2.001   2.582   4.009 -0.5385 -0.2681 -0.1636
 5820TIP3    H138875   2.000   2.525   3.932  0.1183 -0.3043 -0.1434
 5820TIP3    H238876   1.985   2.670   3.974  1.6062 -0.0092 -0.5735
 5821TIP3   OH238877   4.716   4.831  13.904  0.1989  0.1328 -0.0117
 5821TIP3    H138878   4.686   4.868  13.821  0.3543  0.7135  0.1884
 5821TIP3    H238879   4.808   4.809  13.889  0.4148  0.8600  0.2084
 5822TIP3   OH238880   6.391   6.282   6.005 -0.4073  0.2671  0.3487
 5822TIP3    H138881   6.466   6.232   5.971 -0.5272  0.3740 -0.0753
 5822TIP3    H238882   6.340   6.218   6.054 -0.0259  0.1984  0.6560
 5823TIP3   OH238883   6.182   0.056  13.415 -0.3431  0.5455  0.3836
 5823TIP3    H138884   6.236   0.002  13.472  0.1760  0.8375  0.1624
 5823TIP3    H238885   6.098   0.010  13.412  0.1678 -0.3651  0.0128
 5824TIP3   OH238886   6.525   2.584  12.717 -0.3000  0.1359  0.3859
 5824TIP3    H138887   6.456   2.592  12.651  0.4351  2.1062 -0.1911
 5824TIP3    H238888   6.572   2.504  12.693 -0.0972  0.7897 -1.4530
 5825TIP3   OH238889   2.953   6.640   4.408  0.4707 -0.0683 -0.4057
 5825TIP3    H138890   2.914   6.625   4.494  1.0787 -0.1149 -0.1377
 5825TIP3    H238891   3.043   6.666   4.426  1.0315 -1.4650 -1.0768
 5826TIP3   OH238892   6.318   1.237  13.191 -0.0206  0.5215 -0.9183
 5826TIP3    H138893   6.403   1.268  13.220  1.1813 -1.2076 -2.5044
 5826TIP3    H238894   6.286   1.306  13.132  1.2251  0.2300 -1.9621
 5827TIP3   OH238895   0.502   0.310   2.820 -0.3927  0.0730 -0.0114
 5827TIP3    H138896   0.459   0.363   2.753 -0.2198 -1.5184 -1.4157
 5827TIP3    H238897   0.547   0.241   2.771  2.0243  0.4619  1.5580
 5828TIP3   OH238898   2.544   0.555  15.966 -0.4346 -0.1277  0.2854
 5828TIP3    H138899   2.493   0.635  15.977 -1.4209 -0.5884 -0.8866
 5828TIP3    H238900   2.588   0.567  15.881 -0.3582 -0.7011  0.2461
 5829TIP3   OH238901   6.716   4.204   3.212 -0.4443 -0.1476 -0.6837
 5829TIP3    H138902   6.755   4.243   3.134 -3.5633  0.3321 -2.0796
 5829TIP3    H238903   6.725   4.110   3.199  0.9332 -0.0465 -0.5712
 5830TIP3   OH238904   0.422   0.656  12.438 -0.0780 -0.0767  0.3036
 5830TIP3    H138905   0.426   0.674  12.532 -0.3383  1.3132  0.0618
 5830TIP3    H238906   0.349   0.595  12.428 -0.5749  0.4187  0.9118
 5831TIP3   OH238907   4.672   1.886  15.573 -0.0612 -0.2121 -0.1765
 5831TIP3    H138908   4.750   1.893  15.629  0.4628 -1.2758 -0.7482
 5831TIP3    H238909   4.659   1.792  15.562  0.1622 -0.0173 -2.2729
 5832TIP3   OH238910   6.090   6.312   6.356  0.2243 -0.5648  0.4800
 5832TIP3    H138911   6.123   6.373   6.421  1.4528  0.1995 -0.8416
 5832TIP3    H238912   6.128   6.228   6.381  3.0713  0.2680 -0.9158
 5833TIP3   OH238913   0.421   2.835  15.945 -0.0611 -0.5664  0.5084
 5833TIP3    H138914   0.469   2.904  15.991  1.2745 -1.2773  0.2207
 5833TIP3    H238915   0.373   2.880  15.876 -0.4572  0.2673  1.3284
 5834TIP3   OH238916   2.425   3.306   2.036  0.0637  0.0333  0.1727
 5834TIP3    H138917   2.518   3.329   2.037  0.0175  0.2091  0.4784
 5834TIP3    H238918   2.415   3.253   1.957  0.1512  1.1879 -0.6268
 5835TIP3   OH238919   2.659   3.451  12.021 -0.3622 -0.0411  0.2856
 5835TIP3    H138920   2.629   3.506  12.093  1.2372  0.6461  0.4337
 5835TIP3    H238921   2.579   3.430  11.972 -0.8538  3.5839 -0.6021
 5836TIP3   OH238922   6.248   5.302  13.352  0.3223  0.4176  0.4287
 5836TIP3    H138923   6.334   5.264  13.337 -0.2735 -0.4995 -0.7894
 5836TIP3    H238924   6.233   5.293  13.446  1.6571  0.8178  0.6881
 5837TIP3   OH238925   6.731   4.878  12.048  0.3269 -0.4770  0.3463
 5837TIP3    H138926   6.794   4.870  11.977 -1.0459  0.9869 -1.0652
 5837TIP3    H238927   6.738   4.969  12.077  1.6663 -1.3211  2.8692
 5838TIP3   OH238928   2.725   4.343  12.059 -0.5745  0.2496 -0.1136
 5838TIP3    H138929   2.683   4.411  12.111 -1.4301  0.7157 -1.3926
 5838TIP3    H238930   2.653   4.286  12.032 -0.1359 -0.0006 -0.7577
 5839TIP3   OH238931   2.860   3.508   2.290  0.3328  0.3508 -0.7422
 5839TIP3    H138932   2.868   3.498   2.385  0.1763 -1.7912 -0.9385
 5839TIP3    H238933   2.931   3.569   2.267  0.4479  0.8015  0.7095
 5840TIP3   OH238934   4.167   2.695  15.144  0.6004  0.0496  0.4962
 5840TIP3    H138935   4.240   2.746  15.180  0.3075  0.1356  0.9765
 5840TIP3    H238936   4.161   2.618  15.202 -1.0648  1.1028  1.7694
 5841TIP3   OH238937   6.098   2.474   3.108 -0.3036 -0.1156 -0.3236
 5841TIP3    H138938   6.124   2.390   3.069  1.7937  0.6541 -0.6628
 5841TIP3    H238939   6.071   2.451   3.197 -0.3483 -1.2461 -0.6188
 5842TIP3   OH238940   0.336   3.611  15.819 -0.1144 -1.2145  0.1797
 5842TIP3    H138941   0.388   3.538  15.852 -1.0181 -2.1178 -0.3401
 5842TIP3    H238942   0.399   3.681  15.804  0.9279 -2.2588 -0.3895
 5843TIP3   OH238943   6.035   1.076  11.873  0.1494  0.2406  0.0461
 5843TIP3    H138944   6.074   1.126  11.945 -3.1686 -0.1449  2.2104
 5843TIP3    H238945   6.037   0.985  11.903 -1.2654  0.0802 -0.2937
 5844TIP3   OH238946   1.299   2.625  16.069 -0.2603 -0.3164 -0.4205
 5844TIP3    H138947   1.339   2.616  16.156  0.0233 -4.6685 -0.8579
 5844TIP3    H238948   1.223   2.682  16.083 -0.3443 -1.0895  2.7508
 5845TIP3   OH238949   1.687   0.173   3.012 -0.0117  0.2991  0.1812
 5845TIP3    H138950   1.734   0.222   2.945 -1.5081  3.0891  1.1190
 5845TIP3    H238951   1.737   0.188   3.092 -1.6039  2.0792  0.8870
 5846TIP3   OH238952   5.008   2.826  14.670 -0.1482  0.0252  0.1071
 5846TIP3    H138953   5.027   2.918  14.690 -0.3474 -0.1003  0.8868
 5846TIP3    H238954   5.023   2.819  14.576  1.5436  0.4584  0.3189
 5847TIP3   OH238955   4.410   6.300  14.998 -0.0955  0.5753 -0.5787
 5847TIP3    H138956   4.399   6.209  15.024  2.5447  0.7519  1.4670
 5847TIP3    H238957   4.496   6.303  14.956 -0.3135  2.0648 -0.9684
 5848TIP3   OH238958   2.299   5.881  16.312 -0.0533 -0.2125  0.4159
 5848TIP3    H138959   2.365   5.812  16.305  1.5861  1.2161  1.3591
 5848TIP3    H238960   2.295   5.900  16.406 -0.1309  1.3118  0.1116
 5849TIP3   OH238961   4.232   4.912   4.247  0.1605  0.5513  0.7176
 5849TIP3    H138962   4.324   4.927   4.227  0.4821 -2.7094 -0.5749
 5849TIP3    H238963   4.225   4.817   4.258 -3.6026  0.3483 -2.3366
 5850TIP3   OH238964   5.643   3.780  11.915  0.2227 -0.3617 -0.3939
 5850TIP3    H138965   5.697   3.823  11.981 -2.0170 -1.3105  2.1322
 5850TIP3    H238966   5.599   3.852  11.870  3.4622  0.4275 -2.4874
 5851TIP3   OH238967   3.583   3.073   4.363 -0.1290 -0.5050 -0.1958
 5851TIP3    H138968   3.570   2.985   4.328  0.5555 -0.7159  0.0786
 5851TIP3    H238969   3.678   3.083   4.369 -0.1568  1.0588 -2.2209
 5852TIP3   OH238970   1.143   1.420   3.870  0.2679  0.3615 -0.4083
 5852TIP3    H138971   1.049   1.440   3.864  0.2646  0.3085 -0.5472
 5852TIP3    H238972   1.171   1.413   3.779  0.4130  0.4020 -0.3666
 5853TIP3   OH238973   4.704   1.421   2.197  0.4436  0.1075  0.8018
 5853TIP3    H138974   4.636   1.468   2.246  0.8359 -1.5944  3.0100
 5853TIP3    H238975   4.681   1.329   2.206  3.0611 -0.4993  1.5992
 5854TIP3   OH238976   1.106   2.163   0.911 -0.1132  0.2682 -0.4545
 5854TIP3    H138977   1.038   2.177   0.845 -0.1142 -0.9836 -0.7368
 5854TIP3    H238978   1.118   2.249   0.952 -1.0908  0.7443 -1.1393
 5855TIP3   OH238979   1.831   1.815  16.833 -0.2053 -0.0818  0.6151
 5855TIP3    H138980   1.834   1.823  16.737  2.3574  2.5338  0.8526
 5855TIP3    H238981   1.759   1.754  16.849 -1.1448 -0.0454 -2.9489
 5856TIP3   OH238982   1.349   3.179   3.971  0.0208  0.7452 -0.5874
 5856TIP3    H138983   1.429   3.160   4.019 -1.3294 -0.6052  1.1953
 5856TIP3    H238984   1.350   3.117   3.897 -1.7154 -2.7774  2.1819
 5857TIP3   OH238985   6.474   2.321   2.218 -0.5539 -0.0296  0.1341
 5857TIP3    H138986   6.562   2.335   2.185 -0.1718  0.0014  1.1506
 5857TIP3    H238987   6.429   2.404   2.204 -0.8329 -0.4475 -1.5914
 5858TIP3   OH238988   6.082   1.988   4.006 -0.1128 -0.1728  0.0798
 5858TIP3    H138989   5.990   2.005   3.989  0.1077  0.6945 -0.2846
 5858TIP3    H238990   6.128   2.060   3.962  0.6813 -0.0806  1.0493
 5859TIP3   OH238991   1.123   5.662  10.951  0.4818  0.2618  0.2114
 5859TIP3    H138992   1.074   5.724  11.005  1.1069  0.9197  0.0429
 5859TIP3    H238993   1.143   5.589  11.009 -1.9790 -0.7259 -0.1128
 5860TIP3   OH238994   2.957   5.143  15.699  0.3323 -0.6649 -0.1910
 5860TIP3    H138995   2.964   5.048  15.685  2.0907 -0.8931  1.9534
 5860TIP3    H238996   3.021   5.162  15.767 -0.1293  2.0642 -0.4566
 5861TIP3   OH238997   1.613   4.616   5.445 -0.3002 -1.0616  0.7042
 5861TIP3    H138998   1.669   4.621   5.522 -3.2253  0.2166  2.8319
 5861TIP3    H238999   1.670   4.641   5.372  1.8901  0.2170  2.7935
 5862TIP3   OH239000   0.920   4.427   4.562  0.3302 -0.2475 -0.6169
 5862TIP3    H139001   0.917   4.497   4.627  0.0087 -0.3463 -0.5204
 5862TIP3    H239002   1.012   4.418   4.539  0.5590 -0.8138  0.4846
 5863TIP3   OH239003   1.649   3.186   1.180 -0.3973 -0.0454 -0.6077
 5863TIP3    H139004   1.733   3.157   1.214 -0.2236  0.9986 -0.1143
 5863TIP3    H239005   1.626   3.262   1.234 -1.4990 -0.1295 -0.9469
 5864TIP3   OH239006   5.942   6.519   3.263  0.0294 -0.2306  0.1260
 5864TIP3    H139007   6.019   6.546   3.214  0.7478 -0.5076  1.0870
 5864TIP3    H239008   5.878   6.495   3.196  0.4766  0.7974 -0.6870
 5865TIP3   OH239009   0.144   5.804  12.382  0.1305 -0.9356 -0.5963
 5865TIP3    H139010   0.099   5.720  12.386 -0.6135 -0.5354 -0.6068
 5865TIP3    H239011   0.174   5.812  12.291 -0.6447 -0.7415 -0.8322
 5866TIP3   OH239012   0.355   5.670  13.382 -0.7844 -0.2428  0.2599
 5866TIP3    H139013   0.413   5.691  13.455 -1.7004 -0.7029  1.1200
 5866TIP3    H239014   0.306   5.751  13.366 -0.4535 -0.0861  0.0244
 5867TIP3   OH239015   4.248   2.744   2.341 -0.2384  0.4996  0.7479
 5867TIP3    H139016   4.203   2.723   2.423 -0.4360 -0.6462  0.3520
 5867TIP3    H239017   4.180   2.779   2.284 -0.5336 -0.7483  0.3267
 5868TIP3   OH239018   6.201   5.894  15.000 -0.3973 -0.2497 -0.0314
 5868TIP3    H139019   6.211   5.912  15.094 -1.2330 -0.7124  0.1549
 5868TIP3    H239020   6.114   5.928  14.979  0.3177  1.0157 -0.9303
 5869TIP3   OH239021   6.296   4.052   0.072  0.0934  0.5741  0.2527
 5869TIP3    H139022   6.319   3.963   0.049  0.0566  0.9693 -1.3677
 5869TIP3    H239023   6.358   4.107   0.023 -2.6549  1.5630 -2.2876
 5870TIP3   OH239024   0.124   1.356   4.512 -0.1300 -0.2007  0.1503
 5870TIP3    H139025   0.104   1.338   4.421  0.5999 -1.8900  0.2929
 5870TIP3    H239026   0.048   1.404   4.545 -0.9296 -0.6435 -1.0230
 5871TIP3   OH239027   4.963   1.522  12.516  0.0478 -0.0441 -0.4987
 5871TIP3    H139028   4.998   1.440  12.481  0.1954  0.8206 -2.4218
 5871TIP3    H239029   4.936   1.500  12.606  4.3981 -1.0181  0.6841
 5872TIP3   OH239030   6.663   0.493   4.454 -0.2722 -0.3362 -0.3299
 5872TIP3    H139031   6.670   0.474   4.361 -0.6833 -0.2225 -0.3889
 5872TIP3    H239032   6.733   0.443   4.495 -0.9620 -1.4820 -0.5439
 5873TIP3   OH239033   2.448   4.154  14.293 -0.0843  0.3432  0.1053
 5873TIP3    H139034   2.358   4.130  14.271  0.0896  1.2696 -1.6908
 5873TIP3    H239035   2.467   4.229  14.238  0.9273  1.7779  2.3553
 5874TIP3   OH239036   1.464   3.666   5.825 -0.1456 -0.2339 -0.0095
 5874TIP3    H139037   1.518   3.663   5.745 -0.8265  1.6187 -0.5553
 5874TIP3    H239038   1.374   3.673   5.794 -0.4001  0.7752  0.9152
 5875TIP3   OH239039   4.546   2.206  16.902 -0.6704 -0.3573 -0.2912
 5875TIP3    H139040   4.563   2.123  16.946 -1.0600  0.2787  1.0913
 5875TIP3    H239041   4.497   2.183  16.823 -1.5807 -1.3597  0.5599
 5876TIP3   OH239042   0.127   2.801  13.738 -0.2845 -0.5573  0.3351
 5876TIP3    H139043   0.089   2.888  13.747  0.6389 -0.1384  0.2081
 5876TIP3    H239044   0.187   2.792  13.812 -1.3515 -1.6041  1.0996
 5877TIP3   OH239045   3.031   3.660  15.023 -0.5694 -0.7902  0.1950
 5877TIP3    H139046   3.109   3.679  14.971 -1.4410  2.2062 -0.1494
 5877TIP3    H239047   3.012   3.743  15.067 -2.1215 -2.1875  2.2228
 5878TIP3   OH239048   1.846   5.647  14.756 -0.6328 -0.0231 -0.3850
 5878TIP3    H139049   1.905   5.631  14.683 -1.6848 -0.7018 -1.1060
 5878TIP3    H239050   1.768   5.595  14.735 -0.8289 -0.4551  1.3625
 5879TIP3   OH239051   3.968   5.202   2.281 -0.1398 -0.1911 -0.1635
 5879TIP3    H139052   3.956   5.244   2.366 -1.1417  2.8594 -1.7069
 5879TIP3    H239053   4.041   5.251   2.241  0.1414 -1.3905 -1.1474
 5880TIP3   OH239054   5.587   5.019  13.714 -0.0372 -0.1930  0.1021
 5880TIP3    H139055   5.570   5.097  13.768  0.1757  0.3584 -0.6254
 5880TIP3    H239056   5.651   5.048  13.650 -0.7167 -0.6946 -0.8044
 5881TIP3   OH239057   1.726   5.380  14.064  0.1185 -0.2305 -0.4578
 5881TIP3    H139058   1.679   5.414  14.141  0.9601 -0.8541  0.3307
 5881TIP3    H239059   1.812   5.354  14.097  0.9539  0.6838 -1.8559
 5882TIP3   OH239060   5.211   1.075  14.402 -0.2252  0.3482 -0.0276
 5882TIP3    H139061   5.244   0.985  14.393 -0.7428  0.0291  1.1563
 5882TIP3    H239062   5.237   1.101  14.490 -0.7702  1.0796 -0.0817
 5883TIP3   OH239063   5.829   1.015  11.005 -0.3289 -0.1233  0.4854
 5883TIP3    H139064   5.901   0.955  10.986  1.1671  1.2455  1.6701
 5883TIP3    H239065   5.751   0.972  10.968  1.2615 -1.0211 -1.9212
 5884TIP3   OH239066   0.170   5.472  15.977 -0.2660  0.2906  0.1166
 5884TIP3    H139067   0.235   5.479  16.046 -1.3521 -0.8674  1.2715
 5884TIP3    H239068   0.138   5.562  15.965 -0.5757  0.3799  1.6014
 5885TIP3   OH239069   4.582   6.401   6.278 -0.3083 -0.0165 -0.0449
 5885TIP3    H139070   4.670   6.384   6.310 -0.5548  1.2706  1.3286
 5885TIP3    H239071   4.574   6.346   6.199  2.5027  1.5657 -1.4893
 5886TIP3   OH239072   0.517   2.032   2.845 -0.3887  0.5866  0.7814
 5886TIP3    H139073   0.446   1.996   2.898 -0.6592  0.4308  0.3162
 5886TIP3    H239074   0.474   2.068   2.768  0.2438 -1.6390 -0.6447
 5887TIP3   OH239075   3.273   2.597   3.112  0.1057 -0.1822 -0.9917
 5887TIP3    H139076   3.185   2.633   3.128 -1.1788 -3.2458 -0.7621
 5887TIP3    H239077   3.279   2.591   3.016 -0.4718 -1.1835 -0.9716
 5888TIP3   OH239078   2.576   4.006   5.947  0.6077  0.3559 -0.3398
 5888TIP3    H139079   2.546   3.922   5.910  0.2653  0.8062 -1.0872
 5888TIP3    H239080   2.598   3.985   6.038  0.8767 -0.6288 -0.6234
 5889TIP3   OH239081   0.667   1.433   1.938  0.8910  0.0283 -0.1113
 5889TIP3    H139082   0.702   1.505   1.886 -0.5661  2.2782  1.9226
 5889TIP3    H239083   0.590   1.404   1.890  0.6491  0.7981 -0.1890
 5890TIP3   OH239084   1.481   1.851  16.524  0.0039 -0.4106  0.4522
 5890TIP3    H139085   1.539   1.927  16.532  0.0988 -0.1481 -2.4026
 5890TIP3    H239086   1.539   1.775  16.535  0.6533 -0.1250 -0.9395
 5891TIP3   OH239087   0.064   3.386  14.771 -0.0798  0.1787 -0.1622
 5891TIP3    H139088   0.111   3.415  14.693 -0.3983 -1.0807 -0.8431
 5891TIP3    H239089  -0.021   3.430  14.765  1.0650  2.6939  1.2285
 5892TIP3   OH239090   2.178   1.105   6.577  0.3531 -0.4344 -0.3995
 5892TIP3    H139091   2.268   1.132   6.562  0.3235 -0.7370 -1.1389
 5892TIP3    H239092   2.126   1.181   6.551  0.3919 -0.2601  0.0263
 5893TIP3   OH239093   2.749   0.879   2.230  0.6346  0.0810  0.7635
 5893TIP3    H139094   2.782   0.956   2.276 -0.2275 -0.2522  1.9705
 5893TIP3    H239095   2.744   0.811   2.298 -2.1664  0.0367  0.5544
 5894TIP3   OH239096   2.769   5.345  13.128 -0.1501 -0.5030  0.0226
 5894TIP3    H139097   2.747   5.384  13.212 -1.9746 -1.7181  0.1436
 5894TIP3    H239098   2.822   5.269  13.150  1.3913  0.5224 -0.0791
 5895TIP3   OH239099   1.225   5.042   5.685  0.1857 -0.4852 -0.0015
 5895TIP3    H139100   1.233   4.955   5.723 -0.8787 -0.1756  0.9434
 5895TIP3    H239101   1.203   5.099   5.759  0.3148  0.4946 -0.7006
 5896TIP3   OH239102   2.707   4.273   6.612  0.2951  0.4784  0.5076
 5896TIP3    H139103   2.648   4.290   6.686 -1.2570  1.2553 -0.8844
 5896TIP3    H239104   2.674   4.329   6.542  1.2395 -0.8774 -1.0406
 5897TIP3   OH239105   3.824   2.447   5.293  0.2209  0.1717  0.3178
 5897TIP3    H139106   3.789   2.382   5.233  1.3827 -0.7238  0.6049
 5897TIP3    H239107   3.898   2.485   5.247 -0.6912  1.6128 -0.0198
 5898TIP3   OH239108   2.935   5.602   4.041  0.1679 -0.2187 -0.3116
 5898TIP3    H139109   2.965   5.530   3.986  2.8912 -0.7404  1.7380
 5898TIP3    H239110   2.993   5.675   4.019 -0.4840  0.3863 -0.0606
 5899TIP3   OH239111   0.095   0.905   4.654  0.0295  0.1045 -0.0397
 5899TIP3    H139112   0.155   0.949   4.594 -0.7059 -1.0803 -1.6456
 5899TIP3    H239113   0.073   0.823   4.611 -1.2073 -0.3608  1.4412
 5900TIP3   OH239114   1.562   5.852   5.945 -0.0899  0.2290  0.7861
 5900TIP3    H139115   1.515   5.841   6.027  0.0196 -2.2912  0.5566
 5900TIP3    H239116   1.574   5.763   5.912  0.7451  1.1323 -1.4679
 5901TIP3   OH239117   0.704   0.345  11.879 -0.0827 -0.2464  0.0471
 5901TIP3    H139118   0.683   0.252  11.884  1.6235 -0.7179 -1.2004
 5901TIP3    H239119   0.785   0.354  11.930 -0.3653  0.5958  0.3542
 5902TIP3   OH239120   5.245   4.560  14.809  0.0111  0.5959  0.3684
 5902TIP3    H139121   5.212   4.649  14.812  0.0106  0.6267 -0.5538
 5902TIP3    H239122   5.233   4.532  14.718 -0.6973 -0.6085  0.8188
 5903TIP3   OH239123   6.238   5.633   4.030  0.6163  0.0324  0.2949
 5903TIP3    H139124   6.213   5.569   3.962 -2.8303  1.8501 -0.2950
 5903TIP3    H239125   6.242   5.582   4.110 -0.7929 -1.1971 -0.3846
 5904TIP3   OH239126   5.198   0.572   6.284 -0.3101 -0.1623 -0.8671
 5904TIP3    H139127   5.278   0.524   6.306 -0.9389 -0.5201  0.6959
 5904TIP3    H239128   5.173   0.540   6.198  0.7171 -0.7347 -0.9524
 5905TIP3   OH239129   1.292   1.748   0.896  0.2209 -0.4389  0.5412
 5905TIP3    H139130   1.293   1.844   0.890 -1.1689 -0.4426  0.1397
 5905TIP3    H239131   1.275   1.730   0.988 -1.3572 -0.2909  0.2809
 5906TIP3   OH239132   2.244   2.049  14.679 -0.3884 -0.0316 -0.3820
 5906TIP3    H139133   2.261   2.051  14.584 -0.7400  0.7066 -0.4277
 5906TIP3    H239134   2.154   2.079  14.688 -0.0840  0.7048  0.2580
 5907TIP3   OH239135   6.303   3.019  12.938 -0.1465  0.1518  0.2808
 5907TIP3    H139136   6.383   2.971  12.959 -0.4160  0.2281  1.5570
 5907TIP3    H239137   6.325   3.071  12.861  0.4130 -1.3504 -0.6037
 5908TIP3   OH239138   6.117   3.997  15.284 -0.0314  0.1734  0.1714
 5908TIP3    H139139   6.062   3.919  15.290 -0.0548  0.1428 -0.4200
 5908TIP3    H239140   6.056   4.068  15.262  0.0337  0.3013  0.3989
 5909TIP3   OH239141   4.886   3.801  13.010 -0.4680  0.5890 -0.0204
 5909TIP3    H139142   4.864   3.894  13.019 -0.0397  0.6657  0.2555
 5909TIP3    H239143   4.982   3.799  13.010 -0.4238 -0.1048  2.8565
 5910TIP3   OH239144   1.235   2.786  12.412  0.1463  0.0133  0.1304
 5910TIP3    H139145   1.305   2.726  12.388  1.8641  1.7234  0.7077
 5910TIP3    H239146   1.248   2.802  12.506  0.0945  1.7129 -0.1298
 5911TIP3   OH239147   1.287   4.175   6.090  0.1341 -0.5654 -0.1295
 5911TIP3    H139148   1.368   4.126   6.108  2.7378  3.2375 -0.9130
 5911TIP3    H239149   1.268   4.155   5.998  2.4813  1.5577 -1.1344
 5912TIP3   OH239150   4.710   0.961  14.829 -0.0166  0.6752  0.3694
 5912TIP3    H139151   4.803   0.942  14.817 -0.4039 -0.3489 -1.0426
 5912TIP3    H239152   4.667   0.875  14.827 -0.9280  1.0838  1.6523
 5913TIP3   OH239153   3.535   4.088  15.263 -0.3506 -0.7495  0.2775
 5913TIP3    H139154   3.588   4.100  15.342  0.0981 -0.3104 -0.0825
 5913TIP3    H239155   3.582   4.138  15.196 -1.6682  0.3368  0.1445
 5914TIP3   OH239156   2.439   3.279  13.611 -0.2965  0.3087  0.3932
 5914TIP3    H139157   2.350   3.314  13.620 -0.0270  0.7898  1.2648
 5914TIP3    H239158   2.487   3.317  13.685  0.6138 -0.0141 -0.0295
 5915TIP3   OH239159   4.798   2.834   5.474  0.3397 -0.0214  1.3068
 5915TIP3    H139160   4.860   2.902   5.448 -0.3006  0.4575  1.0409
 5915TIP3    H239161   4.761   2.864   5.557  0.0247 -0.0244  1.1691
 5916TIP3   OH239162   6.009   5.967   4.240 -0.0242  0.0245 -0.1594
 5916TIP3    H139163   5.934   5.914   4.216 -1.8656  3.4056 -2.2404
 5916TIP3    H239164   5.980   6.016   4.317  1.1399 -0.8035  0.8383
 5917TIP3   OH239165   2.579   1.614  11.984 -0.7880 -0.1183  0.0188
 5917TIP3    H139166   2.636   1.539  12.003 -0.8324 -0.3850 -0.8942
 5917TIP3    H239167   2.597   1.675  12.056  0.6019 -0.2205 -0.2206
 5918TIP3   OH239168   5.278   2.517   5.334  0.8681  0.2599 -0.3709
 5918TIP3    H139169   5.276   2.573   5.412  0.0599  0.2880 -0.4126
 5918TIP3    H239170   5.323   2.570   5.268 -0.9669  1.3444 -0.7827
 5919TIP3   OH239171   3.256   2.417  15.440  0.1931 -0.1955  0.3418
 5919TIP3    H139172   3.284   2.402  15.350  0.8053  0.7587  0.3646
 5919TIP3    H239173   3.288   2.505  15.461  1.0192 -0.8274  1.8487
 5920TIP3   OH239174   3.646   2.060  13.831  0.0651  0.3781 -0.0875
 5920TIP3    H139175   3.684   2.093  13.749  0.0502 -0.4396 -0.4287
 5920TIP3    H239176   3.698   1.982  13.852  0.7947  1.2120  1.2821
 5921TIP3   OH239177   5.644   3.120  10.963  0.5424 -0.2917  0.4633
 5921TIP3    H139178   5.640   3.083  11.051  0.5388  2.6056  1.7397
 5921TIP3    H239179   5.553   3.131  10.937  0.5414 -0.4097  0.4160
 5922TIP3   OH239180   5.004   0.440   0.215  0.3466  0.2600  0.0471
 5922TIP3    H139181   4.987   0.370   0.279 -0.7493 -0.0662 -0.6010
 5922TIP3    H239182   5.002   0.520   0.267  0.9133 -0.1232  0.6739
 5923TIP3   OH239183   0.011   0.311   5.347 -0.0332  0.3898  0.4169
 5923TIP3    H139184   0.068   0.386   5.329  0.3792 -0.6385 -2.8139
 5923TIP3    H239185   0.062   0.235   5.318 -0.3545 -1.2076  3.8538
 5924TIP3   OH239186   6.532   5.193  16.926 -0.0170 -0.0909 -0.5232
 5924TIP3    H139187   6.498   5.282  16.936  2.4158  0.7582  0.6977
 5924TIP3    H239188   6.533   5.178  16.832 -0.7635  1.0331 -0.7256
 5925TIP3   OH239189   2.076   6.490   4.928 -0.6984 -0.0197  0.1503
 5925TIP3    H139190   2.032   6.561   4.975  1.1046  0.0418  1.8137
 5925TIP3    H239191   2.004   6.432   4.900 -1.8446 -0.1222  3.1265
 5926TIP3   OH239192   5.670   2.198   4.902 -0.4879  0.2658 -0.4172
 5926TIP3    H139193   5.696   2.110   4.875 -0.1566 -0.1569  1.2655
 5926TIP3    H239194   5.583   2.188   4.940 -0.8928  0.8440 -1.1681
 5927TIP3   OH239195   4.645   6.676   6.187  0.1133 -0.3743 -0.4773
 5927TIP3    H139196   4.625   6.589   6.220 -0.0413  0.2359  1.0591
 5927TIP3    H239197   4.691   6.719   6.259  1.9101  0.1712 -1.9092
 5928TIP3   OH239198   5.332   6.628   4.901 -0.4891 -0.0381 -0.7656
 5928TIP3    H139199   5.341   6.564   4.830  1.2312  0.9839 -1.4947
 5928TIP3    H239200   5.308   6.710   4.857  0.7321  0.6364 -0.1953
 5929TIP3   OH239201   4.607   2.087   0.232 -0.3194 -0.4440  0.5621
 5929TIP3    H139202   4.524   2.115   0.195 -1.0914 -1.2575  1.6377
 5929TIP3    H239203   4.636   2.016   0.174 -0.2719 -0.0382  0.0816
 5930TIP3   OH239204   0.857   3.383  16.961  0.2960  0.1603 -0.0274
 5930TIP3    H139205   0.925   3.427  16.910 -0.8339  2.1943  0.1237
 5930TIP3    H239206   0.869   3.290  16.944  0.4029  0.7424 -3.4666
 5931TIP3   OH239207   4.876   4.687   5.009  0.1534  0.2505  0.4550
 5931TIP3    H139208   4.930   4.624   4.961 -1.0782  1.1662 -2.2272
 5931TIP3    H239209   4.927   4.768   5.006 -0.6347  0.7136 -0.7153
 5932TIP3   OH239210   6.169   4.101   6.160  0.0300 -0.2573 -0.5090
 5932TIP3    H139211   6.161   4.006   6.149  0.3704 -0.3398 -0.0749
 5932TIP3    H239212   6.262   4.114   6.181 -0.4637 -0.0411  1.5757
 5933TIP3   OH239213   4.006   1.384   4.581 -0.2898  0.2799 -0.8517
 5933TIP3    H139214   4.002   1.456   4.643  2.5875 -0.3616  0.1480
 5933TIP3    H239215   4.097   1.383   4.551 -0.4446 -2.4943 -1.3682
 5934TIP3   OH239216   6.585   2.987  12.983 -0.0006 -0.3666  0.2728
 5934TIP3    H139217   6.644   3.005  13.056 -1.7430 -1.7387  2.0703
 5934TIP3    H239218   6.606   2.898  12.956 -0.6003 -0.5261  0.3219
 5935TIP3   OH239219   3.811   0.378   6.121  0.0804  0.5230  0.2657
 5935TIP3    H139220   3.750   0.367   6.048  0.5233  1.4149 -0.2394
 5935TIP3    H239221   3.758   0.420   6.189  0.2688  1.8136 -0.3729
 5936TIP3   OH239222   4.273   4.347   4.500  0.3816 -0.0349 -0.2246
 5936TIP3    H139223   4.306   4.431   4.533 -0.6049 -0.6946  2.5831
 5936TIP3    H239224   4.343   4.285   4.519 -1.0321 -0.8192  2.7573
 5937TIP3   OH239225   2.097   1.695   5.160 -0.1397  0.1298  0.1018
 5937TIP3    H139226   2.012   1.702   5.203 -0.4031  0.3951 -0.4527
 5937TIP3    H239227   2.160   1.716   5.228 -0.5945  1.3744  0.1616
 5938TIP3   OH239228   5.211   5.288   3.189 -0.0230  0.1983 -0.2321
 5938TIP3    H139229   5.253   5.330   3.114 -0.9043  0.7406 -0.4274
 5938TIP3    H239230   5.119   5.283   3.166 -0.5709  1.8285  1.4756
 5939TIP3   OH239231   6.685   1.309   4.323  0.3791 -0.0348 -0.0817
 5939TIP3    H139232   6.691   1.225   4.368 -2.0780 -0.6442 -0.8313
 5939TIP3    H239233   6.628   1.362   4.378  0.3088  0.4507 -0.6151
 5940TIP3   OH239234   2.530   4.706   1.240  0.7347 -0.5147 -0.1945
 5940TIP3    H139235   2.498   4.656   1.166 -1.3456 -1.2264  1.1546
 5940TIP3    H239236   2.456   4.759   1.269  1.6745  0.1952  1.0065
 5941TIP3   OH239237   3.535   2.879  14.120  0.2438  0.2627 -0.0798
 5941TIP3    H139238   3.497   2.850  14.037 -0.8913 -1.4059  1.0023
 5941TIP3    H239239   3.577   2.962  14.099 -0.0822 -0.1058 -2.3142
 5942TIP3   OH239240   3.567   0.315   3.657  0.7974 -0.2242 -0.1756
 5942TIP3    H139241   3.532   0.368   3.729 -1.7107 -0.0365 -1.4459
 5942TIP3    H239242   3.524   0.230   3.668  1.1762 -0.5014 -0.8621
 5943TIP3   OH239243   2.757   2.914  15.934 -0.4530 -0.2866  0.1792
 5943TIP3    H139244   2.757   2.908  16.030  1.5974  1.3210  0.3259
 5943TIP3    H239245   2.673   2.953  15.913 -0.8905 -0.5734  1.3405
 5944TIP3   OH239246   1.652   1.464   4.888 -0.3781 -0.0170 -0.5855
 5944TIP3    H139247   1.629   1.534   4.948  0.7700  0.4485 -0.6795
 5944TIP3    H239248   1.584   1.467   4.821  0.0613  1.4901 -0.9855
 5945TIP3   OH239249   6.749   2.740  16.900 -0.2835  0.0556 -0.5235
 5945TIP3    H139250   6.840   2.741  16.869 -0.4380  1.8299 -1.0065
 5945TIP3    H239251   6.699   2.707  16.825 -0.1862  0.4066 -0.7451
 5946TIP3   OH239252   5.831   3.491  17.046  0.4071 -0.3946 -0.1479
 5946TIP3    H139253   5.743   3.465  17.074  1.5472 -2.4689  1.6195
 5946TIP3    H239254   5.868   3.412  17.006  1.7296  0.2543 -0.2434
 5947TIP3   OH239255   2.522   2.565   3.538 -0.4142 -0.4641  0.4845
 5947TIP3    H139256   2.538   2.624   3.464  1.7283  3.5618  3.9030
 5947TIP3    H239257   2.428   2.572   3.555 -0.3927  1.0874  0.0744
 5948TIP3   OH239258   2.744   6.690  16.071 -0.4460  0.5538  0.0127
 5948TIP3    H139259   2.822   6.703  16.016 -1.5671 -0.0206 -1.7589
 5948TIP3    H239260   2.723   6.777  16.103  0.7430  0.7651  0.2572
 5949TIP3   OH239261   2.006   2.204   2.868 -0.5801  0.5937 -0.5854
 5949TIP3    H139262   2.047   2.136   2.815 -0.0100  2.0528 -2.0546
 5949TIP3    H239263   2.032   2.184   2.958 -1.8175 -2.0953 -0.7843
 5950TIP3   OH239264   1.393   1.084  11.950  0.3734  0.2208 -0.0343
 5950TIP3    H139265   1.340   1.099  11.872  0.7078  0.5836 -0.1952
 5950TIP3    H239266   1.334   1.100  12.023  0.1635  0.2632 -0.2142
 5951TIP3   OH239267   6.402   5.826   0.533 -0.2662  0.1960  0.3450
 5951TIP3    H139268   6.387   5.882   0.609 -1.3880  0.6347 -0.1951
 5951TIP3    H239269   6.469   5.871   0.482  1.6194 -0.8611  1.8443
 5952TIP3   OH239270   2.682   4.764   3.466 -0.1656  0.4184  0.0391
 5952TIP3    H139271   2.592   4.795   3.477 -0.2975  0.4391 -1.0522
 5952TIP3    H239272   2.678   4.671   3.491 -0.6754  0.2018 -0.8244
 5953TIP3   OH239273   2.806   6.666   3.825 -0.3979  0.0600 -0.2983
 5953TIP3    H139274   2.892   6.630   3.802 -1.6417 -2.6334 -1.0516
 5953TIP3    H239275   2.787   6.729   3.756  0.5700 -0.0584 -0.6749
 5954TIP3   OH239276   5.078   0.393  14.703 -0.7212 -0.0908  0.5795
 5954TIP3    H139277   5.014   0.381  14.633  0.0297  0.2649 -0.1788
 5954TIP3    H239278   5.029   0.377  14.783 -1.9712  1.0752  0.0576
 5955TIP3   OH239279   3.140   1.917  11.591 -0.3447 -0.7165  0.0191
 5955TIP3    H139280   3.134   1.846  11.656  0.8906 -1.5326 -0.7461
 5955TIP3    H239281   3.194   1.881  11.521 -0.0296  0.8580 -0.5679
 5956TIP3   OH239282   4.407   4.868   6.390 -0.2686  0.0383  0.0786
 5956TIP3    H139283   4.373   4.929   6.324  1.3343  0.3522 -0.4754
 5956TIP3    H239284   4.339   4.865   6.457 -0.7123  1.8355 -0.2600
 5957TIP3   OH239285   2.326   2.535   3.211  0.0376  0.4373  0.1457
 5957TIP3    H139286   2.317   2.630   3.203  0.2158  0.3903 -0.7524
 5957TIP3    H239287   2.236   2.503   3.210  0.0434  0.3564 -3.2375
 5958TIP3   OH239288   4.447   0.945  14.407  0.4082 -0.3926 -0.0242
 5958TIP3    H139289   4.383   1.000  14.363  0.3593 -0.2307  0.2472
 5958TIP3    H239290   4.512   1.006  14.441  2.4654 -0.7609 -3.0855
 5959TIP3   OH239291   2.273   6.326  15.358  0.2710 -0.1922  0.5463
 5959TIP3    H139292   2.299   6.350  15.269 -2.3023 -0.1489 -0.2218
 5959TIP3    H239293   2.243   6.236  15.351  0.4063 -0.3084  1.4496
 5960TIP3   OH239294   2.864   5.705  12.431  0.0080 -0.1274 -0.1697
 5960TIP3    H139295   2.817   5.717  12.513  1.2820  0.0178  0.5605
 5960TIP3    H239296   2.859   5.611  12.414 -2.0692  0.1194 -1.0499
 5961TIP3   OH239297   6.648   0.639   4.917  0.3644 -0.0092 -0.6705
 5961TIP3    H139298   6.734   0.638   4.959  0.0212  0.9799  0.0866
 5961TIP3    H239299   6.608   0.721   4.947 -0.9047 -0.5384 -0.8724
 5962TIP3   OH239300   6.711   1.732  14.110  0.2285  0.1495 -0.1608
 5962TIP3    H139301   6.646   1.800  14.091  0.7402  0.4215 -0.9625
 5962TIP3    H239302   6.690   1.703  14.198 -0.7885  0.4609 -0.2953
 5963TIP3   OH239303   4.652   2.323   1.729  0.6539 -0.3208  0.4179
 5963TIP3    H139304   4.574   2.301   1.781  1.5632 -1.8829  1.1698
 5963TIP3    H239305   4.645   2.267   1.652 -0.0620  1.1041 -0.5626
 5964TIP3   OH239306   4.663   1.730   4.955 -0.3971 -0.3640  0.2117
 5964TIP3    H139307   4.580   1.698   4.991 -2.1385  2.0028 -1.5637
 5964TIP3    H239308   4.668   1.691   4.867 -0.3043  0.5617 -0.2025
 5965TIP3   OH239309   4.534   3.524  15.468 -0.5457  0.0846 -0.0364
 5965TIP3    H139310   4.577   3.445  15.499 -0.9575 -0.1389 -0.0386
 5965TIP3    H239311   4.603   3.571  15.420  0.0117  0.3010  0.9628
 5966TIP3   OH239312   2.729   0.944   3.676  0.3219  0.5836  0.1047
 5966TIP3    H139313   2.809   0.907   3.640 -1.1847 -1.3259 -1.4274
 5966TIP3    H239314   2.690   0.992   3.603 -1.3820 -0.9896 -0.0436
 5967TIP3   OH239315   3.685   5.780  14.760  0.2620  0.4823  0.0446
 5967TIP3    H139316   3.606   5.833  14.758 -0.8571 -1.1360  0.3876
 5967TIP3    H239317   3.671   5.712  14.693  1.1873 -0.0421  0.3621
 5968TIP3   OH239318   3.778   4.494  15.100 -0.0152 -0.6582  0.4235
 5968TIP3    H139319   3.872   4.511  15.107  0.1832 -1.5068 -0.1425
 5968TIP3    H239320   3.737   4.566  15.148  0.8846  0.2314 -0.1353
 5969TIP3   OH239321   1.294   5.433  14.030  0.2883  0.2315 -0.1163
 5969TIP3    H139322   1.384   5.454  14.008  0.1121  0.3071 -0.7750
 5969TIP3    H239323   1.243   5.466  13.956 -0.1283 -1.1539 -0.4636
 5970TIP3   OH239324   5.403   1.759  16.938 -0.2703 -0.0814  0.3992
 5970TIP3    H139325   5.361   1.675  16.919 -1.1598  0.7401 -1.4221
 5970TIP3    H239326   5.495   1.738  16.950 -0.4608 -1.2994 -0.1919
 5971TIP3   OH239327   1.054   2.972  14.815  0.3646 -0.5511  0.2192
 5971TIP3    H139328   1.093   3.020  14.742 -2.1184 -0.5767 -1.1734
 5971TIP3    H239329   1.040   2.884  14.781 -1.2004 -0.4477  0.5650
 5972TIP3   OH239330   1.652   2.767   6.307 -0.1646  0.2235 -0.2575
 5972TIP3    H139331   1.564   2.787   6.275 -1.2232 -0.9302  1.7981
 5972TIP3    H239332   1.649   2.674   6.328  0.9195  0.5929  1.6773
 5973TIP3   OH239333   3.222   0.067   6.733 -0.8353  0.2708  0.4536
 5973TIP3    H139334   3.265   0.153   6.738 -1.5453  0.6420  0.2305
 5973TIP3    H239335   3.144   0.076   6.788 -0.8027 -0.2987  0.5939
 5974TIP3   OH239336   4.145   0.722   6.751 -0.3224  0.1404 -0.6870
 5974TIP3    H139337   4.088   0.731   6.675 -1.4172  0.3992  0.1515
 5974TIP3    H239338   4.199   0.802   6.750 -0.3804  0.1760 -1.1416
 5975TIP3   OH239339   2.741   6.252  15.559 -0.5143 -0.0201  0.2316
 5975TIP3    H139340   2.670   6.190  15.578 -0.3407 -0.5811 -0.9570
 5975TIP3    H239341   2.820   6.207  15.588 -0.5170  0.1804  0.5653
 5976TIP3   OH239342   1.849   0.667  12.209 -0.0684 -0.4782  0.2842
 5976TIP3    H139343   1.855   0.754  12.170 -2.0232 -0.9153 -1.0768
 5976TIP3    H239344   1.851   0.607  12.134 -2.0402 -1.4272  0.9574
 5977TIP3   OH239345   2.415   6.586   4.782 -0.5365  0.6593  0.0850
 5977TIP3    H139346   2.399   6.667   4.830 -1.3508  0.5013  0.0858
 5977TIP3    H239347   2.422   6.518   4.850 -1.1833  0.5186  0.0181
 5978TIP3   OH239348   3.952   3.524   3.299  0.5031 -0.2839 -0.2356
 5978TIP3    H139349   3.934   3.605   3.251 -0.1662  0.8067  1.7762
 5978TIP3    H239350   3.910   3.456   3.247  1.2500  0.6271 -2.0672
 5979TIP3   OH239351   1.344   5.775  12.403 -0.7341  0.0565  0.0556
 5979TIP3    H139352   1.353   5.843  12.470  1.7481  1.4766 -1.6456
 5979TIP3    H239353   1.409   5.709  12.427 -1.0436 -0.2667  0.0078
 5980TIP3   OH239354   0.241   3.055   5.691  0.4959  0.1525  0.2924
 5980TIP3    H139355   0.232   3.082   5.783 -0.7292  1.7891 -0.2783
 5980TIP3    H239356   0.184   3.115   5.643 -1.1035 -2.5008 -1.2408
 5981TIP3   OH239357   3.429   1.139   0.511 -0.0025  0.0087 -0.2495
 5981TIP3    H139358   3.504   1.198   0.514 -0.6360  0.9211 -1.7471
 5981TIP3    H239359   3.393   1.151   0.423 -1.0359 -1.4985 -0.0458
 5982TIP3   OH239360   3.340   1.804   5.001  0.4327  0.1095 -0.2667
 5982TIP3    H139361   3.333   1.728   5.059 -1.5684  1.4050  1.2320
 5982TIP3    H239362   3.329   1.880   5.058  0.8202  1.4977 -1.9858
 5983TIP3   OH239363   4.806   0.602  16.507 -0.0166 -0.0623  0.7815
 5983TIP3    H139364   4.761   0.590  16.423 -1.1022  0.9979  1.1884
 5983TIP3    H239365   4.874   0.535  16.508 -0.8759 -0.9709 -0.3427
 5984TIP3   OH239366   0.149   6.680   2.284 -0.4707 -0.3568  0.1265
 5984TIP3    H139367   0.066   6.711   2.248 -1.5216 -2.8501  0.2953
 5984TIP3    H239368   0.205   6.667   2.207 -0.2854  1.1184 -0.0058
 5985TIP3   OH239369   5.606   5.167  14.898  0.2812  0.0110 -0.0061
 5985TIP3    H139370   5.625   5.259  14.880  1.0312 -0.3218 -0.9445
 5985TIP3    H239371   5.669   5.142  14.966 -0.3718  0.3718  0.7358
 5986TIP3   OH239372   5.205   4.038  12.792 -0.0327 -0.1037 -0.0535
 5986TIP3    H139373   5.276   3.994  12.840 -0.1689 -0.1316  0.1253
 5986TIP3    H239374   5.162   3.968  12.744 -0.5798 -0.2559  0.6472
 5987TIP3   OH239375   1.204   4.995  12.872  0.4568  0.3271  0.2549
 5987TIP3    H139376   1.209   4.899  12.878 -2.1695  0.2376  1.4917
 5987TIP3    H239377   1.274   5.026  12.930 -0.3337 -0.8529  1.8821
 5988TIP3   OH239378   0.835   2.004  12.466  0.5499 -0.1363 -0.4513
 5988TIP3    H139379   0.916   1.970  12.425  1.1826  2.2159 -1.2119
 5988TIP3    H239380   0.768   1.992  12.398  0.7289 -0.0475 -0.6460
 5989TIP3   OH239381   5.328   0.512  14.951  0.2327  0.5251  0.1228
 5989TIP3    H139382   5.245   0.542  14.988  0.8503  0.9331  1.1940
 5989TIP3    H239383   5.390   0.518  15.023  1.4264  1.1811 -0.9292
 5990TIP3   OH239384   4.706   6.120   5.636 -0.8469  0.3249 -0.2053
 5990TIP3    H139385   4.800   6.108   5.626 -0.5302  2.4472  0.0838
 5990TIP3    H239386   4.675   6.141   5.548 -0.6601  1.9753  0.0966
 5991TIP3   OH239387   3.045   6.339   4.924  0.4615  0.4018 -0.2044
 5991TIP3    H139388   2.975   6.280   4.896 -0.4476  1.3031  0.1215
 5991TIP3    H239389   3.122   6.311   4.876 -0.0482 -0.8351 -0.2992
 5992TIP3   OH239390   0.667   2.650  11.894 -0.3172  0.4226  0.2469
 5992TIP3    H139391   0.605   2.595  11.846 -0.1575  0.3032  0.1758
 5992TIP3    H239392   0.637   2.739  11.880 -0.4540  0.3662  0.1851
 5993TIP3   OH239393   2.178   3.640   0.264 -0.1156  0.4162  0.2758
 5993TIP3    H139394   2.137   3.706   0.320 -0.3636  0.7070 -0.2484
 5993TIP3    H239395   2.111   3.572   0.253 -0.3499  0.7501 -0.3394
 5994TIP3   OH239396   5.791   5.798   4.575 -0.0742 -0.0878  0.1667
 5994TIP3    H139397   5.802   5.845   4.658 -2.1149  2.1921 -0.7805
 5994TIP3    H239398   5.696   5.784   4.569 -0.0560  0.5808 -2.1667
 5995TIP3   OH239399   0.405   0.223  11.569 -0.2715  0.1212  0.5169
 5995TIP3    H139400   0.357   0.152  11.610 -2.5878 -0.1192 -2.4270
 5995TIP3    H239401   0.347   0.255  11.500  2.8912  1.3386 -1.7138
 5996TIP3   OH239402   4.877   5.712  13.991 -0.2798  0.4113 -0.0328
 5996TIP3    H139403   4.912   5.665  13.915 -0.7341 -0.3415  0.2196
 5996TIP3    H239404   4.790   5.740  13.964  0.6815  2.6943 -0.8267
 5997TIP3   OH239405   3.573   4.356  11.173 -0.6897 -0.0517  0.0548
 5997TIP3    H139406   3.585   4.439  11.218 -1.1088 -0.1663  0.3799
 5997TIP3    H239407   3.527   4.379  11.092  0.0775  0.1554 -0.3224
 5998TIP3   OH239408   4.819   1.723  16.129  0.0640 -0.3504  0.3305
 5998TIP3    H139409   4.886   1.721  16.197  1.3360 -0.8590 -0.9187
 5998TIP3    H239410   4.847   1.658  16.065 -0.9911  0.2785 -0.7952
 5999TIP3   OH239411   4.757   1.739   3.335 -0.0099  0.1090 -0.6950
 5999TIP3    H139412   4.708   1.714   3.414  1.4271  1.9631  0.8385
 5999TIP3    H239413   4.766   1.657   3.286 -2.2844 -0.7768  0.2995
 6000TIP3   OH239414   5.040   4.004   5.257  0.2158  0.0333 -0.2479
 6000TIP3    H139415   5.118   4.032   5.305 -1.7239  1.5018  2.1592
 6000TIP3    H239416   5.026   4.074   5.193  0.9502 -0.2958 -0.7710
 6001TIP3   OH239417   3.238   6.260   1.212 -0.0064 -0.4380 -0.4216
 6001TIP3    H139418   3.193   6.321   1.271 -1.1860 -1.9603  0.2741
 6001TIP3    H239419   3.301   6.214   1.268  2.4926  1.6726 -1.3830
 6002TIP3   OH239420   3.043   3.379   3.823  0.6304  0.4880 -0.4035
 6002TIP3    H139421   2.953   3.381   3.789  0.6134 -0.2785 -0.4135
 6002TIP3    H239422   3.073   3.470   3.815 -0.4150  0.9187  0.3457
 6003TIP3   OH239423   6.205   3.482  16.422 -0.2411  0.8644 -0.3060
 6003TIP3    H139424   6.191   3.495  16.328 -2.7832  0.2455 -0.0498
 6003TIP3    H239425   6.199   3.388  16.434 -1.5958  1.0668  0.7100
 6004TIP3   OH239426   2.290   4.266   5.037 -0.4157 -0.1238 -0.1215
 6004TIP3    H139427   2.282   4.302   5.125  0.9606 -1.0084  0.3829
 6004TIP3    H239428   2.371   4.214   5.039 -0.0009  0.3955 -2.0924
 6005TIP3   OH239429   6.270   3.373   4.111 -0.2185  0.0273  0.1123
 6005TIP3    H139430   6.281   3.305   4.178 -2.9386 -0.7025 -0.1092
 6005TIP3    H239431   6.176   3.395   4.115  0.0580  1.6711 -1.8454
 6006TIP3   OH239432   2.835   4.857  16.814 -0.0659  0.5940 -0.1652
 6006TIP3    H139433   2.746   4.838  16.785  0.6297 -0.0550 -1.9358
 6006TIP3    H239434   2.883   4.774  16.802  0.7507  0.8911  0.9059
 6007TIP3   OH239435   3.596   1.898   4.896 -0.4034  0.2535  0.7842
 6007TIP3    H139436   3.512   1.858   4.919 -0.4554  0.0830  0.2890
 6007TIP3    H239437   3.632   1.841   4.828  0.9755 -0.7364  2.2980
 6008TIP3   OH239438   2.051   5.316   5.089  0.1938  0.3000 -0.8552
 6008TIP3    H139439   2.017   5.232   5.117 -0.1014  0.9524  0.7909
 6008TIP3    H239440   2.096   5.351   5.166  2.1865  0.6842 -2.1578
 6009TIP3   OH239441   4.826   6.319   4.811 -0.4794 -0.4952 -0.4949
 6009TIP3    H139442   4.806   6.402   4.767 -2.6784 -0.0730  1.2511
 6009TIP3    H239443   4.781   6.253   4.758 -0.1256 -0.3877 -0.9307
 6010TIP3   OH239444   6.320   6.633   4.522 -0.2287  0.0851  0.3106
 6010TIP3    H139445   6.342   6.720   4.554 -0.3563  0.8457 -1.5810
 6010TIP3    H239446   6.224   6.632   4.518 -0.3059 -0.7986  2.0478
 6011TIP3   OH239447   6.454   0.977  15.279 -0.3260  0.6764 -0.4160
 6011TIP3    H139448   6.521   0.992  15.345  1.1602  0.9977 -1.9612
 6011TIP3    H239449   6.380   1.032  15.306  0.5999  1.4941  0.4805
 6012TIP3   OH239450   2.762   2.536  13.966  0.4461  0.5474  0.4164
 6012TIP3    H139451   2.789   2.575  14.049 -0.1146  0.6417  0.5522
 6012TIP3    H239452   2.668   2.553  13.960  0.7142  1.7448 -0.8632
 6013TIP3   OH239453   5.069   2.827   5.066  0.4430 -0.0962  0.4632
 6013TIP3    H139454   5.022   2.753   5.027 -0.8786  1.1668 -0.3820
 6013TIP3    H239455   5.083   2.801   5.157 -1.0283 -0.8989  0.4732
 6014TIP3   OH239456   3.691   6.436  13.815  0.0622  0.0181  0.0163
 6014TIP3    H139457   3.700   6.344  13.840 -0.2265 -0.2648 -0.8898
 6014TIP3    H239458   3.695   6.435  13.719  0.3326  0.9809  0.0153
 6015TIP3   OH239459   2.678   6.350  14.354  1.0578 -0.1064  0.3398
 6015TIP3    H139460   2.709   6.411  14.288  2.7433 -1.0100  0.2951
 6015TIP3    H239461   2.722   6.267  14.335 -2.1975 -1.7685 -0.4211
 6016TIP3   OH239462   6.569   6.583  14.465 -0.4179 -0.4378 -0.0058
 6016TIP3    H139463   6.586   6.542  14.550 -0.7526  1.6113  1.0825
 6016TIP3    H239464   6.646   6.639  14.449 -0.2176 -1.0302 -1.1998
 6017TIP3   OH239465   5.032   2.690   0.257  0.0645 -0.4988 -0.4071
 6017TIP3    H139466   5.122   2.658   0.268  0.0382 -0.1762  0.7633
 6017TIP3    H239467   4.980   2.611   0.242  0.2889 -0.8538  0.6167
 6018TIP3   OH239468   4.420   5.258   1.958  0.1259  0.1180  0.4277
 6018TIP3    H139469   4.497   5.305   1.926 -0.2070  0.4646  0.1344
 6018TIP3    H239470   4.346   5.303   1.917 -0.2302 -0.2293  0.6924
 6019TIP3   OH239471   2.483   4.919   6.379 -0.3438 -0.2328 -0.1378
 6019TIP3    H139472   2.514   4.931   6.289  1.9622  0.8103  0.7426
 6019TIP3    H239473   2.537   4.849   6.414  0.3913  0.9193  1.1205
 6020TIP3   OH239474   5.150   1.767  16.710  0.1667 -0.1646  0.1023
 6020TIP3    H139475   5.167   1.813  16.793 -1.4368  1.0759 -0.2216
 6020TIP3    H239476   5.055   1.753  16.710  0.3613 -1.5350 -0.8253
 6021TIP3   OH239477   1.920   2.397   0.586 -0.2090 -0.0812  0.2951
 6021TIP3    H139478   2.009   2.376   0.614 -0.3666 -2.2923 -0.7148
 6021TIP3    H239479   1.869   2.397   0.667  0.0224 -2.6811  0.4859
 6022TIP3   OH239480   6.349   1.708   0.730  0.0245 -0.2840 -0.3226
 6022TIP3    H139481   6.288   1.697   0.803 -1.6183 -1.0511 -1.7696
 6022TIP3    H239482   6.372   1.619   0.704  1.3823 -0.0043 -0.1232
 6023TIP3   OH239483   3.948   4.469  13.241  0.1599  0.2400  0.6320
 6023TIP3    H139484   3.867   4.421  13.259 -0.1389  0.7750  0.7248
 6023TIP3    H239485   3.919   4.555  13.212  0.6934  0.3303  0.3603
 6024TIP3   OH239486   0.512   4.352  11.474 -0.9894 -0.0910  0.4615
 6024TIP3    H139487   0.519   4.395  11.389  0.9422 -0.3567  0.4746
 6024TIP3    H239488   0.546   4.415  11.536  0.2726 -0.9703  0.6810
 6025TIP3   OH239489   6.037   4.008   3.063  0.0664  0.4091  0.3554
 6025TIP3    H139490   6.006   4.024   2.974 -1.7630 -1.4671  0.6171
 6025TIP3    H239491   5.959   4.021   3.118  1.4720  2.9249  1.8731
 6026TIP3   OH239492   4.860   3.930   3.712 -0.3002  0.3622  0.8189
 6026TIP3    H139493   4.918   3.867   3.754  1.5557 -0.1062 -2.2688
 6026TIP3    H239494   4.920   3.992   3.670 -2.0505  0.9874 -0.8173
 6027TIP3   OH239495   0.567   4.140  15.008 -0.0746 -0.5855 -0.0630
 6027TIP3    H139496   0.630   4.069  14.995 -0.0287 -0.3265 -1.2423
 6027TIP3    H239497   0.599   4.211  14.954  1.1060  1.1480  2.8040
 6028TIP3   OH239498   0.337   6.007  11.050  0.1000 -0.5717  0.3240
 6028TIP3    H139499   0.299   5.935  10.999  1.6761 -1.4251  0.3291
 6028TIP3    H239500   0.430   5.986  11.055  0.4079  0.9553  1.1993
 6029TIP3   OH239501   4.126   5.257  13.651  0.3926  0.6597 -0.3408
 6029TIP3    H139502   4.072   5.200  13.706  0.1195 -0.9270 -2.2031
 6029TIP3    H239503   4.091   5.345  13.667 -0.4456  0.0818  1.1302
 6030TIP3   OH239504   3.101   3.902  10.663 -0.0620 -0.8824 -0.5826
 6030TIP3    H139505   3.007   3.918  10.658 -0.5008 -3.1770 -0.2260
 6030TIP3    H239506   3.115   3.822  10.612  1.8221 -0.1575 -1.2706
 6031TIP3   OH239507   4.106   4.171  15.665  0.1134  0.4792 -0.0965
 6031TIP3    H139508   4.143   4.107  15.725 -0.8683  1.9419  2.1281
 6031TIP3    H239509   4.166   4.246  15.669 -0.7569  1.1664  0.2099
 6032TIP3   OH239510   3.855   2.611   3.506 -0.0953 -0.2664  0.0003
 6032TIP3    H139511   3.827   2.638   3.593 -0.7542 -1.2153  0.0929
 6032TIP3    H239512   3.890   2.691   3.466  0.6096  0.0850  1.2797
 6033TIP3   OH239513   5.699   0.068  13.915 -0.4636  0.5727 -0.3773
 6033TIP3    H139514   5.777   0.087  13.864  0.3389  0.5129  0.8009
 6033TIP3    H239515   5.707   0.124  13.993 -1.5976  0.5714 -0.2382
 6034TIP3   OH239516   5.516   6.581  17.029  0.5215  0.6076 -0.4799
 6034TIP3    H139517   5.597   6.581  16.978  1.1835 -0.8512  0.5323
 6034TIP3    H239518   5.452   6.541  16.971  0.7029  1.0934 -1.0191
 6035TIP3   OH239519   1.544   2.861  16.834  0.1867 -0.1076  0.1044
 6035TIP3    H139520   1.476   2.928  16.839  0.6296  0.2888  0.9976
 6035TIP3    H239521   1.500   2.780  16.859  0.1747  0.2561  1.3055
 6036TIP3   OH239522   0.951   2.535   0.492 -0.0760 -0.4302 -0.0364
 6036TIP3    H139523   1.010   2.592   0.540  0.3117 -1.7140  1.0434
 6036TIP3    H239524   0.865   2.548   0.533 -0.0296 -0.4661  0.0722
 6037TIP3   OH239525   6.535   3.186  14.555 -0.3113  0.0386 -0.3208
 6037TIP3    H139526   6.530   3.277  14.585 -0.8476 -0.8412  2.4500
 6037TIP3    H239527   6.537   3.192  14.460  2.3039  3.0502 -0.1480
 6038TIP3   OH239528   3.441   0.267  11.014  0.2121  0.3012 -0.3465
 6038TIP3    H139529   3.491   0.198  10.971 -0.9406  0.1410 -1.4749
 6038TIP3    H239530   3.425   0.332  10.945  0.2925  1.1390  0.4140
 6039TIP3   OH239531   3.464   2.055   5.531  0.8466 -0.4295 -0.5843
 6039TIP3    H139532   3.442   1.966   5.560  0.7514 -1.1298 -2.6676
 6039TIP3    H239533   3.388   2.108   5.555  0.6766 -1.0150  0.1967
 6040TIP3   OH239534   3.831   3.795   1.413  0.3288 -0.1467 -0.3665
 6040TIP3    H139535   3.808   3.877   1.457  0.6491 -0.1733 -0.1469
 6040TIP3    H239536   3.927   3.795   1.412  0.3264  0.0401 -1.4141
 6041TIP3   OH239537   5.419   2.906   4.390  0.5672 -0.0135  0.1382
 6041TIP3    H139538   5.484   2.934   4.325  0.0724 -1.1855 -0.8984
 6041TIP3    H239539   5.471   2.872   4.463  1.1425 -1.5822 -0.9705
 6042TIP3   OH239540   3.054   0.035  12.558 -0.6040  0.5632 -0.2717
 6042TIP3    H139541   3.135   0.076  12.587  0.9210 -0.8242 -2.3618
 6042TIP3    H239542   3.012   0.004  12.638  1.8210 -0.2915  0.7168
 6043TIP3   OH239543   1.301   3.848   5.488  0.0832  0.0299 -0.1998
 6043TIP3    H139544   1.236   3.797   5.536  0.7625 -0.7103 -0.0683
 6043TIP3    H239545   1.306   3.931   5.536 -1.7633  0.6271 -1.0085
 6044TIP3   OH239546   0.199   1.982  12.248  0.6819  0.0766  0.4272
 6044TIP3    H139547   0.215   1.997  12.341 -0.1847  3.0998  0.1595
 6044TIP3    H239548   0.145   2.057  12.221 -0.1784 -1.4377 -2.2137
 6045TIP3   OH239549   0.965   0.969  10.878  0.3031  0.0015  0.4787
 6045TIP3    H139550   0.942   1.045  10.825 -2.2464 -1.8848 -1.2410
 6045TIP3    H239551   1.059   0.978  10.893  1.0089  0.8613 -3.9390
 6046TIP3   OH239552   6.598   2.273   1.783 -0.1220 -0.1701  0.7440
 6046TIP3    H139553   6.632   2.362   1.777  0.4745 -0.3881  0.9097
 6046TIP3    H239554   6.512   2.283   1.825 -0.4968  0.4300 -0.1532
 6047TIP3   OH239555   6.091   5.519   6.639 -0.4331  0.5341  0.3240
 6047TIP3    H139556   6.105   5.546   6.729  0.4896 -3.2656  1.4200
 6047TIP3    H239557   6.175   5.531   6.596 -0.5935  1.3615  0.2376
 6048TIP3   OH239558   3.085   5.871   4.401 -0.0715  0.6334 -0.4821
 6048TIP3    H139559   3.049   5.953   4.433 -0.1444  0.5668 -0.3932
 6048TIP3    H239560   3.144   5.841   4.471  0.4784  0.9496 -0.8050
 6049TIP3   OH239561   5.717   1.034   2.618 -0.2658 -0.5510 -0.0319
 6049TIP3    H139562   5.702   1.035   2.712  0.4088  0.7885  0.0802
 6049TIP3    H239563   5.661   1.103   2.583 -2.4102 -2.6859 -0.9561
 6050TIP3   OH239564   0.333   4.686   6.018  0.1239  0.1857  0.1363
 6050TIP3    H139565   0.288   4.637   6.086  0.3358 -1.4179 -0.8578
 6050TIP3    H239566   0.426   4.673   6.037  0.1897 -1.2066 -1.1191
 6051TIP3   OH239567   3.187   3.490   4.109 -0.2234 -0.2520  0.4300
 6051TIP3    H139568   3.166   3.536   4.190 -0.8607  0.2831 -0.0368
 6051TIP3    H239569   3.180   3.557   4.041  3.4799  0.0831  0.2960
 6052TIP3   OH239570   4.443   4.730  15.625 -0.2901 -0.2032  0.1412
 6052TIP3    H139571   4.509   4.798  15.615  0.0750  0.1120  3.9364
 6052TIP3    H239572   4.492   4.654  15.658 -1.4930 -0.5978  1.0576
 6053TIP3   OH239573   5.564   4.654   2.644  0.3248  0.3800 -0.0927
 6053TIP3    H139574   5.642   4.599   2.647 -0.3796 -0.6107  0.1810
 6053TIP3    H239575   5.584   4.727   2.702  1.8681  1.2340 -1.6308
 6054TIP3   OH239576   3.869   4.452   3.544 -0.4681 -0.0203  0.2601
 6054TIP3    H139577   3.863   4.393   3.469  0.7887  1.7118 -1.2239
 6054TIP3    H239578   3.795   4.512   3.533  0.4566  1.0278 -0.3001
 6055TIP3   OH239579   1.855   3.783   5.509 -0.0850  0.1849 -0.1704
 6055TIP3    H139580   1.802   3.755   5.433 -0.0032 -1.0587  0.2268
 6055TIP3    H239581   1.802   3.851   5.550  0.0638  1.1930 -1.5957
 6056TIP3   OH239582   1.798   0.294  12.808 -0.1457  0.1431 -0.8422
 6056TIP3    H139583   1.858   0.347  12.756  0.0283 -1.0203 -1.8615
 6056TIP3    H239584   1.776   0.220  12.751 -1.3515 -0.2289  0.0874
 6057TIP3   OH239585   4.863   5.286  15.675 -0.3376  0.3065 -0.3074
 6057TIP3    H139586   4.891   5.331  15.754 -0.3049 -2.5897  1.3848
 6057TIP3    H239587   4.893   5.343  15.603  1.5292  1.8924  1.6635
 6058TIP3   OH239588   6.189   4.392   4.248  0.5350 -0.0214  0.4248
 6058TIP3    H139589   6.129   4.415   4.320  0.5760 -1.6789  1.0170
 6058TIP3    H239590   6.275   4.387   4.290  0.4109 -1.9899  0.4933
 6059TIP3   OH239591   1.732   2.633   0.284 -0.3087  0.5713  0.1434
 6059TIP3    H139592   1.783   2.681   0.219 -3.1722 -1.2041 -3.6506
 6059TIP3    H239593   1.720   2.546   0.245 -1.8640 -0.6386  3.1975
 6060TIP3   OH239594   6.014   5.541   2.011  0.7095  0.5835  0.1784
 6060TIP3    H139595   6.064   5.565   1.933  0.4486  0.6746  0.0368
 6060TIP3    H239596   6.012   5.445   2.010 -0.5701  0.6006 -0.7566
 6061TIP3   OH239597   0.703   0.750  15.780  0.1739 -0.6208  0.3172
 6061TIP3    H139598   0.751   0.708  15.709 -0.2627 -0.0550 -0.3260
 6061TIP3    H239599   0.719   0.844  15.768 -1.6802 -0.3657 -0.3646
 6062TIP3   OH239600   1.318   6.094   0.517 -0.5255 -0.5277  0.3867
 6062TIP3    H139601   1.329   6.183   0.548 -0.4539 -0.2250 -0.4828
 6062TIP3    H239602   1.223   6.085   0.503 -0.4336 -0.2680 -0.4378
 6063TIP3   OH239603   3.906   1.165   1.610 -0.3323  0.3094 -0.3169
 6063TIP3    H139604   3.890   1.164   1.705  2.2445 -0.9856  0.1570
 6063TIP3    H239605   3.938   1.253   1.592  0.9414 -0.0047  0.3624
 6064TIP3   OH239606   6.100   3.479   0.043 -0.2611  0.2211  0.1082
 6064TIP3    H139607   6.011   3.458   0.073  0.2872 -1.1238  0.8179
 6064TIP3    H239608   6.095   3.571   0.018 -1.8151  0.2144  0.3179
 6065TIP3   OH239609   0.284   6.385  12.454 -0.0354 -0.4038 -0.0862
 6065TIP3    H139610   0.274   6.349  12.542  2.4256 -1.1116 -0.0754
 6065TIP3    H239611   0.312   6.476  12.468 -3.6748  0.8375 -0.1511
 6066TIP3   OH239612   4.467   1.386  12.985 -0.2784 -0.2272 -0.1049
 6066TIP3    H139613   4.551   1.352  13.015 -0.2048  0.4116  0.4188
 6066TIP3    H239614   4.412   1.387  13.063 -0.2639  0.8964 -0.0998
 6067TIP3   OH239615   1.720   2.958   3.556  0.0393  0.2776  0.0374
 6067TIP3    H139616   1.659   3.001   3.495 -2.1339 -1.2005  1.1144
 6067TIP3    H239617   1.729   2.869   3.523  1.2103  0.3275  0.2006
 6068TIP3   OH239618   3.154   4.088  15.231 -0.2974  0.5721 -0.1705
 6068TIP3    H139619   3.068   4.121  15.257 -0.8076 -1.3237  0.6276
 6068TIP3    H239620   3.140   4.053  15.142 -0.5593 -0.4803  0.2790
 6069TIP3   OH239621   0.621   2.984   0.427  0.3000  0.3653 -0.3545
 6069TIP3    H139622   0.612   3.023   0.514 -1.8841 -1.6998  0.4043
 6069TIP3    H239623   0.682   3.042   0.381  0.0617  2.5204  1.9275
 6070TIP3   OH239624   5.727   0.229  15.203 -0.3333 -0.5695 -0.0613
 6070TIP3    H139625   5.660   0.270  15.148  2.7011  3.1726 -1.1595
 6070TIP3    H239626   5.793   0.199  15.141  0.2991 -1.7955  1.1807
 6071TIP3   OH239627   4.707   3.964  13.213 -0.4304 -0.1004 -0.7860
 6071TIP3    H139628   4.655   3.884  13.211 -1.3968  0.5351 -2.0420
 6071TIP3    H239629   4.692   4.000  13.300 -1.4200 -0.3618 -0.8416
 6072TIP3   OH239630   1.080   0.132   3.236 -0.4366 -0.3661  0.9526
 6072TIP3    H139631   1.108   0.203   3.294 -0.9851  1.0555 -0.5057
 6072TIP3    H239632   1.096   0.165   3.148 -0.4544 -2.1685  0.2627
 6073TIP3   OH239633   2.152   5.720  16.515 -0.3499 -0.6670  0.0846
 6073TIP3    H139634   2.196   5.652  16.465 -2.9350 -2.3267  0.0091
 6073TIP3    H239635   2.101   5.768  16.451 -1.5878 -1.1229  0.7131
 6074TIP3   OH239636   3.438   2.878   5.383 -0.2727 -0.2509 -0.0648
 6074TIP3    H139637   3.518   2.893   5.434 -0.1084  0.3052 -0.4835
 6074TIP3    H239638   3.455   2.797   5.335 -0.9243 -1.4845  1.7347
 6075TIP3   OH239639   3.393   6.415   6.070  0.2775  0.7287  0.2250
 6075TIP3    H139640   3.429   6.501   6.049  1.3548  0.4606  0.9535
 6075TIP3    H239641   3.311   6.434   6.117 -0.9441  1.3307 -2.0984
 6076TIP3   OH239642   2.084   3.867   0.793 -0.4454 -0.2309 -0.2249
 6076TIP3    H139643   2.034   3.805   0.740  2.0351 -1.1256 -1.6255
 6076TIP3    H239644   2.075   3.836   0.883 -0.3836 -1.8050 -0.7565
 6077TIP3   OH239645   5.921   2.104  11.320 -0.0829  0.1060 -0.0618
 6077TIP3    H139646   5.970   2.045  11.378  0.6612  0.0602 -0.7237
 6077TIP3    H239647   5.931   2.064  11.233  0.9267  1.5215 -0.6129
 6078TIP3   OH239648   4.835   6.478  12.988  0.3121 -0.0600 -0.0678
 6078TIP3    H139649   4.797   6.561  13.015  0.8334  0.5751 -1.2515
 6078TIP3    H239650   4.762   6.416  12.990 -0.6272  0.9682 -1.5889
 6079TIP3   OH239651   5.386   2.539   1.824  0.0933 -0.0322 -0.7432
 6079TIP3    H139652   5.385   2.444   1.831  0.5958 -0.1663 -2.2521
 6079TIP3    H239653   5.294   2.565   1.827  0.0284 -0.4167  1.2222
 6080TIP3   OH239654   2.642   6.729   0.618  0.0864 -0.2953  0.0330
 6080TIP3    H139655   2.568   6.669   0.631 -1.3292  1.1551 -1.0842
 6080TIP3    H239656   2.687   6.695   0.541 -2.4375  1.6662 -2.4085
 6081TIP3   OH239657   1.665   1.312  12.178  0.0854 -0.1865 -0.2717
 6081TIP3    H139658   1.615   1.394  12.183  0.8677  0.3644 -1.3049
 6081TIP3    H239659   1.631   1.259  12.250 -1.3441  0.5444 -0.3852
 6082TIP3   OH239660   5.469   6.148   2.732 -0.5296  0.0569  0.3987
 6082TIP3    H139661   5.446   6.162   2.640 -1.4125  1.3336  0.7844
 6082TIP3    H239662   5.385   6.153   2.778  0.0785  1.0306  1.4336
 6083TIP3   OH239663   3.872   5.811  15.955  0.1973  0.2378 -0.3314
 6083TIP3    H139664   3.777   5.809  15.948  0.0820 -0.8565  1.1467
 6083TIP3    H239665   3.900   5.724  15.927  0.5582 -0.2529  1.4682
 6084TIP3   OH239666   5.012   5.301  14.669  0.6604 -0.6882 -0.0438
 6084TIP3    H139667   4.950   5.229  14.681 -1.3002  1.0496  0.5080
 6084TIP3    H239668   5.045   5.319  14.757 -0.7009  0.6754  0.2058
 6085TIP3   OH239669   2.562   5.413   6.203 -0.0025  0.1475 -0.1813
 6085TIP3    H139670   2.526   5.441   6.119 -1.0619 -1.2134 -0.2054
 6085TIP3    H239671   2.553   5.489   6.260  0.2508  0.9134 -1.1419
 6086TIP3   OH239672   6.351   0.683   1.994  0.3464  0.0787  0.0310
 6086TIP3    H139673   6.384   0.693   2.084  0.8437  0.7500 -0.2171
 6086TIP3    H239674   6.404   0.745   1.943  0.8325 -1.1065 -0.9123
 6087TIP3   OH239675   2.405   5.434  13.326  0.4130  0.2457 -0.0107
 6087TIP3    H139676   2.344   5.453  13.398  0.5118  1.9214 -0.3399
 6087TIP3    H239677   2.466   5.369  13.363 -0.1764  0.2918  1.0682
 6088TIP3   OH239678   2.475   0.239   3.427  0.1581  0.0545  0.4747
 6088TIP3    H139679   2.544   0.302   3.446 -0.6269  0.7128  1.2058
 6088TIP3    H239680   2.504   0.195   3.347  1.2369  0.5790  0.5680
 6089TIP3   OH239681   1.233   3.075  11.707 -0.1778  0.1977 -0.0012
 6089TIP3    H139682   1.182   3.053  11.785 -1.4626  0.5542 -0.7316
 6089TIP3    H239683   1.319   3.101  11.742 -0.9623  1.0787  1.3576
 6090TIP3   OH239684   3.658   5.004  13.445  0.3116 -0.0093 -0.3122
 6090TIP3    H139685   3.695   5.068  13.506 -0.5956  0.4168 -0.2044
 6090TIP3    H239686   3.716   5.007  13.369  0.4250  0.7434 -0.1963
 6091TIP3   OH239687   3.256   1.071   1.390 -0.0360 -0.1182  0.1946
 6091TIP3    H139688   3.312   1.063   1.313  1.4727 -0.7610  1.3345
 6091TIP3    H239689   3.246   0.981   1.422  2.9429  0.5498  3.2344
 6092TIP3   OH239690   6.721   6.678  13.147 -0.0689 -0.5885 -0.3272
 6092TIP3    H139691   6.742   6.741  13.078  0.7440 -1.7892 -1.2042
 6092TIP3    H239692   6.801   6.670  13.198 -0.3412 -0.5071  0.1187
 6093TIP3   OH239693   5.799   1.529   0.065  0.1716 -0.1616  0.2927
 6093TIP3    H139694   5.744   1.586   0.120  2.1256  2.1490 -0.0713
 6093TIP3    H239695   5.847   1.475   0.128 -0.3465 -0.1500  0.7098
 6094TIP3   OH239696   2.271   3.534   0.836  0.2430 -0.0459  0.0621
 6094TIP3    H139697   2.194   3.492   0.875  0.8577 -3.9935 -2.6384
 6094TIP3    H239698   2.241   3.563   0.750  0.8153  1.9677  0.5120
 6095TIP3   OH239699   3.036   3.013  15.479  0.2919 -0.6537  0.6448
 6095TIP3    H139700   2.958   2.982  15.432 -0.4543 -1.1028  2.1397
 6095TIP3    H239701   3.085   3.063  15.414 -0.0868 -2.2870 -0.9350
 6096TIP3   OH239702   2.717   3.921   2.709  0.3793 -0.3504  0.5174
 6096TIP3    H139703   2.780   3.993   2.704 -1.5871  1.5053  1.3169
 6096TIP3    H239704   2.723   3.891   2.800  1.3146 -1.3187  0.1402
 6097TIP3   OH239705   1.572   3.183   4.128 -0.2852 -0.2351 -0.0935
 6097TIP3    H139706   1.512   3.184   4.203 -0.7594  1.7984 -0.4617
 6097TIP3    H239707   1.659   3.185   4.168 -0.5316  0.4426  0.4285
 6098TIP3   OH239708   1.459   0.173  12.537 -0.4167  0.8389 -0.4023
 6098TIP3    H139709   1.438   0.241  12.600  1.7969  1.9118 -0.7620
 6098TIP3    H239710   1.530   0.123  12.577 -0.1312  0.4814 -1.3185
 6099TIP3   OH239711   5.483   4.384  16.466 -0.1858 -0.4303 -0.9541
 6099TIP3    H139712   5.412   4.369  16.405  0.3349  0.1215 -1.7091
 6099TIP3    H239713   5.441   4.419  16.544 -1.2913 -4.4887  0.3975
 6100TIP3   OH239714   5.804   2.651  14.349 -0.3248  0.4098  0.6115
 6100TIP3    H139715   5.889   2.665  14.390 -0.0168 -0.0936  0.1548
 6100TIP3    H239716   5.782   2.560  14.369 -1.3343  0.9041  1.7757
 6101TIP3   OH239717   3.745   0.687   3.930  0.1117 -0.4127  0.7323
 6101TIP3    H139718   3.735   0.779   3.954  1.0243 -0.0300 -0.3329
 6101TIP3    H239719   3.664   0.646   3.959 -1.2523  1.1447 -0.8112
 6102TIP3   OH239720   1.446   3.074   4.379  0.0900 -0.3484 -0.0306
 6102TIP3    H139721   1.479   3.001   4.328  0.4506 -0.4985  0.4108
 6102TIP3    H239722   1.491   3.067   4.463 -0.4433 -0.0699  0.2862
 6103TIP3   OH239723   5.022   4.281  15.240 -0.5281 -0.4002 -0.4797
 6103TIP3    H139724   5.072   4.319  15.168 -1.9499 -0.4912 -1.5328
 6103TIP3    H239725   5.000   4.193  15.210 -1.1867 -0.4157  0.0425
 6104TIP3   OH239726   4.710   0.085   1.842 -0.0985 -0.3982 -0.7400
 6104TIP3    H139727   4.769   0.156   1.816 -0.0154 -0.1527  0.1042
 6104TIP3    H239728   4.704   0.093   1.938 -0.2683 -1.3789 -0.6632
 6105TIP3   OH239729   5.315   5.412   3.400 -0.3591 -1.3134  0.0588
 6105TIP3    H139730   5.286   5.362   3.323 -0.3823  0.1556 -0.8889
 6105TIP3    H239731   5.235   5.426   3.450 -0.9237  0.6606 -1.3592
 6106TIP3   OH239732   0.419   2.752  14.545 -0.0191  0.9416  0.1391
 6106TIP3    H139733   0.355   2.820  14.522  0.2216  0.9788 -0.4434
 6106TIP3    H239734   0.366   2.673  14.555 -0.4284  1.4063  1.7960
 6107TIP3   OH239735   5.325   3.286   1.105  0.1293 -0.3750  0.3360
 6107TIP3    H139736   5.289   3.335   1.031  0.3836  2.0491  1.7838
 6107TIP3    H239737   5.363   3.207   1.065 -1.9185 -0.3152 -1.8173
 6108TIP3   OH239738   0.305   4.639  13.271  0.1082 -0.0611  0.4844
 6108TIP3    H139739   0.338   4.695  13.201  0.7525 -1.2982 -0.2109
 6108TIP3    H239740   0.266   4.700  13.334 -0.0508  1.0843 -0.7163
 6109TIP3   OH239741   0.588   4.921  12.026  0.6275 -0.2161  0.1811
 6109TIP3    H139742   0.513   4.877  11.986  0.4464  0.8008 -0.6289
 6109TIP3    H239743   0.642   4.850  12.060 -0.5451 -0.9697  0.4937
 6110TIP3   OH239744   1.790   1.735  13.013  0.2468 -0.2478 -0.1446
 6110TIP3    H139745   1.714   1.790  13.031  0.9891  1.0148 -0.8207
 6110TIP3    H239746   1.769   1.651  13.054 -1.3139  0.2288  0.0638
 6111TIP3   OH239747   3.086   3.063  13.514 -0.4099 -0.0491 -0.0478
 6111TIP3    H139748   3.172   3.055  13.557 -0.7598  1.0093  0.8620
 6111TIP3    H239749   3.106   3.059  13.421  0.8796  2.4001  0.0939
 6112TIP3   OH239750   2.998   3.250  14.189 -0.2992  0.0667  0.8601
 6112TIP3    H139751   2.949   3.293  14.259 -0.1977 -1.3527  1.8237
 6112TIP3    H239752   2.933   3.234  14.121 -0.2308  2.1869  0.2771
 6113TIP3   OH239753   0.028   0.674  17.030 -0.0415  0.6214  0.3138
 6113TIP3    H139754  -0.018   0.590  17.037  1.0367  0.0608  0.9347
 6113TIP3    H239755   0.082   0.677  17.109  1.1606  1.1432 -0.5130
 6114TIP3   OH239756   5.056   6.729  14.376 -0.0133 -0.2271 -0.4965
 6114TIP3    H139757   5.008   6.738  14.293 -0.2300 -1.3744 -0.5068
 6114TIP3    H239758   5.033   6.641  14.407  0.2146  0.1351  0.6903
 6115TIP3   OH239759   5.437   1.764  12.724  0.1306 -0.2304  0.1723
 6115TIP3    H139760   5.444   1.679  12.767 -1.2929 -0.4656 -0.0541
 6115TIP3    H239761   5.434   1.743  12.631  0.4647  0.1129  0.0831
 6116TIP3   OH239762   6.058   4.315   5.731  0.9946 -0.8791  0.1160
 6116TIP3    H139763   6.033   4.252   5.799 -0.4442  0.0186  0.4640
 6116TIP3    H239764   5.979   4.324   5.677  2.3248 -2.0594 -2.0835
 6117TIP3   OH239765   1.199   5.745  11.952  0.6746 -0.0021  0.0332
 6117TIP3    H139766   1.153   5.722  12.033 -0.9153 -0.8261 -1.0580
 6117TIP3    H239767   1.277   5.690  11.952 -0.0807 -1.1021  0.3126
 6118TIP3   OH239768   4.242   3.001  15.789  0.4813  1.0794  0.6939
 6118TIP3    H139769   4.323   2.966  15.824 -0.5042  0.2010  2.1420
 6118TIP3    H239770   4.189   2.924  15.770 -1.0447  1.7094  2.2811
 6119TIP3   OH239771   5.409   1.024  10.888  0.1367 -0.0925 -0.7382
 6119TIP3    H139772   5.413   0.942  10.838  2.5837 -0.0381 -0.7057
 6119TIP3    H239773   5.468   1.083  10.841  0.8704  0.6117  1.0382
 6120TIP3   OH239774   5.233   3.047  12.432  0.1536  0.1664 -0.3192
 6120TIP3    H139775   5.156   3.027  12.380  0.6562 -0.0742 -0.9778
 6120TIP3    H239776   5.215   3.132  12.471 -0.5217  0.0253 -0.3215
 6121TIP3   OH239777   5.310   0.683   1.503 -0.3364  0.4048  0.0851
 6121TIP3    H139778   5.264   0.757   1.541 -0.9570 -0.4350  0.9863
 6121TIP3    H239779   5.292   0.610   1.562  0.9689 -0.2723 -0.3287
 6122TIP3   OH239780   5.214   2.959  13.437 -0.6854  0.1119 -0.0993
 6122TIP3    H139781   5.255   3.025  13.382  0.1241  0.0371  0.4134
 6122TIP3    H239782   5.272   2.951  13.513 -0.8089 -1.1456 -0.1334
 6123TIP3   OH239783   1.629   5.970  11.498  0.1859  0.0775  0.0855
 6123TIP3    H139784   1.644   5.939  11.408  0.4133  0.7226 -0.1068
 6123TIP3    H239785   1.665   5.901  11.553 -0.4814 -0.5951 -0.3127
 6124TIP3   OH239786   4.183   0.412   4.818  0.0568 -0.1953  0.0973
 6124TIP3    H139787   4.090   0.430   4.828 -0.2769 -1.5843 -0.3929
 6124TIP3    H239788   4.201   0.343   4.881  0.3768 -1.1091 -0.9653
 6125TIP3   OH239789   1.896   2.960  14.704 -0.2760 -0.6130  0.3451
 6125TIP3    H139790   1.815   2.912  14.687 -0.6602  0.2743 -0.3242
 6125TIP3    H239791   1.963   2.891  14.708 -1.1673 -1.4278  1.7298
 6126TIP3   OH239792   3.477   5.324  10.999  0.5553  0.3963  0.1630
 6126TIP3    H139793   3.431   5.242  10.981 -1.8640  1.4204  1.4235
 6126TIP3    H239794   3.511   5.352  10.914 -2.7957  0.5353 -1.2031
 6127TIP3   OH239795   4.118   6.030   3.853 -0.2380 -0.8936 -0.2605
 6127TIP3    H139796   4.143   6.120   3.878 -1.9035 -0.5638  0.2701
 6127TIP3    H239797   4.179   6.008   3.782  0.3505  0.5662 -0.2459
 6128TIP3   OH239798   4.127   6.170   5.935  0.0683 -0.0156 -0.2428
 6128TIP3    H139799   4.112   6.152   5.842 -0.5485 -0.5976 -0.0339
 6128TIP3    H239800   4.209   6.220   5.937 -0.6147  1.1566 -1.2032
 6129TIP3   OH239801   3.000   0.634  15.330  0.3579  0.6298 -0.0379
 6129TIP3    H139802   3.001   0.567  15.398 -0.6093  1.1767  0.5307
 6129TIP3    H239803   2.941   0.702  15.364  1.9673  2.1607 -0.2072
 6130TIP3   OH239804   5.553   1.173  12.002  0.5167  0.0304 -0.0368
 6130TIP3    H139805   5.554   1.247  11.941 -0.4310  0.8430  0.9222
 6130TIP3    H239806   5.645   1.163  12.028  0.6392  0.9257 -0.0894
 6131TIP3   OH239807   3.574   1.841   0.960 -0.3250  0.1485 -0.3654
 6131TIP3    H139808   3.638   1.873   0.896 -1.2588  1.1350 -0.8173
 6131TIP3    H239809   3.559   1.750   0.936  1.7640 -0.4522  0.4423
 6132TIP3   OH239810   4.503   1.473   4.464 -0.4306  0.0083  0.0821
 6132TIP3    H139811   4.445   1.402   4.437 -2.6168  1.8217 -0.0522
 6132TIP3    H239812   4.575   1.470   4.401 -0.9532 -1.5030 -0.4602
 6133TIP3   OH239813   5.759   2.997   1.796 -0.3926  0.5980  0.1694
 6133TIP3    H139814   5.758   3.091   1.779 -2.2335  0.1676 -2.4648
 6133TIP3    H239815   5.684   2.963   1.748  0.2232 -2.2299  1.0920
 6134TIP3   OH239816   1.491   1.544  16.313 -0.3450 -0.4829 -0.5516
 6134TIP3    H139817   1.408   1.572  16.275 -0.2283  1.4114  0.5102
 6134TIP3    H239818   1.555   1.605  16.276  0.7376 -2.4565 -2.0230
 6135TIP3   OH239819   5.408   2.936  13.639 -0.5094  0.1472 -0.3842
 6135TIP3    H139820   5.371   2.899  13.719 -0.9991 -0.3121 -0.8218
 6135TIP3    H239821   5.425   3.028  13.661  0.7434 -0.3477  0.7101
 6136TIP3   OH239822   5.731   2.910  11.809  0.1851  0.5846 -0.2984
 6136TIP3    H139823   5.659   2.848  11.819 -0.6421  1.4917 -0.5490
 6136TIP3    H239824   5.810   2.858  11.824 -0.5676 -0.1865  1.1172
 6137TIP3   OH239825   6.138   5.617   1.404 -0.2065  0.4959 -0.6454
 6137TIP3    H139826   6.047   5.593   1.421 -0.2695 -0.2455 -1.9933
 6137TIP3    H239827   6.188   5.538   1.422  0.3680  1.3383  1.6139
 6138TIP3   OH239828   4.019   4.018  13.992 -0.3395 -0.2049  0.0829
 6138TIP3    H139829   3.965   4.094  13.969  1.5586  0.8189 -1.0612
 6138TIP3    H239830   3.966   3.943  13.965 -1.2258  0.7755 -0.9817
 6139TIP3   OH239831   0.456   5.266   6.377 -0.4769 -0.6021  0.0796
 6139TIP3    H139832   0.417   5.284   6.291  0.4758  1.7986  0.0956
 6139TIP3    H239833   0.504   5.184   6.365  0.9725  0.5259 -2.1473
 6140TIP3   OH239834   5.211   1.155  13.813 -0.0468  0.4216  0.0170
 6140TIP3    H139835   5.144   1.104  13.860  0.2457 -0.0186 -0.0415
 6140TIP3    H239836   5.234   1.225  13.873  1.1656 -0.8052  1.0239
 6141TIP3   OH239837   3.594   0.424  13.587 -0.3193  0.5386 -0.1694
 6141TIP3    H139838   3.520   0.369  13.561 -0.4579  1.4513 -1.7368
 6141TIP3    H239839   3.572   0.452  13.676 -0.4251 -1.6234  0.5156
 6142TIP3   OH239840   0.477   2.188   2.076 -0.1145  0.1919 -0.7269
 6142TIP3    H139841   0.393   2.206   2.119  0.2497  1.4760 -0.5023
 6142TIP3    H239842   0.471   2.097   2.047 -1.0579 -0.1443  0.4842
 6143TIP3   OH239843   0.214   0.120   1.810 -0.4585  0.0357  0.2442
 6143TIP3    H139844   0.153   0.168   1.865  0.1748  1.4079 -0.2261
 6143TIP3    H239845   0.164   0.098   1.732 -0.0572  2.1628 -0.6450
 6144TIP3   OH239846   6.676   3.165  13.351  0.3045  0.0146  0.0370
 6144TIP3    H139847   6.676   3.097  13.419  1.0284  0.0976  0.1271
 6144TIP3    H239848   6.767   3.167  13.320  0.2126  0.7339 -0.1800
 6145TIP3   OH239849   5.631   0.728   2.726  0.0588  0.1819  0.4693
 6145TIP3    H139850   5.540   0.752   2.743 -0.2008  0.3102 -1.0621
 6145TIP3    H239851   5.658   0.784   2.654  0.9831 -0.6780  0.1372
 6146TIP3   OH239852   6.444   2.098   2.421  0.2750 -0.1856  0.2821
 6146TIP3    H139853   6.432   2.163   2.353  1.1166 -1.9556 -1.6170
 6146TIP3    H239854   6.538   2.096   2.437  0.1062  0.0699  1.3395
 6147TIP3   OH239855   5.667   0.006  17.182  0.2818 -0.2657 -0.1848
 6147TIP3    H139856   5.604  -0.023  17.117  2.3216 -1.0323 -1.8810
 6147TIP3    H239857   5.651   0.100  17.191 -0.0910 -0.1665 -1.7285
 6148TIP3   OH239858   6.786   2.341  13.541 -0.1051 -0.1846 -0.2389
 6148TIP3    H139859   6.813   2.280  13.610 -1.7588 -1.0499 -0.3309
 6148TIP3    H239860   6.825   2.424  13.566  0.8185 -0.9095  0.7703
 6149TIP3   OH239861   4.718   5.126   5.623  0.4319  0.3025 -0.0436
 6149TIP3    H139862   4.686   5.194   5.563  2.3390  0.4177 -0.9988
 6149TIP3    H239863   4.659   5.129   5.698 -0.3266  2.0898 -0.6872
 6150TIP3   OH239864   4.518   3.862  11.285 -0.6394 -0.2636 -0.4077
 6150TIP3    H139865   4.542   3.773  11.312 -2.7356 -0.6980  0.0955
 6150TIP3    H239866   4.467   3.849  11.206 -1.3150  0.4678 -0.0876
 6151TIP3   OH239867   6.653   3.547  12.546 -0.4215 -0.0386  0.4586
 6151TIP3    H139868   6.656   3.462  12.503 -2.2572  0.0540  0.0776
 6151TIP3    H239869   6.577   3.542  12.604 -0.2720  1.1758  0.7813
 6152TIP3   OH239870   4.692   2.900   1.019 -0.4135 -0.3587 -0.5282
 6152TIP3    H139871   4.701   2.811   1.053  0.1261 -0.2632 -0.4092
 6152TIP3    H239872   4.682   2.888   0.924 -1.7592 -0.6154 -0.3517
 6153TIP3   OH239873   0.694   1.116  13.644  0.2627  0.2090 -0.2350
 6153TIP3    H139874   0.640   1.049  13.601  0.9573 -1.3467  1.3004
 6153TIP3    H239875   0.650   1.131  13.728  0.5633  1.1115 -0.2386
 6154TIP3   OH239876   0.934   4.761  11.964  0.2866 -0.2231 -0.6375
 6154TIP3    H139877   0.941   4.847  11.922 -0.3048  0.7402  1.1994
 6154TIP3    H239878   0.867   4.772  12.031 -2.1477 -2.9966 -2.4782
 6155TIP3   OH239879   2.548   1.754  15.303  0.4311  0.3898  0.1962
 6155TIP3    H139880   2.537   1.843  15.336 -1.1101  0.0802  0.5558
 6155TIP3    H239881   2.464   1.733  15.261  1.3751 -0.2583 -1.4417
 6156TIP3   OH239882   1.243   3.964   0.367  0.0350  0.8120  0.4652
 6156TIP3    H139883   1.168   3.908   0.346  2.3174 -1.0480 -3.1442
 6156TIP3    H239884   1.288   3.918   0.438 -0.5818  0.3925  0.5946
 6157TIP3   OH239885   1.859   4.153  16.777  0.5605 -0.1276  0.0735
 6157TIP3    H139886   1.800   4.151  16.703  0.9132 -2.1664 -0.1610
 6157TIP3    H239887   1.940   4.190  16.742  0.7203 -1.0661 -0.5633
 6158TIP3   OH239888   0.208   3.488   2.277 -0.1290 -0.2782  0.2127
 6158TIP3    H139889   0.171   3.577   2.276 -0.5893 -0.4669  0.1250
 6158TIP3    H239890   0.155   3.440   2.214 -0.1542 -0.7275  0.5748
 6159TIP3   OH239891   3.157   0.510   3.092  0.2976  0.3199  0.2148
 6159TIP3    H139892   3.206   0.591   3.077  1.3113 -0.0159  1.5781
 6159TIP3    H239893   3.106   0.527   3.171  0.5913 -0.3859  0.5676
 6160TIP3   OH239894   4.971   5.894  11.676  0.6424 -0.8232 -0.5822
 6160TIP3    H139895   4.940   5.893  11.766  0.1695  1.0250 -0.7133
 6160TIP3    H239896   4.899   5.857  11.625 -0.2024  0.7344 -0.5338
 6161TIP3   OH239897   0.016   5.053   3.041  0.2956 -0.1455 -0.3646
 6161TIP3    H139898   0.017   5.008   2.956 -0.9372  0.2225 -0.5921
 6161TIP3    H239899   0.042   5.143   3.021  0.0126 -0.0605 -0.3604
 6162TIP3   OH239900   5.792   5.453  16.258  0.2221  0.5563  0.8776
 6162TIP3    H139901   5.858   5.485  16.319 -0.4827  1.9630  0.9307
 6162TIP3    H239902   5.727   5.411  16.313  0.0883  0.9342  1.0100
 6163TIP3   OH239903   6.337   6.312   1.801  0.8361  0.4288  0.1661
 6163TIP3    H139904   6.323   6.333   1.709  0.0263 -1.1149 -0.0846
 6163TIP3    H239905   6.258   6.265   1.828  0.6422  1.6944  1.9264
 6164TIP3   OH239906   1.574   4.464  15.042 -0.4057 -0.4466  0.1175
 6164TIP3    H139907   1.539   4.458  15.131 -0.9070 -2.0967 -0.1713
 6164TIP3    H239908   1.663   4.431  15.049 -0.0070  0.6376  0.2363
 6165TIP3   OH239909   2.533   0.844  11.343  0.1540 -0.7607  0.2555
 6165TIP3    H139910   2.569   0.755  11.351  1.2982 -0.2720  0.6190
 6165TIP3    H239911   2.533   0.878  11.432 -2.9064 -1.3800  0.5385
 6166TIP3   OH239912   5.255   6.217  15.633 -0.4711  0.1321  0.4419
 6166TIP3    H139913   5.179   6.198  15.579  0.2585  2.0049 -1.2792
 6166TIP3    H239914   5.302   6.134  15.637 -0.6363 -0.0829 -1.6486
 6167TIP3   OH239915   4.333   2.191   3.150 -0.8682  0.2603  0.1706
 6167TIP3    H139916   4.420   2.171   3.115 -1.3278  1.1342 -1.5044
 6167TIP3    H239917   4.349   2.260   3.215 -0.2216 -0.1302  0.4296
 6168TIP3   OH239918   6.182   1.002  11.659 -0.1156 -0.0319 -0.1199
 6168TIP3    H139919   6.192   0.913  11.691 -0.3877 -0.4665 -1.2294
 6168TIP3    H239920   6.143   1.050  11.733  0.5815 -0.6821  0.6722
 6169TIP3   OH239921   2.955   2.416  13.825  0.5018 -0.3605  0.1567
 6169TIP3    H139922   2.885   2.457  13.875  1.6416  0.4312  1.1147
 6169TIP3    H239923   2.933   2.323  13.825  0.0839 -0.2670  1.4630
 6170TIP3   OH239924   0.133   2.327   6.538  0.2927  0.7370  0.0276
 6170TIP3    H139925   0.132   2.345   6.444 -0.0196 -0.6946 -0.2585
 6170TIP3    H239926   0.119   2.233   6.544  1.6642  0.6098  1.4636
 6171TIP3   OH239927   5.321   2.903   2.203 -1.0447 -0.3700 -0.5231
 6171TIP3    H139928   5.405   2.857   2.214 -0.7878  0.7426  3.0099
 6171TIP3    H239929   5.313   2.918   2.109  3.7608  1.3917 -0.7766
 6172TIP3   OH239930   2.050   5.080  11.894  0.6892  0.0600  0.0634
 6172TIP3    H139931   1.990   5.022  11.845 -0.8975  1.1289  0.6886
 6172TIP3    H239932   2.044   5.050  11.984  0.0048  1.0679  0.3586
 6173TIP3   OH239933   3.949   0.255   5.564 -0.1813 -0.1087 -0.8705
 6173TIP3    H139934   3.959   0.350   5.573  1.1280 -0.3802  0.7630
 6173TIP3    H239935   3.989   0.234   5.480  1.2935  0.5408 -0.3429
 6174TIP3   OH239936   5.466   3.425  14.670  0.4277 -0.1850 -0.1947
 6174TIP3    H139937   5.424   3.339  14.667  3.2122 -1.5613 -0.8814
 6174TIP3    H239938   5.497   3.433  14.761 -0.2138  0.3012 -0.0140
 6175TIP3   OH239939   2.979   5.946   0.111 -0.6370 -0.1531 -0.8889
 6175TIP3    H139940   2.976   5.856   0.077 -0.3424 -0.2465 -0.6658
 6175TIP3    H239941   3.005   5.936   0.202  1.2336  0.2842 -1.3523
 6176TIP3   OH239942   3.483   1.638   1.782  0.0211  0.2322 -0.4469
 6176TIP3    H139943   3.481   1.546   1.810 -1.2953  0.5713  0.6090
 6176TIP3    H239944   3.393   1.657   1.756  0.4196  1.0649 -1.2400
 6177TIP3   OH239945   3.256   5.053  14.342 -0.0291  0.6273  0.0356
 6177TIP3    H139946   3.217   4.970  14.370 -0.1708  1.4054  2.1951
 6177TIP3    H239947   3.210   5.074  14.260 -0.9206 -0.7689  0.1633
 6178TIP3   OH239948   6.525   5.875   5.201 -0.6063  0.0338 -0.2261
 6178TIP3    H139949   6.594   5.838   5.255 -0.3831  2.2429  1.0356
 6178TIP3    H239950   6.444   5.841   5.239 -0.3123 -1.2361 -0.6976
 6179TIP3   OH239951   6.264   6.507  14.318  0.6380  0.3308  0.1102
 6179TIP3    H139952   6.326   6.565  14.273  0.8726  0.6821  0.8593
 6179TIP3    H239953   6.316   6.430  14.341  0.0551 -0.6791 -1.8510
 6180TIP3   OH239954   3.751   0.427  11.155  0.0190  0.8385 -0.3449
 6180TIP3    H139955   3.788   0.506  11.195 -0.0437  0.5221  0.3404
 6180TIP3    H239956   3.813   0.357  11.177 -0.0104  0.6634 -0.8076
 6181TIP3   OH239957   0.008   2.864   3.365  0.2045  0.0688  1.1624
 6181TIP3    H139958   0.102   2.866   3.384  0.4103  1.3144  0.1121
 6181TIP3    H239959   0.003   2.852   3.270 -0.5977  3.7990  0.6387
 6182TIP3   OH239960   1.272   2.923  12.664  0.2526 -0.4649  0.4291
 6182TIP3    H139961   1.357   2.948  12.627  0.1886 -0.5057  0.2528
 6182TIP3    H239962   1.212   2.992  12.636  0.0351 -0.9082 -0.2211
 6183TIP3   OH239963   1.170   3.982   2.459 -0.1823  0.2320  0.1996
 6183TIP3    H139964   1.184   4.016   2.548  0.2167  1.5793 -0.3671
 6183TIP3    H239965   1.147   4.059   2.408  3.7886  0.2405 -1.7954
 6184TIP3   OH239966   5.741   6.449   3.718  0.0226 -0.3792 -0.1203
 6184TIP3    H139967   5.675   6.393   3.676 -0.9633  0.7317 -0.0869
 6184TIP3    H239968   5.715   6.538   3.693  1.8214  0.0402 -0.5383
 6185TIP3   OH239969   5.157   6.582   2.008 -0.3499  0.9450 -0.1590
 6185TIP3    H139970   5.119   6.669   2.021 -2.5715 -0.2216  1.3483
 6185TIP3    H239971   5.128   6.557   1.921 -0.9490  1.0877 -0.0010
 6186TIP3   OH239972   2.176   1.560  12.250 -0.1211 -0.1288  0.0561
 6186TIP3    H139973   2.121   1.637  12.263 -0.9463 -0.7960  0.5233
 6186TIP3    H239974   2.213   1.542  12.336 -1.1993 -1.2082  0.3062
 6187TIP3   OH239975   1.467   4.724  12.995 -0.3638 -0.0414  0.0650
 6187TIP3    H139976   1.511   4.804  12.966 -2.5137  1.4018  0.6697
 6187TIP3    H239977   1.375   4.738  12.974 -0.9476 -1.8902  1.2617
 6188TIP3   OH239978   1.396   1.917  14.037  0.1443  0.8465 -1.1427
 6188TIP3    H139979   1.399   1.960  13.951 -0.9660  1.9050 -0.6841
 6188TIP3    H239980   1.311   1.943  14.073  0.9274  1.0649  0.6037
 6189TIP3   OH239981   5.342   6.248   3.959 -0.2889 -0.1500 -0.2245
 6189TIP3    H139982   5.290   6.224   4.035  0.0951 -0.8403 -0.1717
 6189TIP3    H239983   5.428   6.209   3.976 -0.3246 -0.6783 -1.2096
 6190TIP3   OH239984   1.540   1.249   3.945  0.5587 -0.5705  0.1164
 6190TIP3    H139985   1.610   1.281   3.887  0.3706 -1.2368 -0.4846
 6190TIP3    H239986   1.477   1.321   3.947  1.3971  0.1603  0.9033
 6191TIP3   OH239987   5.323   5.960  11.681  0.1468 -0.1653 -0.8118
 6191TIP3    H139988   5.409   5.959  11.723  0.3381  1.4111 -1.1587
 6191TIP3    H239989   5.286   5.874  11.702  1.5165 -0.5991 -0.0801
 6192TIP3   OH239990   2.813   3.015   2.227 -0.2484  0.0570  0.7879
 6192TIP3    H139991   2.857   3.100   2.228 -2.0665  1.0521 -0.4483
 6192TIP3    H239992   2.803   2.994   2.134 -1.1190 -0.8223  1.0661
 6193TIP3   OH239993   1.408   0.890  14.777  0.0734  0.6260 -0.0543
 6193TIP3    H139994   1.366   0.884  14.690  0.7594  3.3890 -0.6436
 6193TIP3    H239995   1.463   0.968  14.771  2.6010 -0.9569  1.8729
 6194TIP3   OH239996   3.167   5.525   4.189 -0.6081 -0.1038 -0.1579
 6194TIP3    H139997   3.224   5.602   4.187 -0.7260 -0.0237 -0.4594
 6194TIP3    H239998   3.091   5.550   4.137 -0.6866 -0.3930 -0.1826
 6195TIP3   OH239999   6.099   2.724   3.871 -0.4565  0.2517 -0.2468
 6195TIP3    H140000   6.058   2.668   3.806 -1.1554 -1.0207  1.2790
 6195TIP3    H240001   6.189   2.691   3.878 -0.0606  1.0619 -1.3083
 6196TIP3   OH240002   5.287   1.640   2.782  0.0774  0.0294 -0.3429
 6196TIP3    H140003   5.246   1.706   2.839 -0.4589  0.1934 -0.9167
 6196TIP3    H240004   5.279   1.558   2.831 -0.2768  0.1887 -0.1304
 6197TIP3   OH240005   5.798   4.353   5.632  0.0567  0.7328  0.0986
 6197TIP3    H140006   5.773   4.430   5.682 -0.6229 -0.4669  1.6463
 6197TIP3    H240007   5.715   4.311   5.610  0.3785  0.8833 -1.4806
 6198TIP3   OH240008   6.264   0.393   3.341  0.1322 -0.5296 -0.3244
 6198TIP3    H140009   6.260   0.419   3.249 -1.3022  0.6150  0.0542
 6198TIP3    H240010   6.224   0.306   3.343  0.9204 -0.9111 -0.9038
 6199TIP3   OH240011   6.580   1.316  15.209  0.6736 -0.3219 -0.3261
 6199TIP3    H140012   6.590   1.399  15.162  1.3905 -0.1678  0.0780
 6199TIP3    H240013   6.644   1.322  15.280 -1.4673  0.1208  1.6288
 6200TIP3   OH240014   0.008   6.473   2.444 -0.2346 -0.1017 -0.3862
 6200TIP3    H140015   0.006   6.413   2.370 -0.7829 -0.8302  0.2106
 6200TIP3    H240016   0.050   6.552   2.410 -0.7387 -0.3241 -1.5498
 6201TIP3   OH240017   6.054   3.171  15.184 -0.9330 -0.5155 -0.3468
 6201TIP3    H140018   6.034   3.142  15.273 -0.1553 -2.1553 -0.6792
 6201TIP3    H240019   6.093   3.258  15.195 -1.2550 -0.5112  0.8710
 6202TIP3   OH240020   0.136   5.096  16.203  0.2752 -0.3124 -0.7482
 6202TIP3    H140021   0.083   5.151  16.145  0.0661  0.1528 -0.1308
 6202TIP3    H240022   0.226   5.123  16.186  0.0728  1.4144  0.7223
 6203TIP3   OH240023   3.033   2.239  15.547 -0.0642  0.1108  0.4957
 6203TIP3    H140024   3.116   2.286  15.543 -1.0369  2.1942  2.9203
 6203TIP3    H240025   3.058   2.148  15.563  1.8205  0.0115 -2.7364
 6204TIP3   OH240026   2.420   4.493   3.320 -0.5020 -0.1207 -0.0344
 6204TIP3    H140027   2.353   4.443   3.368 -0.8525  0.8106  0.4491
 6204TIP3    H240028   2.502   4.474   3.366 -0.4660 -1.0565 -0.4683
 6205TIP3   OH240029   5.280   4.714   5.213  0.8970  0.0487 -0.0770
 6205TIP3    H140030   5.317   4.692   5.128 -0.2838  1.1403 -0.9097
 6205TIP3    H240031   5.212   4.648   5.227  0.0014  0.8103 -0.7492
 6206TIP3   OH240032   3.888   1.193   2.391  0.1277 -0.2064  0.3122
 6206TIP3    H140033   3.840   1.139   2.453 -0.0993  0.1241  0.4279
 6206TIP3    H240034   3.961   1.228   2.442 -1.4727  2.1050  1.1071
 6207TIP3   OH240035   1.637   3.906  14.158 -0.0442 -0.1703 -0.6312
 6207TIP3    H140036   1.608   3.904  14.249  0.5904 -0.0690 -0.4316
 6207TIP3    H240037   1.636   3.999  14.135  1.9754  0.0142 -0.0393
 6208TIP3   OH240038   2.432   2.153  15.130 -0.2872  0.4973 -0.3408
 6208TIP3    H140039   2.339   2.142  15.150 -0.6891  2.0342 -1.2193
 6208TIP3    H240040   2.434   2.171  15.036  0.8125  1.2965 -0.1783
 6209TIP3   OH240041   3.827   1.661   6.392 -0.3056  0.0685 -0.0853
 6209TIP3    H140042   3.911   1.686   6.353  0.4738  0.3691  1.7059
 6209TIP3    H240043   3.831   1.565   6.396 -1.8251 -0.2079 -3.7699
 6210TIP3   OH240044   6.461   5.568   0.274  0.4644  0.7936 -0.2976
 6210TIP3    H140045   6.502   5.643   0.232  1.5438  0.1626 -0.4055
 6210TIP3    H240046   6.413   5.605   0.348  0.9880  1.5895 -0.3458
 6211TIP3   OH240047   0.156   0.754   3.345  0.1216  0.5477 -0.3287
 6211TIP3    H140048   0.081   0.695   3.344  0.7402 -0.2411 -0.8388
 6211TIP3    H240049   0.128   0.828   3.398 -0.0080 -1.0439  1.8726
 6212TIP3   OH240050   1.778   0.848   5.845 -0.5722 -0.1042 -0.4416
 6212TIP3    H140051   1.802   0.853   5.752 -0.0261  0.7513 -0.2595
 6212TIP3    H240052   1.817   0.926   5.884 -0.8057 -0.4578  0.5112
 6213TIP3   OH240053   1.284   6.119  12.400  0.2075 -0.3806 -0.1140
 6213TIP3    H140054   1.232   6.068  12.461 -1.7130  0.5454 -0.9475
 6213TIP3    H240055   1.245   6.101  12.314  0.9558  0.7033 -0.6941
 6214TIP3   OH240056   3.732   5.120  11.517  0.8932 -0.8075  0.1216
 6214TIP3    H140057   3.653   5.159  11.555  1.0950 -0.0807 -0.1994
 6214TIP3    H240058   3.727   5.028  11.542  1.0035 -0.3518  1.9103
 6215TIP3   OH240059   5.328   1.313   0.423  0.4316 -0.1587 -0.1705
 6215TIP3    H140060   5.404   1.347   0.471  0.6609 -0.1777 -0.5207
 6215TIP3    H240061   5.283   1.391   0.391 -0.8514 -0.0409  1.7734
 6216TIP3   OH240062   4.136   0.174   3.944  0.1037 -0.2757  0.3431
 6216TIP3    H140063   4.164   0.265   3.955 -0.1528 -0.0607 -0.7282
 6216TIP3    H240064   4.118   0.166   3.850  1.4837 -1.8289  0.2049
 6217TIP3   OH240065   3.641   5.264   1.543  0.0370  0.1167 -0.1747
 6217TIP3    H140066   3.684   5.335   1.591 -0.5258  0.3487 -0.0070
 6217TIP3    H240067   3.560   5.248   1.592  0.3175 -0.8671 -0.0255
 6218TIP3   OH240068   6.079   2.638  17.131 -0.0839 -0.2964 -0.3987
 6218TIP3    H140069   6.109   2.661  17.043 -1.6563 -0.7941 -1.0911
 6218TIP3    H240070   6.063   2.544  17.127 -1.5056 -0.0889 -0.0165
 6219TIP3   OH240071   4.687   2.967   0.381  0.3486  0.0681  0.0192
 6219TIP3    H140072   4.686   2.986   0.287 -0.8549  1.1863  0.2522
 6219TIP3    H240073   4.642   2.883   0.389 -0.7271  0.6060 -0.2752
 6220TIP3   OH240074   6.465   2.272   0.495 -0.1234  0.1704 -0.2929
 6220TIP3    H140075   6.447   2.356   0.452  0.3748 -0.0966 -1.0365
 6220TIP3    H240076   6.384   2.252   0.542  0.1374  1.6071  0.8083
 6221TIP3   OH240077   0.982   2.524   1.235  0.2500 -0.1494 -0.3719
 6221TIP3    H140078   1.003   2.473   1.157  2.3362 -2.2251  1.4541
 6221TIP3    H240079   0.894   2.496   1.260  0.0310 -0.3216 -1.3405
 6222TIP3   OH240080   0.583   2.627  11.267  0.4292  0.5315 -0.0351
 6222TIP3    H140081   0.559   2.720  11.274  3.9233  1.4862  0.0728
 6222TIP3    H240082   0.652   2.625  11.201 -0.6905 -2.2601 -1.2055
 6223TIP3   OH240083   2.825   2.892  12.585 -0.2886 -0.5772  0.5729
 6223TIP3    H140084   2.865   2.927  12.665  1.0702 -1.2751  0.2126
 6223TIP3    H240085   2.815   2.968  12.528  2.3945 -0.6933 -0.1024
 6224TIP3   OH240086   5.762   1.943   4.574 -0.1471 -0.1763 -0.0536
 6224TIP3    H140087   5.771   2.038   4.574 -0.0604 -0.1804 -1.1136
 6224TIP3    H240088   5.806   1.915   4.494 -0.7464 -1.0525 -0.0838
 6225TIP3   OH240089   0.298   1.377  10.669  0.1363 -0.4847  0.5538
 6225TIP3    H140090   0.221   1.358  10.615  0.5330  0.5547 -0.3921
 6225TIP3    H240091   0.262   1.409  10.752 -0.4712  2.1401 -0.6678
 6226TIP3   OH240092   1.090   3.480   1.964 -0.4510 -0.1448 -0.3290
 6226TIP3    H140093   1.113   3.446   1.878  0.3938 -0.8488  0.1582
 6226TIP3    H240094   1.103   3.574   1.957  2.2971 -0.4544 -0.2090
 6227TIP3   OH240095   5.120   0.985  17.239  0.2873  0.1045  0.1770
 6227TIP3    H140096   5.078   0.981  17.153 -0.3812  0.4214  0.4860
 6227TIP3    H240097   5.054   1.025  17.296 -0.2524 -2.4741  1.4401
 6228TIP3   OH240098   5.107   6.284  12.995 -0.2760 -0.3515 -0.3291
 6228TIP3    H140099   5.105   6.212  12.932 -1.8489 -0.9296  0.3715
 6228TIP3    H240100   5.030   6.271  13.050  0.6094  0.6265  1.1940
 6229TIP3   OH240101   2.631   4.616   0.478  0.6584  0.2582  0.1779
 6229TIP3    H140102   2.546   4.577   0.457 -0.0412  1.8243  0.0344
 6229TIP3    H240103   2.692   4.541   0.479 -0.2215 -0.5758 -2.2940
 6230TIP3   OH240104   5.071   2.195  11.956 -0.2888  0.0610  0.0423
 6230TIP3    H140105   5.151   2.148  11.978  0.2289  0.1002 -1.7242
 6230TIP3    H240106   5.020   2.195  12.038  1.7889  0.6572  1.3619
 6231TIP3   OH240107   4.666   5.768   5.248 -0.2549  0.2069 -0.8000
 6231TIP3    H140108   4.597   5.834   5.249 -0.1291  0.3469 -1.3783
 6231TIP3    H240109   4.666   5.733   5.337 -0.5422  0.7528 -0.5801
 6232TIP3   OH240110   5.348   0.209  15.942 -0.6166 -0.2384 -0.3277
 6232TIP3    H140111   5.350   0.148  16.016  0.4740  0.2652  0.0763
 6232TIP3    H240112   5.275   0.268  15.961  0.7557  0.9923  1.2693
 6233TIP3   OH240113   5.929   4.863  12.320  0.6274 -0.1656 -0.0802
 6233TIP3    H140114   5.851   4.845  12.267 -0.0482  1.2576  0.3907
 6233TIP3    H240115   5.914   4.816  12.402  0.4681 -0.2344 -0.1492
 6234TIP3   OH240116   4.809   4.361  15.892 -0.2036 -0.1394 -0.2289
 6234TIP3    H140117   4.855   4.433  15.849 -0.8638  0.7769  0.5601
 6234TIP3    H240118   4.844   4.282  15.851  1.5817  0.5594 -0.1156
 6235TIP3   OH240119   1.229   4.401   0.970 -0.5059 -0.1067  0.1999
 6235TIP3    H140120   1.224   4.448   0.887  0.6911  0.0487  0.2134
 6235TIP3    H240121   1.219   4.469   1.037 -1.5197 -0.2377  0.1852
 6236TIP3   OH240122   3.008   0.591  10.888 -0.4371 -0.0945 -0.0608
 6236TIP3    H140123   2.965   0.512  10.855 -0.9385  0.1299  0.0562
 6236TIP3    H240124   2.998   0.655  10.818 -0.8666  0.1571  0.2254
 6237TIP3   OH240125   0.946   1.264   4.354 -0.1219  0.2412  0.1971
 6237TIP3    H140126   0.982   1.192   4.303  3.8552  2.2102  0.0388
 6237TIP3    H240127   0.878   1.301   4.299 -0.3418 -1.6712 -0.8736
 6238TIP3   OH240128   5.855   4.129  13.032  0.3176  0.3003  0.0876
 6238TIP3    H140129   5.825   4.163  12.948 -1.1368 -0.0725  0.4421
 6238TIP3    H240130   5.859   4.034  13.019  2.1253  0.3921 -0.1877
 6239TIP3   OH240131   3.373   0.229  11.269 -0.5248  0.0237 -0.7499
 6239TIP3    H140132   3.385   0.249  11.176 -2.6993  1.2049 -0.8066
 6239TIP3    H240133   3.342   0.139  11.270 -1.3562  0.2926 -1.2572
 6240TIP3   OH240134   5.013   4.938   2.191  0.1722 -0.4725 -0.5636
 6240TIP3    H140135   4.945   4.983   2.141 -0.2467  1.1271  1.3817
 6240TIP3    H240136   4.971   4.858   2.222 -1.1860  0.9067  1.3447
 6241TIP3   OH240137   5.337   0.948   5.247  0.0500  0.3020 -0.2114
 6241TIP3    H140138   5.339   1.040   5.221 -0.8534  0.4746  0.3081
 6241TIP3    H240139   5.259   0.913   5.203 -0.2220  0.0501  0.4719
 6242TIP3   OH240140   3.011   1.416  11.237 -0.3472 -0.5264 -0.1483
 6242TIP3    H140141   3.067   1.343  11.211 -0.8317 -0.2914 -1.9616
 6242TIP3    H240142   2.933   1.374  11.274 -1.0882 -0.9801 -2.1694
 6243TIP3   OH240143   5.070   1.578  16.316  0.2789 -0.0362 -0.1181
 6243TIP3    H140144   5.072   1.669  16.347  1.4496 -0.6970  1.8391
 6243TIP3    H240145   4.986   1.544  16.348  1.5221 -0.7421  2.5119
 6244TIP3   OH240146   5.966   5.321   4.956 -0.7376  0.5884 -0.7479
 6244TIP3    H140147   5.973   5.229   4.931 -0.1561  0.6744 -0.9166
 6244TIP3    H240148   5.969   5.368   4.873  2.4863  0.9499 -0.5020
 6245TIP3   OH240149   0.373   1.464   4.541  0.1918 -0.1852  0.5925
 6245TIP3    H140150   0.395   1.510   4.460 -0.7727  1.0103  0.9951
 6245TIP3    H240151   0.296   1.411   4.519  0.8679 -1.0713  0.3223
 6246TIP3   OH240152   2.316   6.736  15.260 -0.1455  0.1929 -0.7081
 6246TIP3    H140153   2.350   6.699  15.178 -0.7085  0.7204 -1.1869
 6246TIP3    H240154   2.346   6.827  15.259  1.1257 -0.1898  0.4055
 6247TIP3   OH240155   3.437   0.668  10.651  0.0176 -0.7579  0.4579
 6247TIP3    H140156   3.364   0.645  10.593  0.7684 -0.6885 -0.5402
 6247TIP3    H240157   3.414   0.753  10.686 -0.1725 -0.5225 -0.2260
 6248TIP3   OH240158   3.023   4.158   1.186  0.7441  0.1564 -0.1152
 6248TIP3    H140159   2.962   4.195   1.251  0.7777  0.1474 -0.0786
 6248TIP3    H240160   3.099   4.216   1.189  0.4494  0.5717 -0.6598
 6249TIP3   OH240161   0.855   4.294  10.417 -0.3052 -0.5625  0.3365
 6249TIP3    H140162   0.793   4.354  10.374 -1.6478 -1.1203  1.4453
 6249TIP3    H240163   0.879   4.338  10.498  0.0187 -0.7711  0.3525
 6250TIP3   OH240164   1.822   1.649   0.947  0.1727 -0.6013  0.5896
 6250TIP3    H140165   1.894   1.594   0.915  0.8929  0.2371  0.7334
 6250TIP3    H240166   1.852   1.739   0.931 -0.7385 -0.2387  0.8873
 6251TIP3   OH240167   0.318   6.235   1.612 -0.1830  0.5495  0.9165
 6251TIP3    H140168   0.260   6.270   1.680 -0.0469  0.9078  0.8458
 6251TIP3    H240169   0.283   6.147   1.595 -0.7398  0.7833  0.8337
 6252TIP3   OH240170   5.016   4.830  15.417  0.4499  0.4543  0.0861
 6252TIP3    H140171   5.105   4.800  15.396 -0.1774 -1.3000 -0.1567
 6252TIP3    H240172   4.967   4.818  15.335  0.2173  2.3525 -0.0659
 6253TIP3   OH240173   5.503   1.452  15.526 -0.2648 -0.0264 -0.6306
 6253TIP3    H140174   5.420   1.417  15.559 -0.4443 -1.0736 -2.1225
 6253TIP3    H240175   5.567   1.385  15.548  0.0179  0.3241 -0.3815
 6254TIP3   OH240176   3.856   0.483  13.643  0.1467 -0.2236  0.1371
 6254TIP3    H140177   3.910   0.416  13.685  1.6186  0.9974  0.2295
 6254TIP3    H240178   3.768   0.446  13.643  1.2425 -3.0391 -1.6097
 6255TIP3   OH240179   3.406   2.561  16.835 -0.3511 -0.5409  0.5936
 6255TIP3    H140180   3.317   2.554  16.801 -0.4101 -0.9568  0.8445
 6255TIP3    H240181   3.395   2.574  16.929 -0.0781 -3.1053  1.0032
 6256TIP3   OH240182   4.163   3.420   0.623 -0.0132  0.5887 -0.1592
 6256TIP3    H140183   4.099   3.492   0.628 -0.9114 -0.1858 -0.4817
 6256TIP3    H240184   4.233   3.455   0.569  0.4835  1.9313  1.2955
 6257TIP3   OH240185   4.353   0.514   2.350 -0.0813  0.7318 -0.0329
 6257TIP3    H140186   4.387   0.599   2.321 -1.0027  1.5872  1.3364
 6257TIP3    H240187   4.310   0.533   2.433 -0.0237 -1.1506  0.4345
 6258TIP3   OH240188   2.632   6.707  12.999  0.2054  0.0587  0.6274
 6258TIP3    H140189   2.652   6.673  12.912 -0.3594  0.2788  0.4114
 6258TIP3    H240190   2.573   6.781  12.983  0.0014  0.0240  1.2045
 6259TIP3   OH240191   0.912   4.666  16.046 -0.4375 -0.1612  0.6642
 6259TIP3    H140192   0.858   4.742  16.066 -0.6158 -0.4296  1.2124
 6259TIP3    H240193   0.870   4.625  15.971 -0.1878  0.4291  0.1929
 6260TIP3   OH240194   2.341   2.664   4.271  0.3311  0.3769  0.0405
 6260TIP3    H140195   2.343   2.657   4.176  1.4046 -0.0604  0.0848
 6260TIP3    H240196   2.313   2.754   4.288  0.6983  0.6381 -0.6918
 6261TIP3   OH240197   6.602   1.650  15.124 -0.0127  0.1406 -0.2734
 6261TIP3    H140198   6.692   1.657  15.156  0.4329  2.4279 -1.9568
 6261TIP3    H240199   6.555   1.719  15.171 -0.7850 -0.6792  0.1739
 6262TIP3   OH240200   6.662   6.183   1.658  0.1363  0.4287  0.3284
 6262TIP3    H140201   6.596   6.113   1.654 -0.0365  0.5002  1.6038
 6262TIP3    H240202   6.645   6.236   1.581 -1.0721  0.2300  0.4454
 6263TIP3   OH240203   6.596   1.362  11.235  0.0452  0.0602  0.2053
 6263TIP3    H140204   6.548   1.303  11.177 -0.6873  0.9714 -0.1178
 6263TIP3    H240205   6.687   1.331  11.231 -0.2469 -0.7365 -0.3437
 6264TIP3   OH240206   3.776   0.958   4.028  0.2562  0.0097 -0.2296
 6264TIP3    H140207   3.735   1.022   3.971  0.1033  0.2163  0.1101
 6264TIP3    H240208   3.777   1.000   4.115  1.9920  0.3605 -0.4099
 6265TIP3   OH240209   1.449   4.938  10.427  0.2195 -0.1682  0.2418
 6265TIP3    H140210   1.368   4.981  10.399 -0.7600 -1.1769  1.4798
 6265TIP3    H240211   1.509   5.011  10.445 -0.5251  0.6009 -0.3388
 6266TIP3   OH240212   2.806   4.676   1.865 -0.3827  0.7821 -0.1738
 6266TIP3    H140213   2.901   4.675   1.852 -0.3324 -0.1209  0.2393
 6266TIP3    H240214   2.796   4.692   1.959 -0.6590  1.7017 -0.3531
 6267TIP3   OH240215   2.913   1.052   3.269  0.5466 -0.2155  0.0059
 6267TIP3    H140216   2.942   1.120   3.330 -1.8864  0.9256 -0.0673
 6267TIP3    H240217   2.927   0.970   3.317  2.3485  0.3777  0.5550
 6268TIP3   OH240218   2.045   0.938  11.418  0.3539  0.5067  0.6467
 6268TIP3    H140219   1.952   0.960  11.409 -0.1042 -0.9453  1.5837
 6268TIP3    H240220   2.056   0.914  11.510  1.6162  0.4991  0.5104
 6269TIP3   OH240221   4.421   0.648  11.843  0.2115 -0.2624 -0.9586
 6269TIP3    H140222   4.487   0.668  11.776 -1.7783 -0.0800 -2.9202
 6269TIP3    H240223   4.390   0.733  11.873  0.9335 -0.3462  0.0487
 6270TIP3   OH240224   1.964   5.231   1.430  0.1550  0.3782 -0.5000
 6270TIP3    H140225   1.940   5.156   1.376 -2.4857  1.7197 -1.2470
 6270TIP3    H240226   2.041   5.268   1.386  0.0030 -0.4448 -1.4745
 6271TIP3   OH240227   0.787   2.381   3.222 -0.0170  0.0792  0.0838
 6271TIP3    H140228   0.843   2.453   3.251  1.5032 -0.9920 -0.1549
 6271TIP3    H240229   0.725   2.369   3.294  1.0846  0.2000  1.0557
 6272TIP3   OH240230   2.145   0.738  11.802  0.4701  0.0493 -0.0713
 6272TIP3    H140231   2.068   0.768  11.753  0.4476  0.2897  0.1085
 6272TIP3    H240232   2.110   0.684  11.873  0.3255  1.7357  1.1737
 6273TIP3   OH240233   3.725   5.197   5.516 -0.2235 -0.0901  0.3282
 6273TIP3    H140234   3.709   5.223   5.425  0.5797 -2.5153 -0.5563
 6273TIP3    H240235   3.810   5.235   5.537 -0.1236 -0.0312 -0.1690
 6274TIP3   OH240236   4.783   5.948  16.044 -0.3151  0.2276  0.0210
 6274TIP3    H140237   4.846   5.937  16.115 -0.8305  1.3192  0.6520
 6274TIP3    H240238   4.704   5.904  16.076 -0.1115 -0.5170 -0.4741
 6275TIP3   OH240239   2.903   0.532   0.573 -0.3150  0.6579  0.2182
 6275TIP3    H140240   2.827   0.549   0.518  0.1015 -0.0717 -0.5955
 6275TIP3    H240241   2.962   0.481   0.518  0.0520 -0.2083  1.3902
 6276TIP3   OH240242   1.152   6.225  14.627 -0.4123  0.0661  0.0460
 6276TIP3    H140243   1.086   6.191  14.687 -1.0380  2.3053  0.6663
 6276TIP3    H240244   1.119   6.310  14.599  1.8394  0.9115 -0.2253
 6277TIP3   OH240245   5.556   0.286  11.714 -0.5892 -0.9829 -0.5778
 6277TIP3    H140246   5.603   0.220  11.764  0.4484 -0.7746 -1.2750
 6277TIP3    H240247   5.568   0.261  11.623 -1.0292 -0.3877 -0.8052
 6278TIP3   OH240248   4.051   0.052  15.748  0.2647 -0.5544  0.2429
 6278TIP3    H140249   3.962   0.020  15.732  0.2317  0.0610 -0.8475
 6278TIP3    H240250   4.064   0.119  15.682  1.0732  0.2786  1.2385
 6279TIP3   OH240251   5.729   3.292   2.732 -0.4577 -0.2523 -0.0849
 6279TIP3    H140252   5.732   3.216   2.675  1.2332 -0.4029  0.1903
 6279TIP3    H240253   5.820   3.305   2.761 -0.6668  2.0073 -0.3347
 6280TIP3   OH240254   2.040   5.924   4.425  0.1044 -0.1591  0.1739
 6280TIP3    H140255   2.028   5.980   4.502  2.3707 -0.9734  1.1745
 6280TIP3    H240256   1.972   5.858   4.433 -0.2485  0.2890  1.0064
 6281TIP3   OH240257   6.022   2.239  11.061  0.3012  0.0190 -0.0830
 6281TIP3    H140258   6.035   2.333  11.070  1.3715 -0.0591 -0.8081
 6281TIP3    H240259   5.978   2.213  11.142 -0.2080  1.1698  0.0187
 6282TIP3   OH240260   3.012   6.098   2.495  0.1599  0.5755 -0.5628
 6282TIP3    H140261   3.091   6.141   2.464  0.2592 -0.5592 -1.9696
 6282TIP3    H240262   2.971   6.063   2.416 -0.1232 -1.5326  0.4666
 6283TIP3   OH240263   0.687   3.658  13.950 -0.3278  0.1856 -0.0840
 6283TIP3    H140264   0.747   3.584  13.963  0.6627  1.3416  2.2593
 6283TIP3    H240265   0.605   3.630  13.991  0.1977  0.5533  1.2424
 6284TIP3   OH240266   1.620   4.225  14.267 -0.3786  0.6918 -0.5228
 6284TIP3    H140267   1.566   4.256  14.339  2.6952 -0.1771  2.3028
 6284TIP3    H240268   1.710   4.247  14.293  1.1786 -3.2444 -2.2041
 6285TIP3   OH240269   1.788   3.890  11.152  0.2212  0.0169  0.1633
 6285TIP3    H140270   1.808   3.881  11.059  0.5444 -0.2214  0.2552
 6285TIP3    H240271   1.692   3.891  11.156  0.2065 -0.0153 -0.1681
 6286TIP3   OH240272   5.550   1.569   5.273  0.0309 -0.0547  0.2671
 6286TIP3    H140273   5.466   1.547   5.313 -0.5213  0.4461 -0.6007
 6286TIP3    H240274   5.532   1.570   5.179  2.0108 -4.2809 -0.2729
 6287TIP3   OH240275   3.202   0.789  15.454 -0.9283  0.0255  0.3364
 6287TIP3    H140276   3.133   0.738  15.410 -1.0449 -0.9535  1.6121
 6287TIP3    H240277   3.257   0.723  15.496 -1.2255  0.9613  2.2447
 6288TIP3   OH240278   3.399   2.577   4.645 -0.2239 -0.4072 -0.1830
 6288TIP3    H140279   3.303   2.574   4.635 -0.2398 -1.8210  0.4136
 6288TIP3    H240280   3.430   2.496   4.605  0.6496 -0.4372  0.5558
 6289TIP3   OH240281   4.093   1.151   3.382 -0.6248 -0.5776 -0.1930
 6289TIP3    H140282   4.028   1.220   3.366 -0.7819 -0.2813  1.5685
 6289TIP3    H240283   4.069   1.115   3.468 -1.0289 -3.3752 -1.4077
 6290TIP3   OH240284   5.041   3.884   1.541  0.0168  0.1088  0.6493
 6290TIP3    H140285   5.034   3.792   1.515 -0.1229  0.1322  0.6067
 6290TIP3    H240286   5.133   3.894   1.568  0.4304  0.3510 -0.8369
 6291TIP3   OH240287   6.556   3.511  10.393 -1.1457  0.1191  0.5316
 6291TIP3    H140288   6.645   3.532  10.421 -1.1738  0.1514  0.5964
 6291TIP3    H240289   6.541   3.422  10.424 -1.0490  0.0277  0.3072
 6292TIP3   OH240290   6.086   0.482  15.935 -0.0764 -0.2409 -0.1583
 6292TIP3    H140291   6.072   0.388  15.947  1.4391 -0.4751 -0.1666
 6292TIP3    H240292   6.000   0.521  15.953 -0.1529 -1.3989  2.2249
 6293TIP3   OH240293   1.231   2.074   6.563  0.3217 -0.7921  0.1582
 6293TIP3    H140294   1.172   2.003   6.589 -0.1116 -0.2937  0.5329
 6293TIP3    H240295   1.238   2.130   6.640  1.8240 -1.2049  0.3455
 6294TIP3   OH240296   2.598   2.738   4.327 -0.1166  0.2988  0.3091
 6294TIP3    H140297   2.645   2.736   4.244  0.8246  1.2985  0.8021
 6294TIP3    H240298   2.529   2.672   4.317 -0.6254  1.0683 -1.6142
 6295TIP3   OH240299   6.547   3.242   5.808  0.0327  0.3177  0.0120
 6295TIP3    H140300   6.578   3.159   5.845 -0.8768  1.0496  2.5798
 6295TIP3    H240301   6.627   3.293   5.793  0.4867 -0.3802  0.0344
 6296TIP3   OH240302   4.120   4.268  12.719 -0.4082 -0.1918  0.2147
 6296TIP3    H140303   4.146   4.182  12.685 -1.4288 -0.0610 -0.9461
 6296TIP3    H240304   4.203   4.313  12.735  0.1179 -0.3857 -1.8405
 6297TIP3   OH240305   6.070   6.133   0.555  0.4158 -0.0299  0.4288
 6297TIP3    H140306   6.056   6.056   0.500  2.2151 -0.4780  0.5474
 6297TIP3    H240307   5.990   6.141   0.607 -0.3368 -1.0098 -0.5704
 6298TIP3   OH240308   5.577   0.620   6.354 -0.2650  0.1549  0.3493
 6298TIP3    H140309   5.655   0.566   6.346 -1.3507 -1.2713 -0.8758
 6298TIP3    H240310   5.507   0.558   6.377 -1.5403  1.0123 -1.1545
 6299TIP3   OH240311   2.707   3.692   4.529 -0.5482  0.3298  0.0300
 6299TIP3    H140312   2.738   3.781   4.548 -0.6591  0.3688  0.0271
 6299TIP3    H240313   2.697   3.690   4.433 -0.6922  0.3617  0.0441
 6300TIP3   OH240314   6.468   0.466   1.528  0.0683 -0.3641 -0.1976
 6300TIP3    H140315   6.468   0.514   1.610  0.4865 -0.3764 -0.1908
 6300TIP3    H240316   6.497   0.378   1.551  3.3560  0.4705 -0.8379
 6301TIP3   OH240317   6.353   3.850  14.110 -0.0286  0.2322  0.1572
 6301TIP3    H140318   6.273   3.855  14.058 -1.4865 -1.8881  2.0846
 6301TIP3    H240319   6.332   3.789  14.181  2.9905  0.3823  1.2715
 6302TIP3   OH240320   0.782   2.246   3.596 -0.4734  0.2326  0.0515
 6302TIP3    H140321   0.733   2.172   3.560  1.0514 -0.3634 -0.8206
 6302TIP3    H240322   0.787   2.227   3.690  2.9765 -2.6403 -0.6207
 6303TIP3   OH240323   2.479   0.248   1.291 -0.1816  0.4887 -0.0763
 6303TIP3    H140324   2.422   0.308   1.338  0.0256  2.1455 -1.8889
 6303TIP3    H240325   2.554   0.234   1.350 -0.5325  1.4947  0.6112
 6304TIP3   OH240326   3.782   2.575   2.965  0.5731  0.3546 -0.1138
 6304TIP3    H140327   3.768   2.540   3.053  0.9465  0.6126  0.0481
 6304TIP3    H240328   3.833   2.508   2.920  0.1303  0.0924 -0.2257
 6305TIP3   OH240329   4.850   3.726   5.762 -0.0097  0.5510  0.0087
 6305TIP3    H140330   4.796   3.804   5.780 -1.2428  0.3329 -2.6143
 6305TIP3    H240331   4.787   3.654   5.756  0.9428 -0.3263  0.3997
 6306TIP3   OH240332   5.731   1.278  15.106 -0.1459  0.2965 -0.1083
 6306TIP3    H140333   5.724   1.234  15.191 -0.2362 -0.8665 -0.6984
 6306TIP3    H240334   5.645   1.268  15.066 -0.1540  0.9816 -0.2700
 6307TIP3   OH240335   5.355   5.386   0.163  0.0590 -0.0224  1.2526
 6307TIP3    H140336   5.354   5.467   0.214 -1.0275  0.9759 -0.3059
 6307TIP3    H240337   5.414   5.328   0.211  0.3696  1.4755  2.7240
 6308TIP3   OH240338   1.466   5.168  14.691  0.8679 -0.1825  0.5496
 6308TIP3    H140339   1.507   5.082  14.690 -0.3927 -0.8149  1.8056
 6308TIP3    H240340   1.415   5.171  14.610 -1.0545 -1.6184  1.6691
 6309TIP3   OH240341   3.795   3.074   0.323 -0.6594  0.3415 -0.4822
 6309TIP3    H140342   3.858   3.123   0.375  0.9138 -1.7484 -0.3098
 6309TIP3    H240343   3.712   3.081   0.371  0.0965  0.8163  0.7700
 6310TIP3   OH240344   4.054   1.244  16.084 -0.6175  0.5142  0.2663
 6310TIP3    H140345   3.986   1.277  16.143 -1.0020 -1.1976  0.8153
 6310TIP3    H240346   4.072   1.155  16.116  3.4262  1.6582  1.4868
 6311TIP3   OH240347   4.797   2.807  15.609  0.5799 -0.1480  0.1868
 6311TIP3    H140348   4.751   2.732  15.646 -0.2486  0.3299  0.1230
 6311TIP3    H240349   4.784   2.878  15.672 -0.2281  0.4653 -0.6518
 6312TIP3   OH240350   4.828   4.228  12.325 -1.0416 -0.1198  0.1391
 6312TIP3    H140351   4.816   4.281  12.404 -0.5639  0.8287 -0.4141
 6312TIP3    H240352   4.898   4.272  12.277 -0.5388 -1.3316 -0.2728
 6313TIP3   OH240353   2.171   2.275   5.276  0.1219 -0.5523 -0.3954
 6313TIP3    H140354   2.208   2.311   5.195  0.4366  3.5229  1.4438
 6313TIP3    H240355   2.076   2.276   5.262  0.1090  1.2895 -0.3369
 6314TIP3   OH240356   0.456   0.365  14.794  0.2842  0.5291  0.3006
 6314TIP3    H140357   0.492   0.278  14.782  0.1900  0.2973  1.6604
 6314TIP3    H240358   0.532   0.422  14.806  0.3040  0.4685  0.4595
 6315TIP3   OH240359   4.366   2.836  15.323  0.2722  0.1314 -0.7314
 6315TIP3    H140360   4.273   2.835  15.347  0.2048  0.4954 -0.9605
 6315TIP3    H240361   4.410   2.872  15.400  0.2308 -0.1189 -0.5927
 6316TIP3   OH240362   0.154   1.610  15.617 -0.0275  0.6099  0.1723
 6316TIP3    H140363   0.096   1.534  15.612  0.6454  0.2399 -2.5535
 6316TIP3    H240364   0.239   1.577  15.588  0.2184  2.4258 -1.2421
 6317TIP3   OH240365   0.759   5.093   2.827 -0.2418 -0.2811  0.1238
 6317TIP3    H140366   0.833   5.110   2.885  0.9352 -0.4674 -1.2902
 6317TIP3    H240367   0.732   5.179   2.795  1.5959 -0.4668 -2.0328
 6318TIP3   OH240368   1.409   5.858  10.467 -0.4160 -0.1220 -0.4817
 6318TIP3    H140369   1.459   5.806  10.530 -0.9322  2.0417  1.7889
 6318TIP3    H240370   1.470   5.874  10.395  1.3863  0.3897  1.1099
 6319TIP3   OH240371   3.122   2.104   2.822  0.2377  0.3919 -0.4842
 6319TIP3    H140372   3.145   2.075   2.734  0.4345  1.0593 -0.6574
 6319TIP3    H240373   3.027   2.094   2.827 -0.3779  4.4335 -2.3157
 6320TIP3   OH240374   3.864   6.249  15.945  0.1975  0.4619  0.3864
 6320TIP3    H140375   3.863   6.195  15.866  1.7169  0.8992  0.0376
 6320TIP3    H240376   3.779   6.234  15.986  0.0859 -1.1843 -0.3838
 6321TIP3   OH240377   2.742   0.688   2.429 -0.6082 -0.0565  0.7408
 6321TIP3    H140378   2.711   0.603   2.400 -0.1533 -0.2107  0.7072
 6321TIP3    H240379   2.679   0.715   2.496  1.3467 -2.1866  3.6189
 6322TIP3   OH240380   1.648   3.248  10.882 -0.1066  0.3120 -0.2932
 6322TIP3    H140381   1.711   3.181  10.854  0.3798  1.2460 -1.4975
 6322TIP3    H240382   1.565   3.221  10.843 -0.0760  0.0132 -0.1547
 6323TIP3   OH240383   3.890   2.946  16.079 -0.2377  0.5759 -0.1217
 6323TIP3    H140384   3.895   2.857  16.115  0.0378  0.7789  0.3448
 6323TIP3    H240385   3.812   2.983  16.120 -0.0095  0.7540  0.1549
 6324TIP3   OH240386   3.832   1.585  16.448  0.5994  0.4033  0.0407
 6324TIP3    H140387   3.821   1.589  16.353 -0.4223 -2.2483  0.0026
 6324TIP3    H240388   3.917   1.544  16.461  0.3371 -0.0811  0.2529
 6325TIP3   OH240389   5.831   2.970   5.509  0.5108 -0.2914 -0.1101
 6325TIP3    H140390   5.832   3.047   5.566 -1.1671  0.2670 -0.8083
 6325TIP3    H240391   5.921   2.937   5.512  0.7010  0.3361  2.0216
 6326TIP3   OH240392   4.842   2.823   4.706  0.1988 -0.2520 -0.6072
 6326TIP3    H140393   4.778   2.773   4.758 -0.7466  0.9289 -0.6166
 6326TIP3    H240394   4.788   2.879   4.650  1.2473  0.1255 -1.2404
 6327TIP3   OH240395   1.972   3.608   5.083 -0.1618 -0.8012  0.0086
 6327TIP3    H140396   2.002   3.518   5.071 -0.1659 -0.7922 -0.0690
 6327TIP3    H240397   2.014   3.636   5.165 -0.2065 -0.8920  0.0627
 6328TIP3   OH240398   2.961   4.776   4.407 -0.1850 -0.3117  0.3050
 6328TIP3    H140399   2.917   4.739   4.484  1.5338 -1.4331  0.7668
 6328TIP3    H240400   3.050   4.792   4.436  0.2485  0.0936 -1.2103
 6329TIP3   OH240401   5.710   5.765  15.565  0.6000 -0.0324  0.3102
 6329TIP3    H140402   5.677   5.701  15.628  0.1559 -0.8225 -0.7015
 6329TIP3    H240403   5.799   5.735  15.545  0.4532 -0.2451 -0.0347
 6330TIP3   OH240404   6.201   2.436  16.881 -0.4972 -0.1147  0.1707
 6330TIP3    H140405   6.184   2.397  16.796  2.5964  1.4590 -1.2568
 6330TIP3    H240406   6.203   2.361  16.942 -1.2029 -1.4078 -1.3560
 6331TIP3   OH240407   2.863   5.093  14.904  0.3886  0.1993 -0.0531
 6331TIP3    H140408   2.830   5.089  14.814  0.4123  0.9182 -0.0967
 6331TIP3    H240409   2.823   5.017  14.947 -0.3374  0.3572 -0.4352
 6332TIP3   OH240410   1.676   2.692   2.672 -0.6534 -0.1200 -0.1401
 6332TIP3    H140411   1.623   2.621   2.709  1.0159 -1.1373  0.3555
 6332TIP3    H240412   1.762   2.652   2.656 -0.1042  1.4293 -1.1754
 6333TIP3   OH240413   3.238   4.260  16.462 -0.3040 -0.0474  0.3182
 6333TIP3    H140414   3.317   4.215  16.491  0.1899  0.7297  0.1979
 6333TIP3    H240415   3.213   4.216  16.381  0.6142  0.3888 -0.2093
 6334TIP3   OH240416   1.988   3.575   6.439 -0.3621 -0.7125  0.0030
 6334TIP3    H140417   1.895   3.563   6.459 -0.0924  0.2122  2.0523
 6334TIP3    H240418   2.010   3.658   6.482  1.6902 -1.5487  0.6118
 6335TIP3   OH240419   0.884   5.612   4.136 -0.1903  0.4050  0.4444
 6335TIP3    H140420   0.857   5.681   4.196  1.1134 -0.1287  1.6694
 6335TIP3    H240421   0.836   5.534   4.166  0.8153  0.0318  1.0818
 6336TIP3   OH240422   0.329   6.662  12.527 -0.5254  0.3346  0.7503
 6336TIP3    H140423   0.409   6.713  12.534 -0.4289  0.3385 -0.3075
 6336TIP3    H240424   0.298   6.653  12.618  1.0654 -0.3369  1.2543
 6337TIP3   OH240425   5.809   6.120   0.687 -0.3475  0.4022  0.0957
 6337TIP3    H140426   5.722   6.083   0.677 -0.1039 -0.3317  0.6811
 6337TIP3    H240427   5.823   6.124   0.781  0.9839 -1.2406 -0.0086
 6338TIP3   OH240428   3.963   1.898   2.288  0.2236  0.9261  0.2143
 6338TIP3    H140429   4.014   1.856   2.219  0.0296  1.7504 -0.4413
 6338TIP3    H240430   3.885   1.931   2.243 -0.7382 -0.0344  1.1472
 6339TIP3   OH240431   1.799   2.294  14.782  0.0395  0.1837  0.5964
 6339TIP3    H140432   1.871   2.337  14.827  2.6785 -1.9983 -1.3949
 6339TIP3    H240433   1.790   2.342  14.700 -1.2770  0.8662  1.1165
 6340TIP3   OH240434   5.302   0.612  16.801  0.2750 -0.3304  0.5170
 6340TIP3    H140435   5.260   0.631  16.885  0.4951 -0.4584  0.6570
 6340TIP3    H240436   5.391   0.644  16.810  0.5277 -1.0463  0.6055
 6341TIP3   OH240437   3.765   0.275   2.414 -0.1471  0.2025 -0.4887
 6341TIP3    H140438   3.758   0.179   2.417  0.0316  0.2305  3.3727
 6341TIP3    H240439   3.680   0.306   2.445  0.8330  1.2236  1.2604
 6342TIP3   OH240440   6.502   4.169   2.495 -0.0364 -0.1484  0.2880
 6342TIP3    H140441   6.507   4.129   2.409  0.9130 -0.0850  0.3089
 6342TIP3    H240442   6.546   4.107   2.553 -0.6367 -0.1719  0.7182
 6343TIP3   OH240443   5.226   2.956   4.177  0.7988  0.5374  0.5002
 6343TIP3    H140444   5.263   2.941   4.264  2.8873  0.9689 -0.2764
 6343TIP3    H240445   5.243   2.875   4.129 -2.1978 -0.4956  1.0600
 6344TIP3   OH240446   0.998   1.961  17.123  0.0579 -0.3458  0.3306
 6344TIP3    H140447   1.057   1.892  17.152  1.0072  0.7844  1.1571
 6344TIP3    H240448   0.913   1.938  17.159  0.0257 -1.8764 -0.6959
 6345TIP3   OH240449   4.722   4.897   0.729  0.4422  0.1137 -0.4300
 6345TIP3    H140450   4.724   4.886   0.824 -0.4923 -0.6997 -0.4968
 6345TIP3    H240451   4.699   4.811   0.695  2.3007  0.0181 -1.4882
 6346TIP3   OH240452   6.021   4.262   2.852  0.4685 -0.4503 -0.5334
 6346TIP3    H140453   6.017   4.300   2.764  1.7754  0.6109 -0.1541
 6346TIP3    H240454   6.050   4.335   2.907 -1.7992 -0.7023  1.0236
 6347TIP3   OH240455   3.870   4.214  13.535 -0.8246  0.3248  0.4832
 6347TIP3    H140456   3.929   4.230  13.462 -0.9528  0.2462  0.3623
 6347TIP3    H240457   3.881   4.290  13.592 -1.6033  0.9611 -0.2035
 6348TIP3   OH240458   2.431   0.964   1.042  0.1685 -0.3372 -0.0008
 6348TIP3    H140459   2.526   0.971   1.037  0.3231 -1.3019  1.2547
 6348TIP3    H240460   2.416   0.880   1.085 -1.2435  0.2087  0.5857
 6349TIP3   OH240461   5.705   2.387  14.510 -0.3865  0.0655  0.6200
 6349TIP3    H140462   5.639   2.455  14.526  0.3941  0.6890  1.2569
 6349TIP3    H240463   5.722   2.350  14.597  0.3951  0.1810  0.5142
 6350TIP3   OH240464   4.812   6.749   5.225  0.4916  0.1487 -0.2680
 6350TIP3    H140465   4.884   6.708   5.273  1.4229  1.7650 -0.2492
 6350TIP3    H240466   4.854   6.818   5.174 -0.7249 -0.4161 -2.0914
 6351TIP3   OH240467   1.030   0.195   2.310  0.3608 -0.0300 -0.4821
 6351TIP3    H140468   1.063   0.204   2.400 -2.3328 -0.3356  0.5865
 6351TIP3    H240469   1.000   0.105   2.304  0.4293  0.0223 -1.6487
 6352TIP3   OH240470   2.246   4.051   0.085 -0.4158 -0.4146 -0.0573
 6352TIP3    H140471   2.226   4.079  -0.005  0.0805 -1.2072 -0.4243
 6352TIP3    H240472   2.160   4.033   0.124 -0.6053 -0.5889 -0.5484
 6353TIP3   OH240473   2.029   4.122  12.588  0.4435  0.1895 -0.2770
 6353TIP3    H140474   1.959   4.126  12.654  0.4385 -0.8226 -0.2068
 6353TIP3    H240475   1.986   4.142  12.506  0.6066  2.2807  0.1269
 6354TIP3   OH240476   6.158   1.254   1.729 -0.7196  0.2383  0.1092
 6354TIP3    H140477   6.160   1.340   1.686 -0.1894  0.6352  0.9014
 6354TIP3    H240478   6.234   1.208   1.694 -1.2929 -0.0849 -0.6889
 6355TIP3   OH240479   1.303   1.760   4.798 -0.3525 -0.3249 -0.1349
 6355TIP3    H140480   1.277   1.670   4.778 -0.2745  0.1758 -2.7196
 6355TIP3    H240481   1.222   1.810   4.791 -0.0880  0.0618 -0.4472
 6356TIP3   OH240482   5.676   6.190  16.168 -0.3320 -0.0150 -0.1175
 6356TIP3    H140483   5.621   6.184  16.247  1.4427 -1.8104  1.0336
 6356TIP3    H240484   5.628   6.249  16.110 -1.6004  1.5251  2.3839
 6357TIP3   OH240485   6.556   3.719  14.452 -0.2144 -0.3866  0.4839
 6357TIP3    H140486   6.633   3.689  14.499 -0.5991 -1.0672  0.6835
 6357TIP3    H240487   6.584   3.800  14.409  1.0577 -1.4293 -0.6807
 6358TIP3   OH240488   6.224   1.435  12.508 -0.1711 -0.0447 -0.2531
 6358TIP3    H140489   6.243   1.395  12.593  1.4127  0.8688 -0.1396
 6358TIP3    H240490   6.137   1.473  12.517  0.9027  2.1099  1.8058
 6359TIP3   OH240491   3.678   4.070   0.411 -0.1362 -0.1821 -0.2717
 6359TIP3    H140492   3.727   4.146   0.443 -0.4696  0.0393 -0.2777
 6359TIP3    H240493   3.658   4.020   0.490  0.8182 -0.7104 -0.3571
 6360TIP3   OH240494   0.306   1.692  13.832 -0.0547  0.5826  0.2574
 6360TIP3    H140495   0.298   1.670  13.925 -0.3767 -1.4091 -0.2180
 6360TIP3    H240496   0.384   1.645  13.803 -1.8672 -1.6193 -1.2347
 6361TIP3   OH240497   0.423   1.169   3.843 -0.7493  0.3111 -0.2904
 6361TIP3    H140498   0.338   1.149   3.804 -0.4642  0.3817 -0.9536
 6361TIP3    H240499   0.409   1.159   3.938 -1.4584  0.1977 -0.4035
 6362TIP3   OH240500   5.821   4.123  17.176  0.4242  0.3031 -0.1607
 6362TIP3    H140501   5.844   4.060  17.108 -0.1353  0.8651 -0.8796
 6362TIP3    H240502   5.793   4.070  17.250  0.8862 -0.3102 -0.4190
 6363TIP3   OH240503   0.829   6.545   1.925 -0.0689 -0.0152  0.7870
 6363TIP3    H140504   0.743   6.545   1.967 -1.3099  2.3438 -1.5632
 6363TIP3    H240505   0.819   6.489   1.848  0.6328 -0.0905  0.7439
 6364TIP3   OH240506   5.075   1.048  16.378  0.2201  0.4831 -0.3303
 6364TIP3    H140507   5.019   1.057  16.455  0.0451  0.9235 -0.5069
 6364TIP3    H240508   5.071   1.133  16.335 -0.9337 -0.2293 -1.6816
 6365TIP3   OH240509   5.029   1.366   0.622 -0.7121  0.0678  0.0150
 6365TIP3    H140510   5.084   1.420   0.566 -1.2161 -0.6364 -1.1766
 6365TIP3    H240511   5.087   1.296   0.652 -0.2138  0.9283  1.0903
 6366TIP3   OH240512   4.113   1.202   4.776  0.2251  0.0272  0.0313
 6366TIP3    H140513   4.134   1.255   4.853 -0.6394 -1.1924  1.1279
 6366TIP3    H240514   4.022   1.226   4.755 -0.7503 -2.1800  1.5409
 6367TIP3   OH240515   3.010   0.362  11.734 -0.0735 -0.2159 -0.3229
 6367TIP3    H140516   2.949   0.373  11.807 -0.0158 -0.4432 -0.2387
 6367TIP3    H240517   3.078   0.304  11.768  0.3398  0.2708 -0.3253
 6368TIP3   OH240518   3.364   6.156   6.534 -0.2687  0.1374 -0.1321
 6368TIP3    H140519   3.286   6.141   6.586  0.5095 -1.0685  0.7235
 6368TIP3    H240520   3.422   6.207   6.591  1.0801 -2.2267  0.7169
 6369TIP3   OH240521   2.690   2.813   0.135  0.1099  0.1953 -0.3049
 6369TIP3    H140522   2.775   2.852   0.154 -0.0885  0.1718  0.6773
 6369TIP3    H240523   2.703   2.719   0.147  0.0001  0.1718 -0.3665
 6370TIP3   OH240524   2.503   6.045  15.515  0.1815 -0.2471  0.0700
 6370TIP3    H140525   2.535   5.986  15.446  0.5967  0.4994 -0.3768
 6370TIP3    H240526   2.559   6.026  15.590 -0.3569 -1.1584  0.2547
 6371TIP3   OH240527   1.819   6.230  15.897 -0.3671 -0.8739  0.5697
 6371TIP3    H140528   1.857   6.272  15.974 -0.8228 -0.4055  0.5441
 6371TIP3    H240529   1.862   6.145  15.892  0.7167 -0.3321  0.5114
 6372TIP3   OH240530   0.165   4.363  15.215  0.5591 -0.1276 -0.6915
 6372TIP3    H140531   0.248   4.394  15.178  0.8774  1.0492  0.9593
 6372TIP3    H240532   0.098   4.416  15.172  0.8621  0.6783 -0.1792
 6373TIP3   OH240533   3.039   6.599  14.245  0.0844 -0.0699  0.1941
 6373TIP3    H140534   2.978   6.582  14.317  0.4029  0.7821  0.6724
 6373TIP3    H240535   3.020   6.688  14.218 -1.1852 -0.9423 -1.9175
 6374TIP3   OH240536   4.910   6.706   2.189  0.2930  0.1012  0.0747
 6374TIP3    H140537   4.877   6.618   2.168  0.8155  0.6819 -3.6084
 6374TIP3    H240538   4.835   6.763   2.178  0.8908  0.5892 -1.6332
 6375TIP3   OH240539   4.924   4.371  16.123 -0.0939  0.2927 -0.5893
 6375TIP3    H140540   4.882   4.377  16.038 -0.7013 -1.9731 -0.4747
 6375TIP3    H240541   4.879   4.299  16.168  0.6848  0.9804  1.3738
 6376TIP3   OH240542   5.556   3.208   3.958  0.7524 -0.0127  0.3759
 6376TIP3    H140543   5.588   3.237   3.873  0.8345  1.9529  1.0532
 6376TIP3    H240544   5.516   3.123   3.941  1.1538  0.1680 -1.5431
 6377TIP3   OH240545   2.129   2.599   1.190 -0.5369  0.4281  0.3232
 6377TIP3    H140546   2.043   2.630   1.160 -0.1714  1.0035 -0.1365
 6377TIP3    H240547   2.130   2.506   1.169 -1.4306  0.2022  1.2119
 6378TIP3   OH240548   1.074   2.155   4.043  0.1634  0.1023  0.5335
 6378TIP3    H140549   1.158   2.147   4.088  0.2367 -1.0549  0.2208
 6378TIP3    H240550   1.083   2.232   3.988  1.9943 -1.4860 -1.4786
 6379TIP3   OH240551   2.436   4.751   5.046 -0.6168 -0.0216 -0.1728
 6379TIP3    H140552   2.518   4.795   5.066 -0.2202 -0.2864 -1.2100
 6379TIP3    H240553   2.457   4.658   5.052 -1.4149 -0.0994  1.8664
 6380TIP3   OH240554   0.877   2.097   1.328 -0.3966  0.0491  0.2631
 6380TIP3    H140555   0.940   2.167   1.347 -1.5330  0.8061  1.2968
 6380TIP3    H240556   0.792   2.135   1.347 -1.2630 -0.6674 -2.0818
 6381TIP3   OH240557   6.691   6.679   1.274  0.8407  0.0501 -0.2473
 6381TIP3    H140558   6.780   6.656   1.303  0.1265 -1.6682  0.6322
 6381TIP3    H240559   6.674   6.763   1.316  1.9006  0.1851 -0.0685
 6382TIP3   OH240560   2.489   0.467   1.005  0.4190 -0.4671  0.1477
 6382TIP3    H140561   2.543   0.483   0.927 -0.4622  0.2194 -0.3414
 6382TIP3    H240562   2.476   0.554   1.043  2.2330 -0.9856  2.0320
 6383TIP3   OH240563   4.377   0.152  17.180 -0.4925  0.3825 -0.1049
 6383TIP3    H140564   4.413   0.090  17.116 -0.3206  1.7574 -1.3641
 6383TIP3    H240565   4.293   0.113  17.206 -0.0684 -0.7187 -0.3416
 6384TIP3   OH240566   5.225   1.401  13.377 -0.6798  0.3536  0.3526
 6384TIP3    H140567   5.276   1.352  13.312 -2.2102 -2.2374  1.0308
 6384TIP3    H240568   5.168   1.457  13.325 -0.1622  0.1207 -0.4866
 6385TIP3   OH240569   1.552   6.319   4.376  0.4194 -0.3011  0.0458
 6385TIP3    H140570   1.619   6.385   4.393 -0.8438  0.2477  3.1397
 6385TIP3    H240571   1.489   6.364   4.319  0.4212  0.6479  0.7692
 6386TIP3   OH240572   4.283   4.731  12.376  0.6550 -0.5323  0.1838
 6386TIP3    H140573   4.362   4.693  12.415  0.2220 -3.0573 -1.2617
 6386TIP3    H240574   4.227   4.656  12.358 -0.2685  0.7669 -2.7267
 6387TIP3   OH240575   3.926   3.292  16.871  0.2930  0.1149  0.1503
 6387TIP3    H140576   3.864   3.247  16.928 -1.0301 -0.8831 -1.9916
 6387TIP3    H240577   4.000   3.232  16.862  1.0482  0.7833  1.7290
 6388TIP3   OH240578   3.760   6.622   5.327  0.2480 -0.0211 -0.0854
 6388TIP3    H140579   3.674   6.646   5.362 -0.0153 -1.5835  0.3923
 6388TIP3    H240580   3.821   6.640   5.399  0.2275  0.4591 -0.1894
 6389TIP3   OH240581   2.673   6.375  11.251 -0.0756  1.0821 -0.1796
 6389TIP3    H140582   2.724   6.320  11.192  0.1666  1.7076 -0.5603
 6389TIP3    H240583   2.627   6.435  11.193  0.5881  2.0570  0.2874
 6390TIP3   OH240584   3.237   0.099  14.739 -0.7736 -0.1752  0.2175
 6390TIP3    H140585   3.247   0.008  14.711 -1.3372 -0.0329 -0.4391
 6390TIP3    H240586   3.284   0.150  14.673 -0.9499  0.0602  0.2754
 6391TIP3   OH240587   6.255   0.116  13.802  0.2432 -0.1800 -0.1209
 6391TIP3    H140588   6.210   0.094  13.884 -0.3755  1.0766 -0.1086
 6391TIP3    H240589   6.185   0.123  13.738  0.6484 -0.3771 -0.5810
 6392TIP3   OH240590   0.780   6.771   6.468  0.8125  0.0093  0.2129
 6392TIP3    H140591   0.736   6.690   6.442 -0.4679  1.1351 -1.2272
 6392TIP3    H240592   0.709   6.826   6.502  1.3706  1.1977 -0.5316
 6393TIP3   OH240593   3.021   2.681   2.157  0.1304 -0.1420  0.2729
 6393TIP3    H140594   3.112   2.707   2.170  0.4856 -1.5730  0.7411
 6393TIP3    H240595   3.026   2.600   2.106 -0.8798 -0.2675  0.3657
 6394TIP3   OH240596   2.409   5.752  13.268  0.0535 -0.4618 -0.4308
 6394TIP3    H140597   2.487   5.778  13.219 -0.0546  0.7777  0.0401
 6394TIP3    H240598   2.434   5.764  13.360 -0.3783 -0.9518 -0.2466
 6395TIP3   OH240599   6.573   4.827  15.230  0.2180 -0.5532 -0.2659
 6395TIP3    H140600   6.554   4.896  15.294  1.0272 -0.5631 -0.0171
 6395TIP3    H240601   6.537   4.747  15.269  0.0158 -0.4250 -0.1845
 6396TIP3   OH240602   2.366   4.202   2.469  0.2084  0.3161  0.3978
 6396TIP3    H140603   2.420   4.127   2.444  0.2199  0.3740  0.2468
 6396TIP3    H240604   2.303   4.167   2.531  0.3585  0.2281  0.5015
 6397TIP3   OH240605   5.276   4.853   3.440  0.6568  0.6181 -0.6589
 6397TIP3    H140606   5.299   4.928   3.386  0.8464 -0.0742 -1.5431
 6397TIP3    H240607   5.336   4.784   3.413 -1.5171 -0.7939 -2.0350
 6398TIP3   OH240608   5.078   5.774   0.921  0.1468 -1.0896 -0.3069
 6398TIP3    H140609   5.140   5.783   0.994  0.3392 -2.2794 -0.3097
 6398TIP3    H240610   5.058   5.864   0.895  0.4682 -0.6613  0.8870
 6399TIP3   OH240611   0.300   4.025  10.652  0.4221 -0.1075 -0.0173
 6399TIP3    H140612   0.365   4.043  10.720  0.0696  0.2273  0.2352
 6399TIP3    H240613   0.217   4.054  10.690 -0.0365 -1.4583  0.0577
 6400TIP3   OH240614   4.081   2.311   4.313 -0.6509 -0.1595  0.5186
 6400TIP3    H140615   4.144   2.311   4.386  0.2735 -0.5596 -0.2706
 6400TIP3    H240616   4.115   2.246   4.252 -1.3055  0.3321 -0.3745
 6401TIP3   OH240617   1.461   4.638   5.933 -0.3013  0.0817 -0.0947
 6401TIP3    H140618   1.509   4.559   5.959 -1.3398  0.1182  2.0305
 6401TIP3    H240619   1.506   4.709   5.978 -2.9882 -0.0111  2.9192
 6402TIP3   OH240620   0.653   1.907  12.827  0.0211 -0.4566  0.1518
 6402TIP3    H140621   0.741   1.941  12.808  0.8279 -2.2665  0.4747
 6402TIP3    H240622   0.615   1.891  12.741  0.5299 -0.8868 -0.0028
 6403TIP3   OH240623   4.032   5.316   3.612  0.5092 -0.1824  0.5089
 6403TIP3    H140624   4.119   5.331   3.573 -0.0850 -1.0457 -1.1850
 6403TIP3    H240625   3.999   5.404   3.632  1.7229  0.1572  1.0885
 6404TIP3   OH240626   3.854   2.286   2.006 -0.4180  0.1580  0.8747
 6404TIP3    H140627   3.770   2.287   2.051 -0.2555 -2.1631  1.2896
 6404TIP3    H240628   3.918   2.273   2.076  0.1285  0.0012  0.3442
 6405TIP3   OH240629   0.796   0.439  15.013 -0.2538 -0.2709 -0.7231
 6405TIP3    H140630   0.737   0.471  14.944  0.0623 -1.9760 -1.8291
 6405TIP3    H240631   0.751   0.363  15.049  0.8622 -1.0720 -0.9934
 6406TIP3   OH240632   6.334   2.558  13.962  0.0398 -0.2457  0.6135
 6406TIP3    H140633   6.256   2.604  13.992 -0.1357 -1.0197  1.3600
 6406TIP3    H240634   6.324   2.552  13.867 -0.2683  0.6425  0.5897
 6407TIP3   OH240635   2.193   3.180   4.138 -0.0416 -0.0750 -0.1135
 6407TIP3    H140636   2.149   3.243   4.196  0.6852 -1.2301  1.7024
 6407TIP3    H240637   2.231   3.234   4.069 -1.3986  1.2641  0.1571
 6408TIP3   OH240638   3.060   5.426  14.992  0.1176 -0.3056 -0.2800
 6408TIP3    H140639   3.143   5.403  15.031 -1.9342 -3.7383  2.3320
 6408TIP3    H240640   3.058   5.377  14.909  0.1127 -1.3481  0.3313
 6409TIP3   OH240641   3.487   4.077  12.873  0.2606 -0.0166 -0.1152
 6409TIP3    H140642   3.518   4.149  12.928  0.5926  0.3246 -0.7415
 6409TIP3    H240643   3.424   4.030  12.927 -0.6533  1.2986 -0.0196
 6410TIP3   OH240644   3.905   1.228   1.099  0.3120  0.1895 -0.2488
 6410TIP3    H140645   3.950   1.231   1.184 -0.4521 -1.3813  0.2215
 6410TIP3    H240646   3.970   1.190   1.039  0.9530  1.5641 -0.4513
 6411TIP3   OH240647   1.086   1.050   2.338  1.1621 -0.4350  0.2345
 6411TIP3    H140648   1.005   1.001   2.352  1.3556 -0.7075  0.4125
 6411TIP3    H240649   1.083   1.076   2.246  0.8380 -0.3812  0.2601
 6412TIP3   OH240650   0.956   5.136   2.137  0.5651  0.2680  0.5611
 6412TIP3    H140651   1.007   5.176   2.208  0.2400  2.0108 -0.1470
 6412TIP3    H240652   0.946   5.206   2.073 -2.1826 -0.2060  0.3936
 6413TIP3   OH240653   5.442   0.689  12.635  0.3172 -0.0685 -0.2115
 6413TIP3    H140654   5.485   0.652  12.712  1.0916 -0.7204 -0.9418
 6413TIP3    H240655   5.348   0.678  12.653  0.5062 -0.9658  0.2905
 6414TIP3   OH240656   4.374   6.409  13.770 -0.2896  0.0285 -0.4205
 6414TIP3    H140657   4.345   6.500  13.768 -0.1586  0.0645 -0.6226
 6414TIP3    H240658   4.440   6.407  13.840 -0.3132  0.0825 -0.3965
 6415TIP3   OH240659   2.719   0.741   3.883 -0.1794 -0.0222  0.2919
 6415TIP3    H140660   2.737   0.756   3.790  0.9537 -1.5541  0.2567
 6415TIP3    H240661   2.637   0.789   3.899  0.3254  1.3653 -1.1650
 6416TIP3   OH240662   1.979   4.026   4.030  0.5778 -0.4735 -0.2490
 6416TIP3    H140663   2.004   4.051   4.119 -0.4397  0.2669 -0.1599
 6416TIP3    H240664   2.044   4.068   3.974  2.3086 -2.4561  0.2384
 6417TIP3   OH240665   2.457   2.993   3.978 -0.0615 -0.2547  0.7269
 6417TIP3    H140666   2.439   2.918   4.035  0.4868 -0.8637  0.1141
 6417TIP3    H240667   2.471   3.066   4.038  0.2327 -0.8242  1.3621
 6418TIP3   OH240668   5.335   3.604  10.795 -0.7399  0.4687  0.7676
 6418TIP3    H140669   5.395   3.678  10.809 -0.0753 -0.0128  0.4936
 6418TIP3    H240670   5.390   3.527  10.804 -1.4665 -0.0067  1.1977
 6419TIP3   OH240671   0.273   1.455   5.235 -0.2944  0.2434 -0.5995
 6419TIP3    H140672   0.210   1.462   5.163 -2.5640  1.2294  1.4072
 6419TIP3    H240673   0.270   1.540   5.278  1.7988  0.0040  0.0839
 6420TIP3   OH240674   0.341   0.115   5.293  0.0127 -0.5005  0.3139
 6420TIP3    H140675   0.311   0.172   5.223 -0.6049 -0.0557  0.9428
 6420TIP3    H240676   0.263   0.068   5.321 -0.2513  1.0991  2.3673
 6421TIP3   OH240677   3.661   5.297  15.461 -0.0339 -0.5020  0.0340
 6421TIP3    H140678   3.710   5.241  15.521  0.4459 -1.6972 -1.4591
 6421TIP3    H240679   3.571   5.294  15.494  0.0144 -2.0189  0.0697
 6422TIP3   OH240680   4.686   2.371   0.869  0.2408 -0.0691  0.0067
 6422TIP3    H140681   4.686   2.465   0.884  1.7279 -0.3337  1.8567
 6422TIP3    H240682   4.608   2.340   0.916  0.4937  0.0839  0.5362
 6423TIP3   OH240683   1.047   1.592  11.765 -0.7596 -0.2794  0.1037
 6423TIP3    H140684   1.102   1.641  11.826  0.8247 -0.4228 -1.1678
 6423TIP3    H240685   0.984   1.656  11.731  1.2160  0.8747 -1.4518
 6424TIP3   OH240686   5.758   6.335  13.750  0.3594  0.3409 -0.0838
 6424TIP3    H140687   5.664   6.335  13.730  0.6084 -0.6943 -1.3893
 6424TIP3    H240688   5.798   6.380  13.676  0.6863  3.2580  1.7847
 6425TIP3   OH240689   4.113   5.327   2.497 -0.2483 -0.3937  0.1144
 6425TIP3    H140690   4.063   5.363   2.570 -0.6298 -1.4041  0.3691
 6425TIP3    H240691   4.179   5.272   2.538  0.1727 -0.1743 -0.2697
 6426TIP3   OH240692   1.993   0.419  13.130 -0.8210  0.0124  0.5519
 6426TIP3    H140693   1.996   0.466  13.213 -1.6825  2.5221 -0.7733
 6426TIP3    H240694   2.084   0.414  13.101 -0.8433  2.1545  0.0497
 6427TIP3   OH240695   6.643   6.002  14.176 -0.2775 -0.5570  0.1985
 6427TIP3    H140696   6.596   6.004  14.260 -2.3612  0.3421 -0.9555
 6427TIP3    H240697   6.688   5.918  14.176 -0.1825 -0.5237  2.2645
 6428TIP3   OH240698   6.677   6.158   1.236 -0.6288  0.2502 -0.1642
 6428TIP3    H140699   6.671   6.064   1.253  0.6330  0.5667  2.1391
 6428TIP3    H240700   6.689   6.164   1.141 -0.3213 -1.9375 -0.2898
 6429TIP3   OH240701   0.479   1.644   4.313  0.1230 -0.4924 -0.5027
 6429TIP3    H140702   0.408   1.684   4.264  0.1364 -0.8721 -0.8364
 6429TIP3    H240703   0.555   1.650   4.255  0.1624 -0.8569 -0.4891
 6430TIP3   OH240704   0.934   6.094   1.684 -0.0704  0.0012  0.0001
 6430TIP3    H140705   1.019   6.080   1.727 -0.4431 -0.8004  0.4800
 6430TIP3    H240706   0.916   6.187   1.698 -0.4132 -0.3389  2.0289
 6431TIP3   OH240707   6.158   6.294   4.490  0.1729  0.0385  0.2845
 6431TIP3    H140708   6.104   6.216   4.482  0.5520  0.0210 -2.4361
 6431TIP3    H240709   6.114   6.347   4.556 -0.3137 -2.2583  1.8482
 6432TIP3   OH240710   2.660   5.945  13.856 -0.3075  0.2166 -0.0879
 6432TIP3    H140711   2.579   5.911  13.895 -1.6139  1.9418 -1.1971
 6432TIP3    H240712   2.653   5.922  13.763  0.6969 -0.0123 -0.1110
 6433TIP3   OH240713   6.532   3.195   2.014  0.1073  0.0852 -0.3400
 6433TIP3    H140714   6.536   3.211   1.920 -0.5121 -0.8734 -0.5280
 6433TIP3    H240715   6.486   3.272   2.049 -0.3749  0.0590 -0.9112
 6434TIP3   OH240716   4.954   4.579   3.579  0.0362  0.7861 -0.2661
 6434TIP3    H140717   5.043   4.605   3.604  1.2490 -1.5244 -1.9898
 6434TIP3    H240718   4.955   4.578   3.483 -0.5330 -3.3280 -0.3155
 6435TIP3   OH240719   3.099   5.595  14.448 -0.4120  0.4792  0.0414
 6435TIP3    H140720   3.125   5.532  14.381  0.2212  2.4358 -1.6059
 6435TIP3    H240721   3.017   5.633  14.416 -1.1520  0.0148  1.3544
 6436TIP3   OH240722   4.640   4.258   3.608  0.2013  0.0862 -0.2052
 6436TIP3    H140723   4.723   4.237   3.652  0.1642  0.1007 -0.1291
 6436TIP3    H240724   4.629   4.352   3.623  0.1403  0.0716 -0.1641
 6437TIP3   OH240725   0.894   0.513   4.561  0.0660 -0.1401 -0.0965
 6437TIP3    H140726   0.898   0.421   4.535 -1.0958 -0.7463  1.7994
 6437TIP3    H240727   0.986   0.541   4.565  0.3793 -0.8769 -1.7946
 6438TIP3   OH240728   3.632   2.511  12.366 -0.0396 -0.3839 -0.5851
 6438TIP3    H140729   3.536   2.506  12.362  0.0148 -0.8553 -1.6017
 6438TIP3    H240730   3.661   2.422  12.345  0.5902 -0.7183  1.6119
 6439TIP3   OH240731   1.975   1.651  13.871 -0.0824 -0.4288 -0.4356
 6439TIP3    H140732   2.025   1.678  13.948 -0.4478 -1.7774  0.2916
 6439TIP3    H240733   2.038   1.655  13.799 -0.0978  2.1955 -0.3464
 6440TIP3   OH240734   6.277   6.548   5.117  0.4867 -0.5752 -0.1749
 6440TIP3    H140735   6.191   6.590   5.122  0.5957 -0.3396 -0.3138
 6440TIP3    H240736   6.259   6.460   5.084  0.2444 -0.6869  0.2482
 6441TIP3   OH240737   6.342   2.194  16.459 -0.2017  0.3616  0.2298
 6441TIP3    H140738   6.366   2.264  16.521  0.4693 -0.1407  0.5435
 6441TIP3    H240739   6.250   2.176  16.479 -0.0148  0.2569  1.0447
 6442TIP3   OH240740   0.375   3.749   5.867 -0.4694  0.4755  0.0655
 6442TIP3    H140741   0.328   3.680   5.820 -0.2594 -0.6304  1.4397
 6442TIP3    H240742   0.445   3.776   5.808  1.2890 -2.5895  0.6494
 6443TIP3   OH240743   6.402   3.572   2.905 -0.2452  0.2730 -0.2444
 6443TIP3    H140744   6.425   3.589   2.996  0.7443  0.9943 -0.6212
 6443TIP3    H240745   6.351   3.649   2.878 -0.5441  0.0563 -0.3038
 6444TIP3   OH240746   2.558   1.086  15.406 -0.1218  0.0052  0.1030
 6444TIP3    H140747   2.466   1.113  15.412 -0.1005 -0.0189  0.5399
 6444TIP3    H240748   2.607   1.161  15.440 -0.0501 -0.5071  1.1253
 6445TIP3   OH240749   1.093   6.500  16.891  0.2220 -0.1384 -0.6120
 6445TIP3    H140750   1.050   6.570  16.941  0.0333 -1.0334  0.5033
 6445TIP3    H240751   1.185   6.527  16.886 -0.0079  0.5959 -0.9047
 6446TIP3   OH240752   0.425   4.218  12.379  0.0997 -0.0745  0.5154
 6446TIP3    H140753   0.410   4.262  12.463 -0.1927  0.7897  0.0182
 6446TIP3    H240754   0.495   4.155  12.397  0.3292  0.3947  1.3037
 6447TIP3   OH240755   3.386   2.455  12.009  0.0181  0.4556 -0.1536
 6447TIP3    H140756   3.380   2.426  12.100 -0.8613 -1.4798 -0.7980
 6447TIP3    H240757   3.449   2.527  12.011 -1.4030  1.7329  2.2902
 6448TIP3   OH240758   0.270   6.666  17.201  0.1554  0.2977  0.6342
 6448TIP3    H140759   0.276   6.621  17.285 -2.9971 -0.5901  0.4562
 6448TIP3    H240760   0.245   6.598  17.139 -1.3652  1.6483 -0.2742
 6449TIP3   OH240761   4.963   2.604   6.257  0.6555 -0.3519 -0.0786
 6449TIP3    H140762   4.930   2.598   6.346 -1.9538 -1.2812 -1.0380
 6449TIP3    H240763   4.973   2.513   6.229 -0.7690 -0.1063 -1.4742
 6450TIP3   OH240764   0.100   0.031   5.303 -0.1849 -0.1556  0.2096
 6450TIP3    H140765   0.067   0.015   5.392 -0.0132 -0.4992  0.2156
 6450TIP3    H240766   0.039  -0.015   5.246 -1.0012  1.0985  0.0588
 6451TIP3   OH240767   0.651   1.453  16.252  0.5125  0.1419  0.7457
 6451TIP3    H140768   0.644   1.548  16.260  0.2784  0.0328  1.9584
 6451TIP3    H240769   0.575   1.429  16.199 -1.1726  0.3480  2.9486
 6452TIP3   OH240770   6.642   3.491  15.406 -0.2162 -0.2459 -0.5950
 6452TIP3    H140771   6.574   3.494  15.339  0.5524  1.3200 -1.3480
 6452TIP3    H240772   6.683   3.578  15.403 -0.6394  0.1100  2.4391
 6453TIP3   OH240773   5.291   5.118  13.582  0.1306 -0.0646 -0.4727
 6453TIP3    H140774   5.378   5.156  13.572  0.5338 -0.4766  1.3667
 6453TIP3    H240775   5.306   5.024  13.589 -0.4260 -0.1045  0.2627
 6454TIP3   OH240776   5.960   6.625  15.684 -0.8156 -0.9126  0.5756
 6454TIP3    H140777   5.890   6.655  15.627  1.9386 -0.3018 -2.6297
 6454TIP3    H240778   5.989   6.704  15.730  0.2204 -0.4270 -0.8863
 6455TIP3   OH240779   5.440   4.326  14.593 -0.2074  0.1285 -0.1301
 6455TIP3    H140780   5.459   4.233  14.582 -0.6634 -0.0920  0.9141
 6455TIP3    H240781   5.388   4.348  14.516  1.8107  0.0787 -1.5615
 6456TIP3   OH240782   0.022   5.252  16.021  0.0663  0.5114 -0.1424
 6456TIP3    H140783   0.058   5.341  16.016  2.1815 -0.2468  1.1481
 6456TIP3    H240784  -0.072   5.265  16.031  0.4203  2.6084  0.7138
 6457TIP3   OH240785   1.150   4.243   3.235  0.4449  0.5880  0.0555
 6457TIP3    H140786   1.235   4.271   3.202 -0.4984  0.3534 -2.7134
 6457TIP3    H240787   1.165   4.157   3.275  1.6889  1.0652  0.6220
 6458TIP3   OH240788   0.021   2.363   5.261 -0.3981  0.1312 -0.0232
 6458TIP3    H140789  -0.062   2.363   5.310 -0.7426 -0.9941 -0.5959
 6458TIP3    H240790  -0.004   2.383   5.171 -0.5632 -4.1731 -1.0077
 6459TIP3   OH240791   6.380   2.342  17.143  0.1183 -0.0994 -0.3115
 6459TIP3    H140792   6.352   2.406  17.208  0.1357  0.6241 -1.0095
 6459TIP3    H240793   6.400   2.263  17.194 -0.6092  0.2163  0.4690
 6460TIP3   OH240794   1.165   0.593  14.403 -0.1198  0.2706 -0.2785
 6460TIP3    H140795   1.109   0.520  14.378  1.5914 -1.3549  0.4994
 6460TIP3    H240796   1.112   0.644  14.464 -1.0528 -0.7746 -0.1965
 6461TIP3   OH240797   6.746   4.625  15.815 -0.4949  0.5238  0.2389
 6461TIP3    H140798   6.803   4.560  15.856 -0.3543  1.2077  1.1563
 6461TIP3    H240799   6.750   4.605  15.721 -0.0446 -0.4522  0.4617
 6462TIP3   OH240800   2.378   1.638   1.533 -0.7973  0.0083 -0.1555
 6462TIP3    H140801   2.310   1.696   1.568 -2.3540 -2.3607  0.9451
 6462TIP3    H240802   2.332   1.555   1.517  1.5584 -1.2254 -0.7267
 6463TIP3   OH240803   1.159   5.914  14.771  0.1576  0.1057  0.6401
 6463TIP3    H140804   1.163   6.002  14.734  1.8745  0.1876  0.9654
 6463TIP3    H240805   1.102   5.865  14.712 -1.9954  1.7925  1.2369
 6464TIP3   OH240806   5.203   3.712   5.387  0.3483 -0.5195 -0.1995
 6464TIP3    H140807   5.189   3.730   5.294  0.7813 -0.8309 -0.3264
 6464TIP3    H240808   5.130   3.757   5.431  0.8395  0.6909 -0.5838
 6465TIP3   OH240809   3.816   6.346  15.126  0.1213 -0.3439  0.5870
 6465TIP3    H140810   3.752   6.301  15.072  0.1488  1.3635 -0.8994
 6465TIP3    H240811   3.900   6.311  15.098  0.1860  0.9739 -0.9672
 6466TIP3   OH240812   4.442   0.058  13.455  0.0243 -0.1730 -0.0228
 6466TIP3    H140813   4.348   0.043  13.457 -0.3150  1.8705 -0.2694
 6466TIP3    H240814   4.469   0.053  13.547 -0.9415  2.9084  0.4801
 6467TIP3   OH240815   3.299   0.463  14.181  0.2700  0.2866  0.7670
 6467TIP3    H140816   3.343   0.549  14.183  0.9437 -0.0641  2.8271
 6467TIP3    H240817   3.207   0.483  14.165  0.7376  1.2482 -0.7762
 6468TIP3   OH240818   2.836   4.299   1.346  0.6034 -0.3254 -0.3675
 6468TIP3    H140819   2.808   4.241   1.417 -0.8907 -0.1883 -0.8418
 6468TIP3    H240820   2.775   4.372   1.350 -1.5350 -1.8474 -3.8749
 6469TIP3   OH240821   6.092   0.638   0.206  0.0013 -0.1345 -0.4433
 6469TIP3    H140822   6.084   0.660   0.114 -3.2484 -2.0436 -0.6993
 6469TIP3    H240823   6.112   0.544   0.207  0.7268  0.0195  0.7604
 6470TIP3   OH240824   4.079   0.751  15.151 -0.1683 -0.1079  0.1223
 6470TIP3    H140825   4.142   0.683  15.128  0.9139  1.4016 -1.5634
 6470TIP3    H240826   4.076   0.808  15.074 -2.3760  0.7634  0.8105
 6471TIP3   OH240827   4.231   6.064   0.126  0.4575  0.1792 -0.0721
 6471TIP3    H140828   4.242   6.121   0.203  0.0967  0.2077 -0.0410
 6471TIP3    H240829   4.162   6.003   0.151  0.0716  0.4301 -0.5162
 6472TIP3   OH240830   5.531   2.230  13.862 -0.3517 -0.4647  0.2843
 6472TIP3    H140831   5.468   2.256  13.929  0.9550 -0.2017  1.4441
 6472TIP3    H240832   5.538   2.306  13.804  0.5650  0.3607  1.4461
 6473TIP3   OH240833   5.379   6.372   4.247  0.8069  0.0754 -0.6744
 6473TIP3    H140834   5.371   6.322   4.328  0.5302  0.4003 -0.4973
 6473TIP3    H240835   5.462   6.419   4.256  0.6900  0.2502 -0.4984
 6474TIP3   OH240836   3.374   3.658   0.753 -0.3602 -0.2084 -0.0829
 6474TIP3    H140837   3.340   3.737   0.712 -0.1759  0.0911  0.3379
 6474TIP3    H240838   3.368   3.591   0.685 -2.0567 -0.2325  0.0659
 6475TIP3   OH240839   1.785   0.853  16.395 -0.4341 -0.2013 -0.0083
 6475TIP3    H140840   1.790   0.900  16.478 -0.6459  0.9997 -0.6697
 6475TIP3    H240841   1.870   0.867  16.354 -0.9676  0.8112 -0.8279
 6476TIP3   OH240842   2.415   0.847   0.528  0.1698 -0.0067  0.3394
 6476TIP3    H140843   2.321   0.862   0.526  0.1757  0.0561  0.4895
 6476TIP3    H240844   2.448   0.889   0.449 -0.1085 -1.3280 -0.4887
 6477TIP3   OH240845   3.169   6.570  11.625 -0.6079  0.5416  0.4172
 6477TIP3    H140846   3.181   6.546  11.717  1.0820  0.4983  0.1868
 6477TIP3    H240847   3.223   6.507  11.577 -1.3317  0.6917 -0.5982
 6478TIP3   OH240848   5.913   4.267  12.015 -0.1377 -0.0688 -0.1074
 6478TIP3    H140849   5.873   4.350  11.992  1.4192  0.5233 -0.7385
 6478TIP3    H240850   5.877   4.204  11.953  1.7383  0.9369 -2.2868
 6479TIP3   OH240851   1.500   6.404   3.443 -0.3219  0.5425 -0.3570
 6479TIP3    H140852   1.481   6.310   3.442 -1.3164  0.7374 -1.0157
 6479TIP3    H240853   1.417   6.444   3.469  0.0154  1.2596 -0.3907
 6480TIP3   OH240854   2.113   4.689   3.417  0.0085 -0.3609 -0.0036
 6480TIP3    H140855   2.170   4.752   3.462  0.5941 -1.0247  0.1868
 6480TIP3    H240856   2.164   4.661   3.341 -0.2840 -0.5506 -0.1306
 6481TIP3   OH240857   5.321   4.336   4.023  0.0697 -0.0617 -0.5757
 6481TIP3    H140858   5.273   4.407   4.067 -3.1800 -0.6777 -2.9808
 6481TIP3    H240859   5.298   4.345   3.931  1.5233 -2.8314 -1.2500
 6482TIP3   OH240860   4.360   1.803   2.277  0.6286 -0.3732  0.5562
 6482TIP3    H140861   4.308   1.743   2.330  1.4615 -0.4124  1.3375
 6482TIP3    H240862   4.313   1.807   2.193 -0.7238 -0.2725  1.2935
 6483TIP3   OH240863   1.642   0.519   2.658 -0.8022  0.3016 -0.4877
 6483TIP3    H140864   1.622   0.604   2.697  1.1545 -0.1424  1.5940
 6483TIP3    H240865   1.659   0.538   2.565 -2.2420  1.8736 -0.4509
 6484TIP3   OH240866   1.879   2.274  16.772  0.5257 -0.1240  0.2449
 6484TIP3    H140867   1.969   2.258  16.801  1.3950  1.0258 -1.6450
 6484TIP3    H240868   1.838   2.188  16.772  1.6822 -0.6930  0.9709
 6485TIP3   OH240869   1.963   6.048   0.833 -0.5396 -0.6291  0.5386
 6485TIP3    H140870   1.918   6.002   0.904  0.2834  0.7232  1.9667
 6485TIP3    H240871   1.894   6.070   0.771 -1.4387 -0.9203  1.4276
 6486TIP3   OH240872   3.146   1.495  14.832  0.1862  0.5832  0.4285
 6486TIP3    H140873   3.124   1.584  14.860  2.6194  1.1834  0.4812
 6486TIP3    H240874   3.159   1.501  14.738 -0.2624  0.1466  0.3347
 6487TIP3   OH240875   6.423   1.648  12.216 -0.2026  0.3889 -0.1092
 6487TIP3    H140876   6.471   1.675  12.294 -1.3201  2.0309  0.0281
 6487TIP3    H240877   6.331   1.648  12.242 -0.4860 -0.3813 -1.0552
 6488TIP3   OH240878   4.572   4.326   1.879 -0.0763  0.7975  0.6268
 6488TIP3    H140879   4.667   4.326   1.874  0.2121  5.3663  3.2804
 6488TIP3    H240880   4.552   4.319   1.972 -2.4186 -0.3683  0.0979
 6489TIP3   OH240881   5.545   6.092  14.323  0.0461 -0.2789  0.3345
 6489TIP3    H140882   5.581   6.097  14.234 -1.4209  1.8234 -0.1901
 6489TIP3    H240883   5.470   6.034  14.314 -0.3075  0.2054  0.1073
 6490TIP3   OH240884   2.183   0.817   0.264 -0.0322 -0.6347  0.0658
 6490TIP3    H140885   2.269   0.790   0.231  0.2564 -0.4835  0.6916
 6490TIP3    H240886   2.188   0.912   0.270 -1.0512 -0.3885 -2.1370
 6491TIP3   OH240887   0.722   1.450  11.228 -0.6642 -0.7143  0.1484
 6491TIP3    H140888   0.786   1.386  11.259 -0.4109 -0.3132  0.4543
 6491TIP3    H240889   0.757   1.480  11.143 -1.0896 -1.4230 -0.2817
 6492TIP3   OH240890   4.394   0.924   0.437  0.4193  0.1035 -0.1417
 6492TIP3    H140891   4.417   0.980   0.511 -0.7483  0.1921  0.1653
 6492TIP3    H240892   4.389   0.836   0.474  0.5870  0.0348 -0.2789
 6493TIP3   OH240893   5.299   0.481   2.450  0.3583 -0.4006  0.1508
 6493TIP3    H140894   5.383   0.519   2.428  0.0819  0.8407  1.2141
 6493TIP3    H240895   5.318   0.388   2.466  1.1372 -0.5879 -1.7270
 6494TIP3   OH240896   0.436   5.047  12.802 -0.2948 -0.0513 -0.4469
 6494TIP3    H140897   0.377   5.027  12.729 -1.4181  3.2148 -0.5000
 6494TIP3    H240898   0.504   5.102  12.763  0.5944 -0.5273  0.4327
 6495TIP3   OH240899   2.608   2.976   0.682  0.7016  0.3777 -0.4794
 6495TIP3    H140900   2.610   3.003   0.774  2.6639  2.6265 -1.1238
 6495TIP3    H240901   2.527   3.012   0.648  0.2675  0.0677  0.2238
 6496TIP3   OH240902   0.084   3.874   2.968  0.0755  0.0027 -0.1600
 6496TIP3    H140903   0.115   3.788   2.938  1.3262 -0.5069  2.4812
 6496TIP3    H240904   0.151   3.935   2.938  1.1877 -0.4695  1.2959
 6497TIP3   OH240905   6.567   6.337   1.415 -0.0578 -0.3264 -0.1701
 6497TIP3    H140906   6.618   6.276   1.361 -0.3294  0.9968 -1.9832
 6497TIP3    H240907   6.632   6.391   1.458  0.1636 -1.3824  0.8458
 6498TIP3   OH240908   0.277   4.771  14.589  0.1789  0.2245  0.2014
 6498TIP3    H140909   0.199   4.815  14.555  1.2518  0.1153 -2.5462
 6498TIP3    H240910   0.348   4.832  14.573  0.8054 -0.0423  1.8901
 6499TIP3   OH240911   4.951   3.681  12.369  0.4240  0.6525 -0.0796
 6499TIP3    H140912   5.026   3.727  12.331 -0.6959  2.6068  0.0255
 6499TIP3    H240913   4.925   3.735  12.444  0.0584 -1.0009  1.0143
 6500TIP3   OH240914   5.756   1.263  14.601 -0.5643  0.9896  0.3158
 6500TIP3    H140915   5.680   1.314  14.628 -1.6231 -0.4647  0.1457
 6500TIP3    H240916   5.787   1.305  14.521 -1.3524  1.4308  0.2458
 6501TIP3   OH240917   4.302   2.351  11.614  0.3478 -0.3709  0.3661
 6501TIP3    H140918   4.267   2.435  11.585 -2.0888 -0.7804  2.0258
 6501TIP3    H240919   4.392   2.370  11.641 -0.2035  1.6991  0.7884
 6502TIP3   OH240920   3.091   0.465  12.075  0.0985  0.6086 -0.1438
 6502TIP3    H140921   3.171   0.434  12.031 -1.1252 -1.4663 -0.9853
 6502TIP3    H240922   3.021   0.451  12.011 -1.1513  1.1619  1.0689
 6503TIP3   OH240923   1.120   3.968  11.404  0.1549 -0.0548  0.3637
 6503TIP3    H140924   1.075   3.974  11.319  0.2061  0.6672  0.3819
 6503TIP3    H240925   1.212   3.984  11.383  0.3670 -1.2301  0.3703
 6504TIP3   OH240926   3.489   1.076  11.962  0.0441 -0.1726  0.3088
 6504TIP3    H140927   3.506   1.004  12.023  4.0369 -0.6788 -1.2008
 6504TIP3    H240928   3.560   1.138  11.978 -1.5429  1.9095 -0.5994
 6505TIP3   OH240929   2.956   5.199   2.622 -0.4990  0.4258  1.1154
 6505TIP3    H140930   3.018   5.150   2.676 -0.8249 -0.4919  0.6624
 6505TIP3    H240931   2.871   5.159   2.639 -0.3832 -0.9642 -1.2878
 6506TIP3   OH240932   1.441   2.368   4.764 -0.2387  0.3737  0.4543
 6506TIP3    H140933   1.493   2.288   4.756  0.5941  0.9689 -0.1533
 6506TIP3    H240934   1.430   2.380   4.859 -1.5941 -1.2278  0.5172
 6507TIP3   OH240935   3.988   4.992  15.070  0.3233 -0.1837 -0.0670
 6507TIP3    H140936   3.946   4.992  14.984  0.5052 -1.0230 -0.1651
 6507TIP3    H240937   4.040   5.072  15.072 -1.7237  1.1716  0.2804
 6508TIP3   OH240938   4.184   1.008  17.018  0.4687 -0.2344  0.1513
 6508TIP3    H140939   4.230   0.974  17.095  0.7154 -0.0817  0.0721
 6508TIP3    H240940   4.109   1.055  17.053 -0.5554 -1.8931  0.2197
 6509TIP3   OH240941   5.783   3.933  15.082 -0.1285  0.0495 -0.1654
 6509TIP3    H140942   5.878   3.944  15.082 -0.2122  0.9711  1.4558
 6509TIP3    H240943   5.750   4.006  15.030 -0.0196  0.5976  0.5241
 6510TIP3   OH240944   3.476   3.075   5.995  0.3441  0.0863  0.1650
 6510TIP3    H140945   3.488   3.048   6.086  1.3272  1.5186  0.4565
 6510TIP3    H240946   3.560   3.110   5.968 -0.1126  0.2313 -1.1225
 6511TIP3   OH240947   5.756   3.985   1.908  0.1372  0.5728 -0.5511
 6511TIP3    H140948   5.661   3.986   1.916  0.2415  0.9643  0.7893
 6511TIP3    H240949   5.773   4.016   1.819 -1.0040 -0.0719 -0.9967
 6512TIP3   OH240950   0.145   1.034   2.982  0.0709 -0.0351 -0.0466
 6512TIP3    H140951   0.058   0.996   2.990 -0.1013  0.6938  1.8926
 6512TIP3    H240952   0.136   1.102   2.915 -0.6483 -0.5018 -0.4271
 6513TIP3   OH240953   5.306   0.726  15.246  0.0198  0.1398 -0.3040
 6513TIP3    H140954   5.241   0.743  15.313 -0.6389  0.2562 -0.9688
 6513TIP3    H240955   5.303   0.631  15.233  1.0610 -0.0489  0.7432
 6514TIP3   OH240956   3.764   4.274  16.149  0.1463  0.2567  0.3130
 6514TIP3    H140957   3.818   4.327  16.090  0.1507  2.1176  1.9724
 6514TIP3    H240958   3.700   4.335  16.185  1.4075 -0.4084  3.8074
 6515TIP3   OH240959   5.398   2.147   3.005 -1.2669 -0.4206 -0.5686
 6515TIP3    H140960   5.359   2.098   2.933  0.1353  0.2887 -1.8317
 6515TIP3    H240961   5.376   2.238   2.988 -2.4281 -0.4243  0.8603
 6516TIP3   OH240962   1.493   0.405   1.666  0.4324  0.2772 -0.4094
 6516TIP3    H140963   1.549   0.368   1.734  1.1382 -0.3865 -1.3373
 6516TIP3    H240964   1.471   0.330   1.611 -3.0741  0.1248  1.0973
 6517TIP3   OH240965   6.369   4.521  13.962  0.0919  0.2784 -0.1897
 6517TIP3    H140966   6.411   4.602  13.931  0.2539  0.8229  1.3964
 6517TIP3    H240967   6.398   4.512  14.053  2.1467 -2.9398 -1.0757
 6518TIP3   OH240968   6.436   5.865   0.972  0.3237 -0.0458 -0.0661
 6518TIP3    H140969   6.465   5.903   1.056  2.4462 -1.7196  0.0177
 6518TIP3    H240970   6.423   5.772   0.992  2.4034 -0.7726 -1.9181
 6519TIP3   OH240971   0.244   0.477  11.619  0.7262  0.2576  0.2975
 6519TIP3    H140972   0.186   0.413  11.577  0.6122 -0.7853  1.9942
 6519TIP3    H240973   0.243   0.552  11.560 -2.7522  0.4728  0.5191
 6520TIP3   OH240974   6.753   5.134  15.630  0.3957  0.0749  0.7113
 6520TIP3    H140975   6.732   5.153  15.721 -0.2139 -2.2433  1.0751
 6520TIP3    H240976   6.752   5.039  15.624  1.0815  0.1822 -1.5724
 6521TIP3   OH240977   3.050   4.144   1.845 -0.2208 -0.1809  0.6542
 6521TIP3    H140978   3.020   4.162   1.934  0.7344 -0.5198  1.0603
 6521TIP3    H240979   2.998   4.069   1.816 -0.4733 -0.1271  0.9652
 6522TIP3   OH240980   0.814   0.638  14.585  0.0574  0.6910  0.0752
 6522TIP3    H140981   0.763   0.573  14.634  0.4508  0.7231  0.5286
 6522TIP3    H240982   0.824   0.600  14.498  0.0260  0.2796  0.2493
 6523TIP3   OH240983   3.814   1.783  13.798 -0.8818  0.1980 -0.8519
 6523TIP3    H140984   3.779   1.695  13.813 -0.1532  0.1224  0.4537
 6523TIP3    H240985   3.835   1.784  13.704 -1.3961 -0.8277 -0.9947
 6524TIP3   OH240986   2.096   3.280   5.536 -0.2067  0.0164  0.6122
 6524TIP3    H140987   2.046   3.254   5.459  1.3142 -1.6160  0.1526
 6524TIP3    H240988   2.087   3.206   5.597  1.5287 -0.2323  0.5718
 6525TIP3   OH240989   0.724   0.244   5.352  0.3428  0.1784  0.1006
 6525TIP3    H140990   0.712   0.225   5.445  1.2106 -1.5355 -0.1280
 6525TIP3    H240991   0.744   0.160   5.312 -2.3415  0.4818 -2.0415
 6526TIP3   OH240992   2.826   5.134   1.915  0.3158 -0.2542 -0.5277
 6526TIP3    H140993   2.810   5.177   2.000  1.1224  1.4405 -1.2060
 6526TIP3    H240994   2.816   5.204   1.851  0.6816 -1.3201 -1.7683
 6527TIP3   OH240995   5.506   4.265   1.764  0.1941  0.3364  0.1296
 6527TIP3    H140996   5.543   4.252   1.851  2.4915  2.3031 -0.5135
 6527TIP3    H240997   5.547   4.345   1.732 -2.2166  0.8037 -1.9323
 6528TIP3   OH240998   4.998   5.104   3.640 -0.5752 -0.4793  0.5681
 6528TIP3    H140999   4.971   5.027   3.590 -0.2975 -1.3606  1.7387
 6528TIP3    H241000   4.950   5.177   3.601 -0.9337 -1.2648 -0.4774
 6529TIP3   OH241001   1.069   1.215  13.987 -0.7159  0.8605 -0.6884
 6529TIP3    H141002   1.049   1.253  14.072 -2.6710  2.0846 -1.6580
 6529TIP3    H241003   1.100   1.288  13.934 -0.0451  0.2152 -1.2028
 6530TIP3   OH241004   1.371   0.507  10.796 -0.2951 -0.0008  0.4249
 6530TIP3    H141005   1.291   0.457  10.812 -0.2093  0.5810  2.8709
 6530TIP3    H241006   1.341   0.597  10.784 -0.1974 -0.1625 -1.2044
 6531TIP3   OH241007   0.117   2.152  13.027 -0.5769  0.1323 -0.0384
 6531TIP3    H141008   0.086   2.226  13.080 -0.9790 -0.2525  0.2654
 6531TIP3    H241009   0.173   2.102  13.085  1.6955  1.5163 -0.9566
 6532TIP3   OH241010   5.280   0.054  16.376 -0.2770  0.1688 -0.0355
 6532TIP3    H141011   5.315   0.127  16.325 -2.2149  0.2096 -1.3613
 6532TIP3    H241012   5.223   0.094  16.441  1.0146  0.0100  1.2265
 6533TIP3   OH241013   5.430   0.041  13.980 -0.0777  0.3711  0.5903
 6533TIP3    H141014   5.477   0.012  14.058  1.4876  1.2688  0.0057
 6533TIP3    H241015   5.499   0.056  13.915 -1.3242  0.0942 -0.8113
 6534TIP3   OH241016   3.186   1.981   5.567  0.0723  0.4782  0.0092
 6534TIP3    H141017   3.236   1.909   5.529 -1.1588 -0.1462 -0.4666
 6534TIP3    H241018   3.182   2.046   5.497  0.2781  0.5472  0.0639
 6535TIP3   OH241019   3.489   6.622  11.067  0.4538 -0.8655  0.1135
 6535TIP3    H141020   3.479   6.667  11.151  0.3469 -1.9283  0.6741
 6535TIP3    H241021   3.495   6.693  11.003  2.3367 -0.0140  1.1946
 6536TIP3   OH241022   4.917   6.330   5.443 -0.2453 -0.4340  0.7383
 6536TIP3    H141023   4.972   6.318   5.366 -0.6686 -0.6973  0.4730
 6536TIP3    H241024   4.970   6.298   5.517  0.0804 -0.3715  0.5321
 6537TIP3   OH241025   2.126   6.274   0.225 -0.0284  0.0245 -0.0800
 6537TIP3    H141026   2.188   6.297   0.157 -1.0016  2.4683 -0.2117
 6537TIP3    H241027   2.174   6.288   0.307  0.6389 -1.3684 -0.2276
 6538TIP3   OH241028   3.283   4.821  10.453 -0.1828  0.0455 -0.1821
 6538TIP3    H141029   3.345   4.890  10.476 -1.7887  1.3003  0.5207
 6538TIP3    H241030   3.215   4.827  10.521 -1.8039 -0.3362 -1.7385
 6539TIP3   OH241031   6.020   5.268   1.658 -0.0355  0.2509  0.3540
 6539TIP3    H141032   5.989   5.227   1.577 -1.4039 -0.4562  1.2276
 6539TIP3    H241033   5.986   5.213   1.728  1.9713  0.2813  1.4082
 6540TIP3   OH241034   2.593   5.491   3.694  0.1542 -0.6935  0.2008
 6540TIP3    H141035   2.509   5.452   3.716 -0.3868  0.4621  0.2149
 6540TIP3    H241036   2.652   5.460   3.762 -0.6950 -0.0331  1.2559
 6541TIP3   OH241037   0.244   3.209   4.186  0.3232 -0.1282  0.9326
 6541TIP3    H141038   0.318   3.160   4.151  0.4868  1.0227 -0.4167
 6541TIP3    H241039   0.271   3.301   4.178 -1.2241  0.2978  0.4312
 6542TIP3   OH241040   2.450   2.884  15.880  0.0723  0.2690 -0.0761
 6542TIP3    H141041   2.395   2.951  15.921 -1.1741 -0.1755 -1.0087
 6542TIP3    H241042   2.462   2.817  15.949  0.5439  0.9786  0.5448
 6543TIP3   OH241043   4.249   1.903   0.255  0.6642  0.0732  0.2023
 6543TIP3    H141044   4.196   1.868   0.184 -2.2242  2.7794  0.9069
 6543TIP3    H241045   4.323   1.945   0.212 -0.7457  1.1667 -1.1942
 6544TIP3   OH241046   2.888   4.308  15.104  0.2128 -0.1616 -0.2656
 6544TIP3    H141047   2.878   4.293  15.198  0.5729 -2.1191 -0.5182
 6544TIP3    H241048   2.808   4.354  15.079 -0.7943 -1.3963  0.6410
 6545TIP3   OH241049   1.752   3.430  14.550  1.0749 -0.1349 -0.6452
 6545TIP3    H141050   1.836   3.442  14.595  0.9612 -0.0509 -0.4553
 6545TIP3    H241051   1.745   3.335  14.540  1.6212 -0.0907 -1.4827
 6546TIP3   OH241052   0.112   2.718  16.501 -0.3977  0.4441 -0.0541
 6546TIP3    H141053   0.068   2.735  16.417 -2.5590  1.6159  1.2791
 6546TIP3    H241054   0.104   2.800  16.549  0.8180 -0.2299  1.3217
 6547TIP3   OH241055   0.543   6.568  11.736 -0.5744 -0.3989 -0.0087
 6547TIP3    H141056   0.507   6.488  11.775 -4.7659  1.1434 -0.4934
 6547TIP3    H241057   0.599   6.605  11.804  0.5101 -3.0716  0.6444
 6548TIP3   OH241058   1.233   5.289  14.264 -0.3593 -0.6010  0.2426
 6548TIP3    H141059   1.177   5.225  14.222  1.0680 -0.6077 -1.7468
 6548TIP3    H241060   1.269   5.341  14.192  0.7323  0.5818  1.5884
 6549TIP3   OH241061   5.994   6.775  11.774 -1.1079  0.1984 -0.4442
 6549TIP3    H141062   6.027   6.861  11.798 -0.3567 -0.5827  1.4145
 6549TIP3    H241063   6.063   6.714  11.803 -1.4609 -1.0050 -2.0423
 6550TIP3   OH241064   3.530   3.315  12.810  0.2882 -0.3806  0.2547
 6550TIP3    H141065   3.562   3.399  12.843  0.8207  0.6713 -2.8059
 6550TIP3    H241066   3.500   3.334  12.721  0.3162 -3.4108 -0.4524
 6551TIP3   OH241067   2.475   3.069   1.623 -0.2077  0.6238  0.2582
 6551TIP3    H141068   2.514   3.134   1.565 -1.7360 -0.7393 -2.4029
 6551TIP3    H241069   2.530   2.992   1.615 -0.0743  0.6151  1.1275
 6552TIP3   OH241070   0.066   0.748  16.398 -0.0431  0.1237  0.3352
 6552TIP3    H141071   0.086   0.771  16.489 -1.4213 -0.0344  0.6812
 6552TIP3    H241072   0.008   0.672  16.405  0.0124 -0.0126 -0.6840
 6553TIP3   OH241073   3.660   4.663   5.069  0.2419  0.7621  0.5767
 6553TIP3    H141074   3.618   4.749   5.067  1.0848  1.1984  1.2808
 6553TIP3    H241075   3.724   4.665   4.998  1.5711  1.4081  1.7690
 6554TIP3   OH241076   2.501   3.873  14.131 -0.1984 -0.1362  0.2462
 6554TIP3    H141077   2.492   3.894  14.038 -0.1645 -3.7254 -0.6248
 6554TIP3    H241078   2.450   3.941  14.175 -0.6146  1.3624 -2.4106
 6555TIP3   OH241079   0.301   4.202  15.533  0.5125  0.0619  0.9525
 6555TIP3    H141080   0.230   4.161  15.483  1.1896  0.8382 -0.6738
 6555TIP3    H241081   0.283   4.296  15.528  1.5154  0.2458  0.7527
 6556TIP3   OH241082   1.676   5.007  11.497  0.4797 -0.0171 -0.0228
 6556TIP3    H141083   1.723   4.935  11.455  0.4945  0.4543 -0.8419
 6556TIP3    H241084   1.586   4.974  11.506  0.5487 -0.2447 -0.1450
 6557TIP3   OH241085   6.086   0.819  14.485 -0.1611 -0.0600 -0.1560
 6557TIP3    H141086   6.120   0.845  14.571 -0.7077 -0.7311  0.2692
 6557TIP3    H241087   6.005   0.870  14.475 -1.5729 -2.0227  0.9575
 6558TIP3   OH241088   5.377   6.379  12.735  0.2942 -0.2279  0.1175
 6558TIP3    H141089   5.295   6.351  12.694 -0.0037 -0.8818  1.1373
 6558TIP3    H241090   5.352   6.455  12.789  0.3885 -0.3242  0.2974
 6559TIP3   OH241091   0.502   3.036  14.123 -0.5819 -0.1038 -0.0043
 6559TIP3    H141092   0.561   3.096  14.078  0.8792 -0.2131  1.6906
 6559TIP3    H241093   0.527   2.949  14.091  0.9251 -0.2400  1.5075
 6560TIP3   OH241094   4.224   2.815  14.539 -0.0121  0.0274  0.3606
 6560TIP3    H141095   4.236   2.855  14.625  0.0001  0.4418  0.1683
 6560TIP3    H241096   4.134   2.838  14.515 -0.0149 -0.0907  0.2645
 6561TIP3   OH241097   3.987   5.061  13.785  0.2543 -0.3012  0.2807
 6561TIP3    H141098   3.939   4.988  13.826 -1.5287  1.5303  1.5334
 6561TIP3    H241099   3.944   5.073  13.700 -0.9464  0.7363  1.0188
 6562TIP3   OH241100   5.857   4.376   0.093 -0.2864  0.0987  0.9016
 6562TIP3    H141101   5.945   4.384   0.056  0.6513 -3.1606  2.2722
 6562TIP3    H241102   5.821   4.297   0.053 -2.0253  0.5793  1.4872
 6563TIP3   OH241103   3.746   1.532   2.420  0.3593  0.2127  0.4140
 6563TIP3    H141104   3.662   1.488   2.432 -0.0722  1.3900  1.7789
 6563TIP3    H241105   3.737   1.578   2.337 -0.2823  0.1892  0.4654
 6564TIP3   OH241106   1.238   4.314   0.368 -0.1653  0.7385 -0.0075
 6564TIP3    H141107   1.254   4.288   0.459 -5.6665 -0.7709  0.6779
 6564TIP3    H241108   1.244   4.232   0.318  0.3232  1.1627 -0.6615
 6565TIP3   OH241109   1.272   0.637   0.578 -0.0439 -0.0061  0.2090
 6565TIP3    H141110   1.200   0.638   0.640  1.1178  0.0610  1.5868
 6565TIP3    H241111   1.276   0.547   0.546  0.3040 -0.4075  1.3801
 6566TIP3   OH241112   5.569   0.015  16.715  0.4018 -0.0327 -0.2140
 6566TIP3    H141113   5.630  -0.046  16.756  0.4565 -2.0452 -3.1361
 6566TIP3    H241114   5.484  -0.031  16.716 -0.6472  1.8879  1.9683
 6567TIP3   OH241115   3.596   3.615  14.822  0.5400 -0.1691 -0.0176
 6567TIP3    H141116   3.508   3.577  14.816  0.4018  0.0881  0.3420
 6567TIP3    H241117   3.597   3.660  14.907  0.3314  1.6229 -0.9548
 6568TIP3   OH241118   5.311   6.441  16.589 -0.0575  0.0825  0.3743
 6568TIP3    H141119   5.350   6.384  16.524  0.8306  0.7411  0.3196
 6568TIP3    H241120   5.314   6.528  16.549 -1.7573  0.1251  0.2843
 6569TIP3   OH241121   3.055   0.790  12.121 -0.3617  0.2133 -0.0825
 6569TIP3    H141122   3.080   0.859  12.182 -0.1784  0.3389 -0.3009
 6569TIP3    H241123   3.066   0.709  12.171  2.3097  0.1088 -0.7519
 6570TIP3   OH241124   4.830   1.451   5.519 -0.1901  0.0485 -0.4099
 6570TIP3    H141125   4.783   1.501   5.453  0.2741  0.5157 -0.3888
 6570TIP3    H241126   4.920   1.483   5.514 -0.3019  0.6061  0.9373
 6571TIP3   OH241127   3.173   3.507  14.506 -0.5533  0.1058  0.3847
 6571TIP3    H141128   3.080   3.488  14.494 -0.7262  0.5993  0.9341
 6571TIP3    H241129   3.209   3.506  14.417 -1.2579  0.8253  0.0876
 6572TIP3   OH241130   3.120   2.042  14.469  0.4152 -0.5289 -0.3969
 6572TIP3    H141131   3.175   1.985  14.523 -0.8918 -2.3602 -0.9481
 6572TIP3    H241132   3.178   2.113  14.442  2.1962 -1.8239 -0.0599
 6573TIP3   OH241133   6.444   4.828   6.437  0.0330 -0.2961 -0.0882
 6573TIP3    H141134   6.353   4.855   6.424 -0.3762 -1.0269  1.1361
 6573TIP3    H241135   6.474   4.880   6.511  0.7068  0.1417 -0.6599
 6574TIP3   OH241136   3.283   3.228   3.226  0.5218 -0.0633 -0.2429
 6574TIP3    H141137   3.189   3.240   3.213  0.2849 -0.0958  1.3294
 6574TIP3    H241138   3.324   3.291   3.166 -0.5472  1.4034  0.5329
 6575TIP3   OH241139   0.615   2.045  15.749  0.0677 -0.2389  0.3156
 6575TIP3    H141140   0.694   2.080  15.706 -0.1753 -0.9200 -0.6985
 6575TIP3    H241141   0.629   1.950  15.751 -0.2370 -0.2760  1.1461
 6576TIP3   OH241142   5.008   1.746  14.917 -0.2930 -0.7127 -0.0162
 6576TIP3    H141143   5.004   1.833  14.957  0.0310 -0.4079 -0.6335
 6576TIP3    H241144   4.918   1.727  14.893 -0.1255  0.2481 -1.5213
 6577TIP3   OH241145   2.873   4.575   3.966  0.3990  0.1223 -0.0808
 6577TIP3    H141146   2.885   4.587   4.061 -0.6162  0.1475  0.0466
 6577TIP3    H241147   2.799   4.515   3.959  0.0721  0.6197 -0.8748
 6578TIP3   OH241148   4.270   4.416  11.700  0.5977  0.3955  0.5578
 6578TIP3    H141149   4.329   4.343  11.684  0.0552  0.1683 -0.4191
 6578TIP3    H241150   4.284   4.438  11.792  0.5130 -1.1591  0.9610
 6579TIP3   OH241151   2.703   5.794  15.153 -0.3030 -0.0101 -0.4260
 6579TIP3    H141152   2.755   5.715  15.140  0.0984 -0.3054  2.6205
 6579TIP3    H241153   2.758   5.865  15.119  0.3445 -0.7534 -0.9464
 6580TIP3   OH241154   4.688   1.615   5.369 -0.1343  0.0864 -0.3668
 6580TIP3    H141155   4.705   1.709   5.373 -2.0342  0.3851  1.3583
 6580TIP3    H241156   4.606   1.603   5.417  0.0829 -2.4543 -0.5580
 6581TIP3   OH241157   4.437   6.194  12.118  0.2627 -0.1671 -0.0584
 6581TIP3    H141158   4.521   6.153  12.101 -0.7967 -3.2709  1.9074
 6581TIP3    H241159   4.422   6.182  12.212 -2.9969 -0.9350 -0.6109
 6582TIP3   OH241160   5.767   0.882  13.759 -0.1900  0.0098  0.0364
 6582TIP3    H141161   5.722   0.949  13.810  0.0331  2.3095 -2.7270
 6582TIP3    H241162   5.860   0.904  13.767 -0.0435 -0.5161 -0.1588
 6583TIP3   OH241163   0.813   0.570  11.447 -0.4119 -0.0999  0.1271
 6583TIP3    H141164   0.859   0.516  11.511 -0.3082 -0.3055 -0.1196
 6583TIP3    H241165   0.721   0.547  11.458 -0.4573  0.3068  0.6155
 6584TIP3   OH241166   6.391   2.767   4.484 -0.5658 -0.6393 -0.0060
 6584TIP3    H141167   6.350   2.739   4.402  0.3867  0.9648 -1.0615
 6584TIP3    H241168   6.358   2.856   4.498 -1.5012 -1.2700  1.8902
 6585TIP3   OH241169   2.216   3.088   0.853 -0.2350  0.6367  0.1492
 6585TIP3    H141170   2.298   3.128   0.881  0.7891 -1.8818  0.8840
 6585TIP3    H241171   2.155   3.107   0.925  1.0112 -1.4942  1.8221
 6586TIP3   OH241172   2.499   5.899  11.157  0.1487  0.0024 -0.2869
 6586TIP3    H141173   2.405   5.914  11.151  0.5721  3.4917  1.1211
 6586TIP3    H241174   2.536   5.942  11.080  0.6992 -0.4821 -0.3000
 6587TIP3   OH241175   3.093   4.603   1.788  0.0824 -0.1865 -0.1097
 6587TIP3    H141176   3.143   4.624   1.708 -0.2528  3.0341  0.4568
 6587TIP3    H241177   3.030   4.536   1.760  3.0952 -2.6202 -1.3944
 6588TIP3   OH241178   4.615   0.103  11.633  0.3938 -0.5661 -0.0443
 6588TIP3    H141179   4.604   0.033  11.569 -2.7557 -0.5816  0.4177
 6588TIP3    H241180   4.594   0.183  11.584  3.5188  0.0637 -0.4482
 6589TIP3   OH241181   3.591   5.823   1.112  0.1290 -0.2693  0.2624
 6589TIP3    H141182   3.647   5.771   1.054  0.5530  0.7399 -0.2358
 6589TIP3    H241183   3.596   5.778   1.197 -0.1829 -1.5288 -0.3699
 6590TIP3   OH241184   4.740   2.043  15.308  0.9427  0.3599  0.2558
 6590TIP3    H141185   4.707   1.993  15.383  1.5214 -1.0985 -0.4449
 6590TIP3    H241186   4.825   2.075  15.337  1.4165 -0.6767  0.0424
 6591TIP3   OH241187   3.045   3.667   1.442 -0.4232 -0.4199  0.2770
 6591TIP3    H141188   3.018   3.726   1.372 -4.9276 -1.0428  1.3694
 6591TIP3    H241189   2.984   3.684   1.513  1.1250 -3.1032  2.3415
 6592TIP3   OH241190   5.247   1.583  11.118 -0.2890  0.4013 -0.2172
 6592TIP3    H141191   5.257   1.552  11.208 -1.1511  0.8654  0.0455
 6592TIP3    H241192   5.333   1.570  11.078 -0.3088 -1.2120  0.2396
 6593TIP3   OH241193   1.503   3.259   4.848 -0.1098 -0.2459  0.2755
 6593TIP3    H141194   1.478   3.202   4.921 -0.8718 -1.7559 -1.1399
 6593TIP3    H241195   1.590   3.291   4.873  0.6710 -2.6274  0.7797
 6594TIP3   OH241196   4.276   3.374   4.985  0.7693  0.2182 -0.2862
 6594TIP3    H141197   4.277   3.327   4.902 -0.6710  0.8456 -0.6752
 6594TIP3    H241198   4.327   3.453   4.969 -2.4983  2.1604 -1.7204
 6595TIP3   OH241199   5.531   5.648  12.360  0.5763 -0.5387  0.3265
 6595TIP3    H141200   5.469   5.650  12.286  0.4188  0.8215  0.4671
 6595TIP3    H241201   5.577   5.732  12.353  1.2199 -0.8221  1.2215
 6596TIP3   OH241202   4.318   2.330   0.194 -0.5785  0.2553 -0.2424
 6596TIP3    H141203   4.373   2.371   0.127 -1.2802  0.5849 -0.6344
 6596TIP3    H241204   4.246   2.291   0.144 -0.8294  0.0488  0.2810
 6597TIP3   OH241205   1.016   3.292   1.044  0.2519 -0.1048 -0.0781
 6597TIP3    H141206   0.985   3.356   1.108 -1.0113  1.2587 -2.0115
 6597TIP3    H241207   0.943   3.231   1.034  0.6670 -0.6520  0.1806
 6598TIP3   OH241208   4.093   4.529  16.426  0.0873 -0.8127  0.0241
 6598TIP3    H141209   4.176   4.574  16.412 -0.2062 -0.2577  0.0294
 6598TIP3    H241210   4.047   4.582  16.491  0.2495 -1.8166  0.9602
 6599TIP3   OH241211   6.356   2.978  16.844  0.1028  0.0182 -0.5885
 6599TIP3    H141212   6.339   3.071  16.853  0.1721  0.0781 -1.0754
 6599TIP3    H241213   6.312   2.938  16.919  1.5346  0.6177  0.5980
 6600TIP3   OH241214   5.481   6.648  16.451  0.3845 -0.1221 -0.6711
 6600TIP3    H141215   5.573   6.669  16.466  0.7418  0.8880 -3.8258
 6600TIP3    H241216   5.447   6.722  16.401 -1.5166 -1.5704 -1.5921
 6601TIP3   OH241217   0.742   6.620   6.212  0.4832 -0.7035 -0.1979
 6601TIP3    H141218   0.712   6.529   6.217  0.6078 -0.6342  2.5840
 6601TIP3    H241219   0.669   6.667   6.173 -1.3689 -1.2926  2.3917
 6602TIP3   OH241220   3.293   2.419  15.155 -0.0292  0.0389  0.1788
 6602TIP3    H141221   3.247   2.357  15.098 -0.3127 -0.8710  1.3611
 6602TIP3    H241222   3.306   2.497  15.101 -1.6380 -0.2410 -0.6521
 6603TIP3   OH241223   5.227   3.368  14.337  0.0894  0.4220  0.9959
 6603TIP3    H141224   5.307   3.409  14.304  0.7092 -0.6424  1.1444
 6603TIP3    H241225   5.253   3.329  14.420 -0.7328  0.5573  1.3225
 6604TIP3   OH241226   1.837   1.131  12.875  0.0193  1.2931  0.6187
 6604TIP3    H141227   1.917   1.177  12.899  0.2329  1.0327  0.4097
 6604TIP3    H241228   1.851   1.105  12.784  0.2263  0.1282  0.9652
 6605TIP3   OH241229   1.785   5.964  16.186  0.7431  0.1994  0.2271
 6605TIP3    H141230   1.845   5.969  16.111  1.7061  1.5576  1.0574
 6605TIP3    H241231   1.794   6.049  16.229 -1.9818  0.5167  0.2415
 6606TIP3   OH241232   2.331   4.830  14.676 -0.0101  0.1376  0.3361
 6606TIP3    H141233   2.317   4.892  14.604 -0.3129  0.6420  0.8236
 6606TIP3    H241234   2.352   4.885  14.751  0.6703 -0.4107  0.5483
 6607TIP3   OH241235   5.430   2.471   0.393 -0.6970 -0.3689  0.6096
 6607TIP3    H141236   5.384   2.517   0.323  1.6156 -0.1774 -0.8514
 6607TIP3    H241237   5.381   2.491   0.472 -1.1280  2.6468 -0.3636
 6608TIP3   OH241238   1.398   5.470  15.120  0.5669 -0.1465  0.0214
 6608TIP3    H141239   1.413   5.400  15.183  0.1200 -0.0658  0.2170
 6608TIP3    H241240   1.483   5.482  15.077  0.6830 -0.6954  0.0961
 6609TIP3   OH241241   5.374   5.967  13.029 -0.1199 -0.5355 -0.5146
 6609TIP3    H141242   5.427   6.010  12.961 -0.2109 -0.4422 -0.5280
 6609TIP3    H241243   5.316   6.037  13.061  0.0154 -0.5449 -0.2485
 6610TIP3   OH241244   4.383   3.663  10.782  0.0122  0.0724  0.1734
 6610TIP3    H141245   4.420   3.659  10.694  1.2267  0.6481  0.6487
 6610TIP3    H241246   4.340   3.578  10.795  0.1679 -0.1579 -0.8133
 6611TIP3   OH241247   6.357   0.729  12.133  0.7024 -0.3792 -0.1174
 6611TIP3    H141248   6.352   0.793  12.204 -2.5941 -1.3158  0.5650
 6611TIP3    H241249   6.282   0.672  12.147  0.9405 -1.6007 -3.4375
 6612TIP3   OH241250   1.501   6.384   2.987  0.0713 -0.0475  0.4707
 6612TIP3    H141251   1.406   6.368   2.992 -0.3932  2.8466  2.1457
 6612TIP3    H241252   1.511   6.446   2.915  0.7813 -0.7729 -0.0611
 6613TIP3   OH241253   5.319   0.284   1.844 -0.1136 -0.1943 -0.1401
 6613TIP3    H141254   5.384   0.335   1.892 -0.0816  0.9431 -1.3496
 6613TIP3    H241255   5.290   0.217   1.906  2.2292 -0.7499  0.4119
 6614TIP3   OH241256   5.948   1.270   1.187 -0.5242  0.2187 -0.0093
 6614TIP3    H141257   5.987   1.229   1.110  0.1026 -1.0288  0.9449
 6614TIP3    H241258   5.974   1.362   1.181  1.7231 -0.3815  0.0480
 6615TIP3   OH241259   5.710   1.416   1.962  0.3692 -0.0426  0.2537
 6615TIP3    H141260   5.754   1.483   2.013  0.4954  0.4887 -0.5442
 6615TIP3    H241261   5.633   1.392   2.013  0.2630  0.7923  0.4792
 6616TIP3   OH241262   2.800   3.754  11.956  0.2583  0.4726  0.1157
 6616TIP3    H141263   2.789   3.659  11.958 -0.5284  0.5795  2.3715
 6616TIP3    H241264   2.724   3.788  12.004  0.7550  2.2110 -0.2915
 6617TIP3   OH241265   1.499   2.012  12.849  0.2981  0.3696 -0.4232
 6617TIP3    H141266   1.551   2.025  12.769 -0.5223 -1.3454 -1.2743
 6617TIP3    H241267   1.413   1.984  12.817 -0.6389  1.5394  1.0161
 6618TIP3   OH241268   5.861   3.689  16.864 -0.6817  0.0302  0.2640
 6618TIP3    H141269   5.864   3.631  16.940 -1.1903 -0.2340  0.0867
 6618TIP3    H241270   5.916   3.647  16.798 -1.2024 -0.3514  0.0693
 6619TIP3   OH241271   3.897   5.551  11.850  0.7346 -0.2337  0.3085
 6619TIP3    H141272   3.971   5.590  11.895  1.3546 -0.1139 -0.8062
 6619TIP3    H241273   3.822   5.567  11.908  1.1635  1.6876  0.3616
 6620TIP3   OH241274   1.277   1.985  16.411 -0.0485  0.0807  0.4931
 6620TIP3    H141275   1.360   1.953  16.447  0.1823 -0.4471 -0.5071
 6620TIP3    H241276   1.303   2.037  16.335 -0.6646 -0.4005 -0.0461
 6621TIP3   OH241277   4.506   4.290  10.759  0.4488 -0.6406  0.9131
 6621TIP3    H141278   4.519   4.374  10.803 -0.5094 -0.7830  1.4867
 6621TIP3    H241279   4.544   4.302  10.672  0.5195  0.3046  1.0735
 6622TIP3   OH241280   5.813   1.224   2.968  0.1460  0.4586  0.2688
 6622TIP3    H141281   5.780   1.280   3.038  0.8487  2.2950 -0.8247
 6622TIP3    H241282   5.861   1.284   2.910  0.3931 -1.1781 -1.2658
 6623TIP3   OH241283   0.368   4.640  16.552 -0.0386 -0.1804 -0.0221
 6623TIP3    H141284   0.443   4.588  16.522  0.5805 -0.1894  1.5032
 6623TIP3    H241285   0.324   4.667  16.472  0.9000 -1.2106 -0.8979
 6624TIP3   OH241286   2.177   5.205  14.718 -0.0509 -0.4608  0.1412
 6624TIP3    H141287   2.238   5.169  14.654  0.6889 -0.8702  1.0601
 6624TIP3    H241288   2.151   5.290  14.682  2.9388  0.8384  0.8500
 6625TIP3   OH241289   1.353   5.779   1.863  0.5962  0.0605  0.0948
 6625TIP3    H141290   1.336   5.853   1.921 -0.2936 -0.3188  0.3167
 6625TIP3    H241291   1.376   5.820   1.779 -1.0834  0.5732 -0.1220
 6626TIP3   OH241292   2.733   5.714  12.661 -0.2757 -0.0158  0.0371
 6626TIP3    H141293   2.736   5.793  12.715 -2.4151 -0.3551  0.6792
 6626TIP3    H241294   2.765   5.644  12.718  1.5334  0.3360 -0.5037
 6627TIP3   OH241295   4.732   6.337  14.531  0.2273 -0.0771  0.3824
 6627TIP3    H141296   4.823   6.360  14.509  0.5518 -0.6611  1.1000
 6627TIP3    H241297   4.740   6.262  14.590 -0.7665 -0.9890 -0.6095
 6628TIP3   OH241298   1.364   6.560   2.535 -0.2676 -0.0797  0.3882
 6628TIP3    H141299   1.296   6.625   2.549 -1.5539 -1.1482 -0.7480
 6628TIP3    H241300   1.326   6.478   2.565  0.8879 -0.5290  0.6681
 6629TIP3   OH241301   4.929   0.791  10.718 -0.0219  0.0079 -0.0102
 6629TIP3    H141302   5.020   0.796  10.748 -0.5702 -1.2013  1.9747
 6629TIP3    H241303   4.902   0.702  10.741 -1.1375 -0.2669 -2.3003
 6630TIP3   OH241304   1.740   6.209  15.467 -0.2346  0.1494 -0.2859
 6630TIP3    H141305   1.817   6.226  15.521  0.1566 -1.2493 -0.3900
 6630TIP3    H241306   1.666   6.235  15.522  0.2776  1.0047  0.0050
 6631TIP3   OH241307   2.781   1.790   4.605 -0.5769 -0.0915 -0.6247
 6631TIP3    H141308   2.727   1.867   4.621 -0.2980 -0.3127  1.6117
 6631TIP3    H241309   2.719   1.717   4.603 -0.5041 -0.2082  0.7991
 6632TIP3   OH241310   5.811   5.787   4.311 -0.2811 -1.0804 -0.2466
 6632TIP3    H141311   5.830   5.694   4.302  0.4878 -0.8646 -0.9738
 6632TIP3    H241312   5.774   5.796   4.399 -0.8635 -2.1457 -0.3676
 6633TIP3   OH241313   3.864   0.631  14.334 -0.1084 -0.0280 -0.5421
 6633TIP3    H141314   3.895   0.604  14.421  0.2826  0.1172 -0.6347
 6633TIP3    H241315   3.919   0.583  14.273 -1.9558 -1.9506 -0.7306
 6634TIP3   OH241316   6.718   2.067  13.908 -0.5235  0.1254  0.2070
 6634TIP3    H141317   6.803   2.084  13.949  1.0652 -2.9655 -1.6261
 6634TIP3    H241318   6.660   2.045  13.981  0.8770 -0.0998  1.2723
 6635TIP3   OH241319   3.787   4.663   5.977 -0.2092 -0.4385  0.1061
 6635TIP3    H141320   3.740   4.647   5.895 -0.4924 -1.6253  0.4998
 6635TIP3    H241321   3.804   4.757   5.977 -2.7380  0.0494  0.0200
 6636TIP3   OH241322   3.191   3.616  16.502 -0.6074 -0.0109  0.0625
 6636TIP3    H141323   3.139   3.554  16.554 -0.5070 -0.8076 -0.7713
 6636TIP3    H241324   3.258   3.647  16.562 -1.8226  0.7640  1.0603
 6637TIP3   OH241325   6.285   4.103  16.227 -1.0647 -0.1145  0.2453
 6637TIP3    H141326   6.232   4.073  16.153 -0.5773  0.3021 -0.2892
 6637TIP3    H241327   6.338   4.174  16.190  0.8939 -1.4687  0.3836
 6638TIP3   OH241328   3.436   4.991  10.602  0.7744 -0.6474 -0.2094
 6638TIP3    H141329   3.445   5.082  10.575  1.1870 -0.7514 -0.4151
 6638TIP3    H241330   3.507   4.977  10.665  0.4984 -0.7287  0.0899
 6639TIP3   OH241331   1.472   2.701   3.072  0.1799 -0.1107 -0.2415
 6639TIP3    H141332   1.470   2.634   3.140  3.2893 -1.2514 -1.2112
 6639TIP3    H241333   1.433   2.659   2.995 -1.5781  0.5522  0.2681
 6640TIP3   OH241334   2.726   1.668  16.841 -0.5359 -0.7130  0.0359
 6640TIP3    H141335   2.817   1.644  16.822 -0.2790  0.0590  0.2533
 6640TIP3    H241336   2.703   1.617  16.918  0.3332  0.4693  1.1007
 6641TIP3   OH241337   2.146   2.225  16.816  0.0043 -0.8136  0.3628
 6641TIP3    H141338   2.211   2.167  16.856  0.9810 -0.0162 -0.0436
 6641TIP3    H241339   2.194   2.272  16.748 -1.2612 -0.9946 -0.6920
 6642TIP3   OH241340   2.538   0.587  15.399  0.1267 -0.2703 -0.1345
 6642TIP3    H141341   2.599   0.599  15.325 -0.4130  1.0791 -0.3739
 6642TIP3    H241342   2.589   0.538  15.464  0.6531 -1.3514 -1.3367
 6643TIP3   OH241343   6.650   0.152  13.495  0.4399 -0.2220 -0.6432
 6643TIP3    H141344   6.584   0.129  13.430 -0.8481  1.9656 -0.1799
 6643TIP3    H241345   6.602   0.205  13.559  2.2132 -0.3249  0.7945
 6644TIP3   OH241346   2.479   4.779  15.824 -0.0624 -0.1989  0.7575
 6644TIP3    H141347   2.492   4.735  15.908 -1.4565 -0.3969  0.8793
 6644TIP3    H241348   2.522   4.864  15.835  1.6379 -1.0601  0.9155
 6645TIP3   OH241349   5.285   4.666   2.643  0.6116  0.3177  0.1401
 6645TIP3    H141350   5.284   4.717   2.562  0.0529 -2.2647 -1.4995
 6645TIP3    H241351   5.377   4.649   2.660  0.7198  0.7495  0.0067
 6646TIP3   OH241352   1.774   5.708  15.960 -0.0601 -0.8380 -1.1574
 6646TIP3    H141353   1.759   5.713  15.865 -2.6850  0.0755 -0.7247
 6646TIP3    H241354   1.797   5.797  15.986  0.2419 -1.0021 -0.8503
 6647TIP3   OH241355   6.112   1.206  16.148 -0.0964  0.1662 -0.1465
 6647TIP3    H141356   6.145   1.162  16.070  0.1256  1.8718 -1.0288
 6647TIP3    H241357   6.051   1.272  16.115  1.8612  2.5621  0.9502
 6648TIP3   OH241358   2.064   1.103   4.714 -0.8437  0.0579 -1.1263
 6648TIP3    H141359   2.053   1.192   4.748 -0.7868 -0.5858  0.5975
 6648TIP3    H241360   1.994   1.093   4.650 -0.9997  1.2598 -1.1531
 6649TIP3   OH241361   6.781   4.049  16.870 -0.5365  0.2449 -0.1303
 6649TIP3    H141362   6.872   4.073  16.852 -0.5720  1.6816  1.5035
 6649TIP3    H241363   6.787   3.971  16.924 -0.3409 -1.0317 -1.9459
 6650TIP3   OH241364   2.219   2.954  14.253  0.1622 -0.1888  0.3250
 6650TIP3    H141365   2.237   2.903  14.332 -2.2429  0.4998  1.3509
 6650TIP3    H241366   2.185   2.890  14.191  0.4057 -0.4197  0.4256
 6651TIP3   OH241367   0.677   6.108  17.182 -0.1927 -0.0979  0.5149
 6651TIP3    H141368   0.649   6.199  17.194  0.1093  0.0739 -0.0817
 6651TIP3    H241369   0.626   6.059  17.247 -0.2285  0.5205  0.9627
 6652TIP3   OH241370   6.105   3.752  17.201  0.0021 -0.3628  0.5225
 6652TIP3    H141371   6.051   3.798  17.266  0.3528 -0.0779  0.6220
 6652TIP3    H241372   6.115   3.815  17.130 -2.5985 -1.6275 -1.0273
 6653TIP3   OH241373   3.398   1.029  15.142  0.2441  0.4893 -0.2516
 6653TIP3    H141374   3.473   1.069  15.099  1.0673 -0.3600  0.3842
 6653TIP3    H241375   3.423   1.022  15.234 -0.0746 -0.9807 -0.2556
 6654TIP3   OH241376   3.021   1.891  13.966  0.7454 -0.4304  0.1504
 6654TIP3    H141377   3.099   1.856  14.010 -0.0464  0.3943  2.2574
 6654TIP3    H241378   2.954   1.894  14.035  0.0111  2.6616 -0.6453
 6655TIP3   OH241379   0.016   5.908   3.451 -0.9109  0.3099  0.2578
 6655TIP3    H141380  -0.068   5.897   3.496 -0.9450  0.9691  0.3561
 6655TIP3    H241381   0.075   5.944   3.517 -0.3008 -0.9623  0.4325
 6656TIP3   OH241382   2.037   1.529  14.172  0.4317  0.4661  0.0900
 6656TIP3    H141383   2.013   1.497  14.259 -1.4275  0.5726 -0.3811
 6656TIP3    H241384   1.975   1.599  14.153  0.9214  0.5587 -1.2529
 6657TIP3   OH241385   5.640   2.922   2.881 -0.0232  0.6786  0.2316
 6657TIP3    H141386   5.727   2.905   2.845 -0.0537 -0.4211  0.6490
 6657TIP3    H241387   5.632   2.861   2.954 -1.9528 -0.7317 -1.0831
 6658TIP3   OH241388   2.274   2.349   1.164  0.0761  0.0754 -0.6662
 6658TIP3    H141389   2.218   2.301   1.103  0.4205 -0.3415 -0.6579
 6658TIP3    H241390   2.353   2.369   1.113  0.2777 -0.0948 -0.4207
 6659TIP3   OH241391   2.994   0.645   0.141  0.1231 -0.0674 -0.1503
 6659TIP3    H141392   2.978   0.739   0.142 -1.1435 -0.2776  0.0236
 6659TIP3    H241393   3.081   0.635   0.179 -0.6714  0.8819  2.0235
 6660TIP3   OH241394   4.108   2.194   0.047 -0.2537 -0.1373  0.0786
 6660TIP3    H141395   4.079   2.106   0.072  1.4615 -1.1772 -1.4784
 6660TIP3    H241396   4.161   2.180  -0.031  0.2694  2.2773 -0.0276
 6661TIP3   OH241397   6.356   4.206  16.926  0.0432 -0.0932 -0.3695
 6661TIP3    H141398   6.410   4.262  16.870 -2.6289  0.9289 -2.0056
 6661TIP3    H241399   6.418   4.146  16.966  2.4498  1.3064 -1.8637
 6662TIP3   OH241400   0.459   4.330  16.511 -0.3156 -0.2648 -0.1466
 6662TIP3    H141401   0.519   4.263  16.477 -3.3354 -2.9895 -0.3332
 6662TIP3    H241402   0.375   4.285  16.517 -1.7672  2.6762  2.6811
 6663TIP3   OH241403   4.262   5.339  15.419 -0.3212 -0.0195  0.1938
 6663TIP3    H141404   4.299   5.255  15.391  2.1270  1.0475  0.0675
 6663TIP3    H241405   4.225   5.377  15.339 -0.4895 -0.5132  0.0359
 6664TIP3   OH241406   0.314   3.475  13.374 -0.4869 -0.0653 -0.2290
 6664TIP3    H141407   0.275   3.560  13.396  1.3136  0.5560  0.6739
 6664TIP3    H241408   0.399   3.497  13.335  0.3629 -1.4850  0.7851
 6665TIP3   OH241409   5.413   3.846  16.802 -0.0192 -0.1965 -0.6118
 6665TIP3    H141410   5.357   3.854  16.725 -0.0366 -0.5346 -0.6352
 6665TIP3    H241411   5.448   3.758  16.797 -0.5549 -0.4547  0.1319
 6666TIP3   OH241412   6.481   6.261   0.631  0.4957  0.2882  0.0156
 6666TIP3    H141413   6.572   6.237   0.613  0.5841 -1.2381  2.3294
 6666TIP3    H241414   6.441   6.180   0.662 -1.1955  1.3919  0.7599
 6667TIP3   OH241415   4.335   5.143  16.372 -0.1369  0.1677  0.2893
 6667TIP3    H141416   4.291   5.074  16.323  0.1491  0.0365  0.2171
 6667TIP3    H241417   4.410   5.166  16.317  0.8667 -0.8172  1.2371
 6668TIP3   OH241418   6.575   0.483  11.288  0.2364  0.2973  0.2339
 6668TIP3    H141419   6.513   0.435  11.232  1.0342 -2.9697  2.0190
 6668TIP3    H241420   6.588   0.426  11.364 -0.0904  4.1964  3.3488
 6669TIP3   OH241421   1.409   0.351   2.677  0.0777 -0.1803  0.6824
 6669TIP3    H141422   1.426   0.259   2.661 -1.1585 -0.1416 -1.0131
 6669TIP3    H241423   1.490   0.395   2.651 -0.3259 -0.5508 -1.2973
 6670TIP3   OH241424   0.778   2.345  17.013 -0.1745 -0.7568  0.3798
 6670TIP3    H141425   0.799   2.439  17.007 -0.4475 -0.8135 -1.8609
 6670TIP3    H241426   0.806   2.320  17.101  2.6203  0.7871  0.0097
 6671TIP3   OH241427   0.138   4.387  13.629 -0.4163 -0.2585  0.1693
 6671TIP3    H141428   0.201   4.457  13.611 -0.6028 -0.3885 -0.9728
 6671TIP3    H241429   0.102   4.410  13.715  1.8770 -0.7010  1.2968
 6672TIP3   OH241430   4.265   6.668  13.853  0.1563 -0.2408 -0.5233
 6672TIP3    H141431   4.197   6.735  13.857  0.8194  0.3803  0.7515
 6672TIP3    H241432   4.295   6.659  13.944 -0.6286 -3.0058 -0.5134
 6673TIP3   OH241433   4.207   2.355  12.123  0.2095 -0.6419  1.0299
 6673TIP3    H141434   4.121   2.314  12.129  0.2338 -0.8497 -0.0404
 6673TIP3    H241435   4.202   2.410  12.045  1.3983 -1.4885  0.3574
 6674TIP3   OH241436   2.875   0.365  16.740 -0.3225 -0.4570 -1.1058
 6674TIP3    H141437   2.960   0.407  16.756 -0.6073  0.1560 -1.1829
 6674TIP3    H241438   2.828   0.372  16.823 -0.3094 -0.7598 -1.0748
 6675TIP3   OH241439   5.591   4.316   2.011 -0.3628  0.3168  0.4007
 6675TIP3    H141440   5.672   4.363   1.989 -0.1089  0.0462  0.7487
 6675TIP3    H241441   5.617   4.256   2.082 -0.9231  0.3895  0.6639
 6676TIP3   OH241442   0.808   4.269  11.034 -0.2349 -0.8199  0.1918
 6676TIP3    H141443   0.765   4.342  10.990  1.0083  0.6736  1.3948
 6676TIP3    H241444   0.820   4.203  10.965  0.1699  0.8035 -1.3287
 6677TIP3   OH241445   3.483   1.633  13.191  0.0062 -0.5042  0.1850
 6677TIP3    H141446   3.484   1.714  13.141 -1.8029 -0.2218  0.5554
 6677TIP3    H241447   3.546   1.576  13.147  0.7613  0.8337 -0.5036
 6678TIP3   OH241448   6.514   3.790   3.527  0.2139  0.3307 -0.7771
 6678TIP3    H141449   6.469   3.780   3.443 -1.8552  1.7098  0.1117
 6678TIP3    H241450   6.597   3.833   3.504  0.4272 -0.8005 -2.2662
 6679TIP3   OH241451   4.167   2.791  13.402  0.0777 -0.2238  0.5167
 6679TIP3    H141452   4.186   2.786  13.309  2.3231  2.3097  0.7791
 6679TIP3    H241453   4.109   2.867  13.411 -0.5421 -0.7586  1.1243
 6680TIP3   OH241454   4.283   5.578   3.180 -0.3367  0.1780 -0.6744
 6680TIP3    H141455   4.242   5.635   3.115 -2.4956 -0.8266 -0.2140
 6680TIP3    H241456   4.306   5.499   3.131 -2.5417 -0.8379 -0.1245
 6681TIP3   OH241457   4.075   3.769   6.468 -0.0042  0.0444  0.2215
 6681TIP3    H141458   4.122   3.850   6.451  0.5892 -0.2237  0.5694
 6681TIP3    H241459   4.033   3.747   6.385  1.0852 -0.1078 -0.2996
 6682TIP3   OH241460   3.701   0.470   6.376 -0.2804 -0.3388  0.0635
 6682TIP3    H141461   3.784   0.437   6.409  0.7543  2.0088 -0.1006
 6682TIP3    H241462   3.639   0.399   6.392  1.7485 -2.1310  0.1505
 6683TIP3   OH241463   2.247   4.742  12.171  0.0852  0.0202 -0.0028
 6683TIP3    H141464   2.173   4.797  12.194 -0.2065 -1.9524  4.3755
 6683TIP3    H241465   2.313   4.761  12.238  2.3686 -0.4835 -2.0392
 6684TIP3   OH241466   0.112   6.415   6.010  0.3297  0.1508  0.4164
 6684TIP3    H141467   0.201   6.433   5.978 -0.1191 -0.0379 -1.0019
 6684TIP3    H241468   0.125   6.362   6.088  1.5026  1.3274  1.0410
 6685TIP3   OH241469   1.333   4.001  14.556 -0.4256  0.2679  0.2604
 6685TIP3    H141470   1.397   4.043  14.613 -0.5582  0.0714  0.5602
 6685TIP3    H241471   1.385   3.963  14.485 -0.5087  2.8102 -1.2192
 6686TIP3   OH241472   5.996   3.410   2.549  0.2129  0.2727  0.2402
 6686TIP3    H141473   6.037   3.366   2.624  1.7805  2.2108  0.5593
 6686TIP3    H241474   5.999   3.503   2.572  0.7375  0.8965 -2.2611
 6687TIP3   OH241475   4.926   5.046  13.638  0.4897  0.4687  0.6997
 6687TIP3    H141476   4.975   5.118  13.678  1.1065 -0.6448  1.9877
 6687TIP3    H241477   4.987   5.007  13.576 -0.2798  1.8454 -0.9525
 6688TIP3   OH241478   1.879   1.783  10.586 -0.5684  0.2651  0.8035
 6688TIP3    H141479   1.939   1.733  10.642  0.6152 -0.0872 -0.7400
 6688TIP3    H241480   1.857   1.722  10.516  0.9790  1.9072 -1.1674
 6689TIP3   OH241481   2.408   4.362  11.349 -0.3032  0.2853 -0.1938
 6689TIP3    H141482   2.375   4.449  11.368 -1.6748 -0.2849  0.0641
 6689TIP3    H241483   2.488   4.355  11.402 -1.8257  0.2687  2.1277
 6690TIP3   OH241484   6.191   4.772   4.083 -0.0014  0.5751  0.1953
 6690TIP3    H141485   6.139   4.752   4.005 -0.5452  0.3643  0.6145
 6690TIP3    H241486   6.280   4.786   4.049 -0.2163  0.3896 -0.4519
 6691TIP3   OH241487   2.736   2.255  13.666 -0.3131  0.2584  0.4980
 6691TIP3    H141488   2.808   2.196  13.686  0.4201  0.9519 -0.0422
 6691TIP3    H241489   2.719   2.242  13.572 -2.5647 -1.7110  1.1353
 6692TIP3   OH241490   3.693   5.114   3.566 -0.2560 -0.1434 -0.1284
 6692TIP3    H141491   3.664   5.039   3.515  1.0586 -0.0605 -1.0115
 6692TIP3    H241492   3.702   5.185   3.502  0.2768  0.2739  0.3991
 6693TIP3   OH241493   3.659   0.997   5.129 -0.4259 -0.4138  0.0578
 6693TIP3    H141494   3.682   0.905   5.143 -1.5915 -1.0605 -2.1004
 6693TIP3    H241495   3.737   1.045   5.158  1.2227 -2.2295 -1.1935
 6694TIP3   OH241496   1.729   0.331   1.779 -0.1105  0.6431  0.1152
 6694TIP3    H141497   1.756   0.253   1.827 -0.0451 -0.4632 -1.6676
 6694TIP3    H241498   1.809   0.382   1.771 -0.2047  1.0286  1.5037
 6695TIP3   OH241499   5.232   5.004   0.266 -0.1359  0.1733 -0.1054
 6695TIP3    H141500   5.262   5.018   0.356 -0.1715 -0.5185  0.0205
 6695TIP3    H241501   5.312   4.980   0.218  0.3620  3.0912 -0.8511
 6696TIP3   OH241502   0.672   0.178  15.522  0.4374 -0.2441 -0.0411
 6696TIP3    H141503   0.738   0.171  15.454 -0.7105 -1.9850 -1.0257
 6696TIP3    H241504   0.722   0.171  15.604  1.5918 -0.3752 -0.7412
 6697TIP3   OH241505   1.730   0.137  16.788  0.3942  0.0438 -0.3869
 6697TIP3    H141506   1.762   0.048  16.779 -0.8166 -0.5266  0.8097
 6697TIP3    H241507   1.802   0.184  16.831 -0.3988 -1.2825  2.4831
 6698TIP3   OH241508   2.578   6.081  16.565  0.4132 -0.2115  0.0167
 6698TIP3    H141509   2.497   6.061  16.518 -0.2592 -0.3390  1.1987
 6698TIP3    H241510   2.563   6.048  16.653  0.7058  2.1027  0.9908
 6699TIP3   OH241511   2.247   5.782  17.001 -0.8584  0.4021 -0.4021
 6699TIP3    H141512   2.333   5.818  17.024 -1.2880  0.6253  0.9306
 6699TIP3    H241513   2.186   5.852  17.022 -1.3861  0.2085 -1.2582
 6700TIP3   OH241514   3.616   3.133  14.098  0.2668 -0.3268 -0.3720
 6700TIP3    H141515   3.697   3.185  14.102  0.6943 -0.8519 -1.8378
 6700TIP3    H241516   3.559   3.173  14.163  0.6562  1.8966 -1.3239
 6701TIP3   OH241517   3.705   0.107   5.862  0.0019 -0.5780 -0.1306
 6701TIP3    H141518   3.646   0.094   5.936 -0.3803  2.1998  0.1005
 6701TIP3    H241519   3.656   0.075   5.786 -0.5260 -1.2627  0.4902
 6702TIP3   OH241520   1.816   4.364   1.684  0.8297 -0.7332  0.4996
 6702TIP3    H141521   1.885   4.384   1.748 -0.5915  0.6658  1.6324
 6702TIP3    H241522   1.785   4.449   1.654  0.5018 -1.3706 -1.0051
 6703TIP3   OH241523   3.131   1.608   5.528 -0.2686 -0.4013 -0.2162
 6703TIP3    H141524   3.188   1.537   5.497 -0.0754 -1.2290  1.9651
 6703TIP3    H241525   3.053   1.564   5.562  0.3516  0.2840  2.2414
 6704TIP3   OH241526   0.382   5.917   2.660  0.7935 -0.1049  0.3166
 6704TIP3    H141527   0.366   5.844   2.720  1.3993 -0.3520  0.1797
 6704TIP3    H241528   0.368   5.995   2.713  0.8662 -0.3204  0.6555
 6705TIP3   OH241529   6.330   3.682  12.529  0.6086  0.0782 -0.4074
 6705TIP3    H141530   6.307   3.740  12.601 -2.0503 -1.4111  0.0285
 6705TIP3    H241531   6.380   3.611  12.570 -1.8657 -1.3498  0.2051
 6706TIP3   OH241532   0.046   4.523   1.221  0.6916  0.3300  0.6593
 6706TIP3    H141533  -0.042   4.543   1.253  0.1036  1.9893 -1.8456
 6706TIP3    H241534   0.097   4.602   1.240  1.2985 -0.1050  0.8712
 6707TIP3   OH241535   0.568   5.149  15.819  0.4648  0.0869 -0.0190
 6707TIP3    H141536   0.483   5.193  15.825  0.4166 -0.2098  1.7087
 6707TIP3    H241537   0.549   5.063  15.782  0.1411  0.3645 -0.4979
 6708TIP3   OH241538   3.049   2.989   6.298  0.6163 -0.0509 -0.6896
 6708TIP3    H141539   3.001   3.066   6.268  0.4148 -0.3586 -1.1540
 6708TIP3    H241540   3.139   3.004   6.269  0.8912  0.7076  0.5147
 6709TIP3   OH241541   6.560   6.489  16.401  0.0494  0.2205 -0.5256
 6709TIP3    H141542   6.513   6.572  16.418  0.1012  0.2146 -0.3571
 6709TIP3    H241543   6.650   6.507  16.428  0.1561  0.2479 -0.9024
 6710TIP3   OH241544   3.128   6.093   0.962  0.4682  0.0166  0.2434
 6710TIP3    H141545   3.177   6.015   0.936 -0.7776 -0.8706  0.5092
 6710TIP3    H241546   3.180   6.132   1.032  0.1888 -1.6071  1.3794
 6711TIP3   OH241547   5.540   2.842   0.735  0.5733 -0.2237  0.4276
 6711TIP3    H141548   5.517   2.933   0.749  1.0619 -0.2329  1.3252
 6711TIP3    H241549   5.560   2.836   0.641 -0.5104  0.3427  0.1559
 6712TIP3   OH241550   5.987   0.587  12.819  0.1611  0.1491  0.1006
 6712TIP3    H141551   6.009   0.540  12.739 -0.7190  0.3168 -0.2357
 6712TIP3    H241552   6.017   0.677  12.803  3.0218 -0.5298  1.2233
 6713TIP3   OH241553   6.337   4.853  16.813 -0.6437  0.4513 -0.4560
 6713TIP3    H141554   6.393   4.801  16.871 -0.0626  1.2232 -0.3260
 6713TIP3    H241555   6.251   4.811  16.819  0.3652 -1.9572 -2.1890
 6714TIP3   OH241556   2.668   5.561  13.309 -0.5889 -0.5523 -0.3595
 6714TIP3    H141557   2.573   5.567  13.297 -0.3381  2.2095 -1.2763
 6714TIP3    H241558   2.686   5.610  13.389  0.3207  1.1648 -1.5853
 6715TIP3   OH241559   4.618   6.367  14.830 -0.5524  0.3431 -0.0983
 6715TIP3    H141560   4.632   6.425  14.755 -1.9230  1.0785  0.1894
 6715TIP3    H241561   4.628   6.424  14.906 -0.8119 -0.0353  0.2214
 6716TIP3   OH241562   0.012   3.690  13.835 -0.5606  0.0016 -0.0238
 6716TIP3    H141563  -0.074   3.731  13.844 -0.5733  0.1422 -0.7447
 6716TIP3    H241564   0.073   3.755  13.869 -0.6795  0.1791 -0.1455
 6717TIP3   OH241565   2.687   4.350   4.825 -0.2271 -0.8613 -0.3149
 6717TIP3    H141566   2.720   4.265   4.795  0.6963 -0.5700 -0.1528
 6717TIP3    H241567   2.722   4.359   4.913  1.7478  0.7728 -1.2318
 6718TIP3   OH241568   4.559   2.216  11.420 -0.5533  0.3850 -0.1132
 6718TIP3    H141569   4.623   2.160  11.464 -0.3449 -0.3970 -1.3735
 6718TIP3    H241570   4.610   2.261  11.352 -1.4709 -0.8474 -1.6535
 6719TIP3   OH241571   5.285   5.559   1.166 -0.0780  0.3765  0.1266
 6719TIP3    H141572   5.212   5.497   1.163 -0.5552  0.9202  0.2841
 6719TIP3    H241573   5.269   5.610   1.246  0.4049  0.5835  0.0916
 6720TIP3   OH241574   3.301   0.320  15.469 -1.0566  0.7341 -0.1924
 6720TIP3    H141575   3.330   0.264  15.542  0.7052 -0.1264 -1.5078
 6720TIP3    H241576   3.306   0.263  15.392  0.5914  2.6071 -1.5266
 6721TIP3   OH241577   4.826   6.311  12.329  0.2276 -0.3927 -0.4206
 6721TIP3    H141578   4.884   6.270  12.394 -1.6798  0.1628  1.6755
 6721TIP3    H241579   4.883   6.373  12.282  1.2910  0.3715  1.8046
 6722TIP3   OH241580   4.031   2.436   3.260  0.1639 -0.2602 -0.4520
 6722TIP3    H141581   4.036   2.489   3.339 -1.9033  0.9303 -1.0801
 6722TIP3    H241582   4.018   2.347   3.292 -1.9644  0.3805  0.5477
 6723TIP3   OH241583   0.865   3.359  13.323 -0.1551  0.0707  0.4898
 6723TIP3    H141584   0.955   3.391  13.308 -0.4609  0.3970 -0.6673
 6723TIP3    H241585   0.852   3.291  13.258  0.0623 -1.6506  2.1884
 6724TIP3   OH241586   5.289   3.426   5.021 -0.2099 -0.0245 -0.1091
 6724TIP3    H141587   5.270   3.379   5.102  0.7674 -0.2350  0.0054
 6724TIP3    H241588   5.367   3.383   4.986 -0.1074  0.6337 -0.7108
 6725TIP3   OH241589   4.697   0.283   5.142 -0.2489  0.1486 -0.4783
 6725TIP3    H141590   4.661   0.279   5.230  0.6082  1.5075 -0.0600
 6725TIP3    H241591   4.645   0.350   5.098  0.1693  0.3830 -0.6168
 6726TIP3   OH241592   1.836   1.815  14.592 -0.1241 -0.3216  0.1508
 6726TIP3    H141593   1.925   1.812  14.558  0.1465 -1.5328  0.9538
 6726TIP3    H241594   1.810   1.723  14.600 -1.1667  0.0128  0.6420
 6727TIP3   OH241595   1.904   4.191  12.264 -0.4616  0.1283  0.2834
 6727TIP3    H141596   1.950   4.262  12.309 -2.0434  0.4615  1.4414
 6727TIP3    H241597   1.876   4.229  12.181  2.2204 -0.3941 -0.9182
 6728TIP3   OH241598   1.786   5.505  16.512  0.0259 -0.0940 -0.0888
 6728TIP3    H141599   1.729   5.459  16.451 -1.7819  1.1765  0.5878
 6728TIP3    H241600   1.808   5.587  16.468  0.5400 -0.1618  0.0383
 6729TIP3   OH241601   1.209   4.615   0.725  0.3169  0.4196  0.0324
 6729TIP3    H141602   1.120   4.622   0.689  0.1330 -0.3514  0.3382
 6729TIP3    H241603   1.232   4.705   0.748 -1.0574  0.3908  1.5733
 6730TIP3   OH241604   0.638   2.177   4.686  0.6686 -0.3469 -0.3402
 6730TIP3    H141605   0.652   2.100   4.632  0.0886 -0.2768 -0.5914
 6730TIP3    H241606   0.549   2.205   4.667  0.6432 -0.0024  0.2464
 6731TIP3   OH241607   3.206   2.461   3.448  0.0088  0.1145  0.5484
 6731TIP3    H141608   3.138   2.424   3.393  2.0131 -0.1279 -1.8558
 6731TIP3    H241609   3.162   2.529   3.498 -2.0362 -0.2020 -0.7589
 6732TIP3   OH241610   4.810   5.343   2.578 -0.1354 -0.4217  0.2879
 6732TIP3    H141611   4.777   5.309   2.661 -0.3143  0.5368  0.6179
 6732TIP3    H241612   4.856   5.270   2.538 -1.8920 -1.5258  0.2330
 6733TIP3   OH241613   6.731   1.391   3.675  0.1561 -0.5142  0.3017
 6733TIP3    H141614   6.813   1.356   3.710  0.5814  1.1502  1.0290
 6733TIP3    H241615   6.751   1.482   3.653 -1.6645  0.1036  1.0742
 6734TIP3   OH241616   5.621   1.367   3.106  0.0633 -0.5727 -0.2486
 6734TIP3    H141617   5.585   1.400   3.023  0.1590 -0.1911 -0.1372
 6734TIP3    H241618   5.546   1.325   3.149 -0.8022  2.1406  0.9903
 6735TIP3   OH241619   6.201   0.595   6.474 -0.2645  0.2393 -0.5655
 6735TIP3    H141620   6.286   0.624   6.509  0.2794  1.7200 -3.0571
 6735TIP3    H241621   6.217   0.505   6.446  0.4765  0.4741 -0.9270
 6736TIP3   OH241622   0.473   6.623   4.496 -0.3578  0.1058  0.2139
 6736TIP3    H141623   0.404   6.558   4.486 -0.2967  0.1458 -0.4675
 6736TIP3    H241624   0.493   6.622   4.590 -1.1153 -0.0710  0.3762
 6737TIP3   OH241625   1.706   2.513  13.053 -0.3138  0.1383 -0.0845
 6737TIP3    H141626   1.687   2.535  13.144  0.3732  1.9657 -0.3599
 6737TIP3    H241627   1.621   2.519  13.009 -0.2663  1.7401 -0.0212
 6738TIP3   OH241628   2.511   5.359   1.266 -0.0547 -0.0199  0.2861
 6738TIP3    H141629   2.478   5.367   1.176 -1.4073  0.5097  0.8214
 6738TIP3    H241630   2.479   5.438   1.311  0.8016 -0.1686  1.1777
 6739TIP3   OH241631   2.412   2.438  10.861 -0.2714  0.0470 -0.6817
 6739TIP3    H141632   2.415   2.380  10.784  0.6211  0.2004 -0.7694
 6739TIP3    H241633   2.499   2.430  10.900 -0.7081  0.0130  0.2853
 6740TIP3   OH241634   4.150   5.190  11.444  0.2355  0.4100 -0.0945
 6740TIP3    H141635   4.063   5.158  11.420  0.2346  0.7631 -0.5552
 6740TIP3    H241636   4.138   5.225  11.532  0.9881 -3.9855  1.8974
 6741TIP3   OH241637   1.349   6.560  11.282 -0.4064 -0.5854  0.4314
 6741TIP3    H141638   1.257   6.550  11.256  0.3812 -1.9335 -1.9940
 6741TIP3    H241639   1.392   6.595  11.204  0.9507  1.1105  1.9146
 6742TIP3   OH241640   6.169   2.847   4.627 -0.0279  0.2912  0.1020
 6742TIP3    H141641   6.194   2.755   4.618 -0.8605  0.1980 -1.3400
 6742TIP3    H241642   6.251   2.895   4.619  0.3154 -0.2787  0.1565
 6743TIP3   OH241643   6.552   6.436  14.210 -0.3672 -0.5013  0.2955
 6743TIP3    H141644   6.576   6.476  14.293 -2.7781  1.6781  0.0239
 6743TIP3    H241645   6.621   6.373  14.192  2.4707  2.0819  1.7945
 6744TIP3   OH241646   6.339   2.736   1.461 -0.4009 -0.1633 -0.3624
 6744TIP3    H141647   6.368   2.816   1.417  0.2268 -0.1666  0.0384
 6744TIP3    H241648   6.414   2.678   1.457  0.0778  0.2496  1.7073
 6745TIP3   OH241649   3.546   3.078   3.057  0.1737 -0.1657  0.4706
 6745TIP3    H141650   3.620   3.066   2.998  0.9611  0.4436  1.3378
 6745TIP3    H241651   3.470   3.087   2.998  1.1274  1.7877 -0.4920
 6746TIP3   OH241652   6.578   5.546   4.627  0.1877  0.0928  0.2131
 6746TIP3    H141653   6.551   5.579   4.713 -2.0837  2.4424 -1.3310
 6746TIP3    H241654   6.498   5.546   4.574  1.8477  0.4442 -2.4240
 6747TIP3   OH241655   5.014   0.633  12.471 -0.0739  0.2830 -0.2449
 6747TIP3    H141656   5.063   0.715  12.466 -0.2659  0.3155 -1.9834
 6747TIP3    H241657   4.956   0.635  12.394 -0.8267 -1.0051  0.2715
 6748TIP3   OH241658   0.361   1.308  10.286 -0.3370  0.0376 -0.1318
 6748TIP3    H141659   0.319   1.342  10.207 -1.4001 -1.3492 -0.1920
 6748TIP3    H241660   0.339   1.372  10.354 -4.2706 -1.5676  0.2691
 6749TIP3   OH241661   5.258   2.921  14.182 -0.0202 -0.1273  0.0759
 6749TIP3    H141662   5.283   2.975  14.107  1.5555  0.6758  1.1472
 6749TIP3    H241663   5.219   2.983  14.244  2.5795 -0.0116  1.6682
 6750TIP3   OH241664   3.948   4.098  10.457 -0.1627 -0.3397  0.4095
 6750TIP3    H141665   4.025   4.117  10.511  0.3635  0.1186 -0.4910
 6750TIP3    H241666   3.945   4.169  10.394 -0.8091 -0.8361 -0.1251
 6751TIP3   OH241667   1.845   5.928   4.637  0.0878 -0.8527  0.1193
 6751TIP3    H141668   1.856   5.891   4.725  0.3696 -0.2710  0.3383
 6751TIP3    H241669   1.759   5.899   4.609 -0.7588  0.4216  1.3193
 6752TIP3   OH241670   6.718   1.179   0.013  0.1631  0.5508 -0.5171
 6752TIP3    H141671   6.810   1.174   0.038 -0.6359 -0.5657  2.4023
 6752TIP3    H241672   6.703   1.104  -0.044  0.6676 -0.1986  0.3428
 6753TIP3   OH241673   1.542   3.655  12.582  0.2080 -0.1345  0.4074
 6753TIP3    H141674   1.480   3.647  12.509  1.3060 -0.0215 -0.5509
 6753TIP3    H241675   1.553   3.565  12.614  1.0122 -0.4404 -0.6715
 6754TIP3   OH241676   3.964   4.652   2.133  0.0330  0.8382  0.3945
 6754TIP3    H141677   3.897   4.657   2.201 -0.7979  2.3933 -0.5144
 6754TIP3    H241678   3.961   4.562   2.101 -1.4811  0.8495  0.4992
 6755TIP3   OH241679   3.789   3.454  12.862  0.2271 -0.4446 -0.8711
 6755TIP3    H141680   3.754   3.370  12.892  0.5922 -0.0875  0.5947
 6755TIP3    H241681   3.814   3.438  12.771 -1.7450 -1.2972 -1.2968
 6756TIP3   OH241682   3.494   3.177  13.041 -0.5239 -0.3403 -0.2308
 6756TIP3    H141683   3.483   3.219  12.956 -0.3132 -1.7360 -0.9717
 6756TIP3    H241684   3.419   3.207  13.092  1.4171  3.6011  0.4314
 6757TIP3   OH241685   4.772   6.331  11.433  0.1771  0.1002  0.0788
 6757TIP3    H141686   4.803   6.334  11.342 -2.5494 -0.7402 -0.9282
 6757TIP3    H241687   4.807   6.248  11.467  1.3153  0.4806 -0.1202
 6758TIP3   OH241688   5.933   1.503  12.204 -0.6253 -0.1129  0.0859
 6758TIP3    H141689   5.887   1.582  12.177 -0.5741 -0.9167 -2.4526
 6758TIP3    H241690   5.868   1.433  12.198 -0.4399 -0.4320  1.4894
 6759TIP3   OH241691   2.115   3.956  13.813  0.0478 -0.4540  0.1266
 6759TIP3    H141692   2.169   4.006  13.874 -0.9568  0.7457  0.0472
 6759TIP3    H241693   2.126   4.000  13.728  1.1659 -1.9025 -0.5005
 6760TIP3   OH241694   1.490   4.947   5.965 -0.3348 -0.3874  0.1487
 6760TIP3    H141695   1.507   4.951   6.059 -1.8930  0.8399  0.3922
 6760TIP3    H241696   1.414   5.003   5.951 -0.9951 -1.6674 -1.6506
 6761TIP3   OH241697   0.968   4.853   1.125  0.5826  0.6323 -0.6184
 6761TIP3    H141698   0.890   4.809   1.158  1.4254 -0.0863  0.4586
 6761TIP3    H241699   0.986   4.811   1.042  1.3461 -1.0553  0.3705
 6762TIP3   OH241700   0.909   2.200  10.784  0.0080 -0.1651 -0.1928
 6762TIP3    H141701   0.863   2.264  10.730  0.1396 -1.0135 -1.3333
 6762TIP3    H241702   0.849   2.183  10.857 -0.0110  1.2673  0.1385
 6763TIP3   OH241703   4.649   2.364  16.069  0.2993  0.6871 -0.1551
 6763TIP3    H141704   4.743   2.362  16.051  0.8410  2.9108  2.1893
 6763TIP3    H241705   4.642   2.357  16.164 -1.8217  1.8450 -0.1922
 6764TIP3   OH241706   0.138   4.429  15.847  0.0756  0.4486 -0.9786
 6764TIP3    H141707   0.090   4.358  15.805 -1.2324  0.2993  0.6944
 6764TIP3    H241708   0.219   4.388  15.879  0.1811  0.1335 -1.6550
 6765TIP3   OH241709   2.016   4.496  17.239 -0.3220 -0.2844 -0.9027
 6765TIP3    H141710   1.997   4.454  17.155 -2.8739 -1.8558  0.4006
 6765TIP3    H241711   1.985   4.586  17.228 -1.0077 -0.5869 -1.5045
 6766TIP3   OH241712   6.165   5.104  14.350 -0.3401 -0.0901  0.1327
 6766TIP3    H141713   6.158   5.022  14.399  0.8822 -0.2734  0.0073
 6766TIP3    H241714   6.097   5.160  14.389 -2.1079 -1.5984 -0.6875
 6767TIP3   OH241715   3.789   5.627   0.250  0.1486  0.1761 -0.3095
 6767TIP3    H141716   3.732   5.659   0.319 -0.5837 -1.4265 -0.1616
 6767TIP3    H241717   3.877   5.630   0.289 -0.4358 -2.3130  1.3237
 6768TIP3   OH241718   1.009   0.916  15.460  0.3225  0.1404  0.8736
 6768TIP3    H141719   0.943   0.985  15.470 -1.1557 -1.0797 -0.1588
 6768TIP3    H241720   1.069   0.928  15.533 -0.4786  1.9134  1.2501
 6769TIP3   OH241721   5.113   3.680  15.793  0.1653  0.0503  0.2435
 6769TIP3    H141722   5.162   3.763  15.790  1.3427 -0.6114  1.1804
 6769TIP3    H241723   5.166   3.622  15.847 -0.1320 -1.6692 -1.2441
 6770TIP3   OH241724   0.366   1.434  14.606 -0.1768  0.0130  0.4834
 6770TIP3    H141725   0.316   1.484  14.541 -0.2399  0.1148  0.6088
 6770TIP3    H241726   0.428   1.383  14.555  0.0207  0.3693  0.3672
 6771TIP3   OH241727   1.555   6.179   3.194  0.2655  0.1795  0.0641
 6771TIP3    H141728   1.596   6.263   3.175 -0.7394  0.3444 -1.4267
 6771TIP3    H241729   1.481   6.200   3.252 -1.8558  0.7231 -2.7665
 6772TIP3   OH241730   5.845   3.523  15.084  0.0886  0.1605 -0.5496
 6772TIP3    H141731   5.888   3.560  15.161  1.0816  0.4922 -1.2622
 6772TIP3    H241732   5.751   3.535  15.102  0.3399  1.1380  0.1642
 6773TIP3   OH241733   3.027   6.541   6.436  0.6532  0.1593 -0.0060
 6773TIP3    H141734   2.969   6.594   6.380 -0.0036 -0.5996 -0.0519
 6773TIP3    H241735   2.973   6.467   6.463  1.4531 -0.2901  0.3731
 6774TIP3   OH241736   4.944   2.492  14.012  0.2919 -0.3290 -0.3698
 6774TIP3    H141737   4.917   2.583  14.026  0.4840 -0.4749  0.9912
 6774TIP3    H241738   4.953   2.485  13.917 -0.0207  0.9902 -0.5168
 6775TIP3   OH241739   0.885   6.487   5.093 -0.3313 -0.3766  0.3815
 6775TIP3    H141740   0.791   6.503   5.091 -0.8734 -3.2191  0.0894
 6775TIP3    H241741   0.896   6.404   5.046  2.3542  0.0588  0.1642
 6776TIP3   OH241742   3.580   2.094   0.308  0.4738 -0.4176  0.2972
 6776TIP3    H141743   3.591   2.187   0.325 -0.2631  0.0215 -1.5369
 6776TIP3    H241744   3.653   2.072   0.249 -1.0434 -0.3218 -1.6580
 6777TIP3   OH241745   6.536   3.086   0.951  0.1228  0.2847  0.4715
 6777TIP3    H141746   6.564   2.995   0.944 -1.8461 -0.3526  0.4538
 6777TIP3    H241747   6.613   3.138   0.928  1.3254 -1.3735  0.7322
 6778TIP3   OH241748   2.312   3.603  13.263 -0.2852 -0.2235  0.1112
 6778TIP3    H141749   2.266   3.546  13.324  1.0699 -1.1973  0.2449
 6778TIP3    H241750   2.276   3.581  13.177  0.2290 -1.2562  0.1670
 6779TIP3   OH241751   0.938   4.335  15.899  1.0797  0.3634 -0.1749
 6779TIP3    H141752   0.876   4.395  15.858  0.9909 -0.9962 -2.1161
 6779TIP3    H241753   0.883   4.271  15.946  1.1121  0.7489  0.3892
 6780TIP3   OH241754   5.623   3.292  15.399 -0.7439 -0.2856 -0.1038
 6780TIP3    H141755   5.581   3.289  15.485 -2.4656 -0.2835 -0.9237
 6780TIP3    H241756   5.716   3.303  15.418 -0.9104 -1.8767  1.7860
 6781TIP3   OH241757   0.456   0.783   4.355  0.2711  0.5634 -0.1654
 6781TIP3    H141758   0.443   0.696   4.319 -0.8847  1.4211 -1.8749
 6781TIP3    H241759   0.547   0.805   4.334  1.2184 -1.0396  2.1144
 6782TIP3   OH241760   2.221   0.358  12.976  0.2340 -0.7773 -0.4895
 6782TIP3    H141761   2.309   0.368  12.939  0.6734 -0.6899  0.5580
 6782TIP3    H241762   2.162   0.366  12.901  1.1118 -0.6459 -1.1717
 6783TIP3   OH241763   0.600   5.324   5.095  0.3830  0.2744  0.2537
 6783TIP3    H141764   0.509   5.325   5.124  0.1858  1.0214 -0.3646
 6783TIP3    H241765   0.602   5.384   5.020  1.8821  2.3431  1.8586
 6784TIP3   OH241766   1.728   6.191   2.910 -0.2444  0.5477  0.4181
 6784TIP3    H141767   1.721   6.248   2.986 -0.3057  1.8170 -0.5285
 6784TIP3    H241768   1.640   6.154   2.900  0.0905 -0.6621  1.7391
 6785TIP3   OH241769   2.683   2.559   0.573  0.2811 -0.8827  0.4070
 6785TIP3    H141770   2.612   2.549   0.635  1.8406 -0.6986  2.2558
 6785TIP3    H241771   2.762   2.536   0.622  1.5905 -0.3798 -1.3893
 6786TIP3   OH241772   4.962   2.293   5.368  0.6180 -0.2602 -0.2710
 6786TIP3    H141773   4.975   2.200   5.384 -2.0730 -0.4613  1.1132
 6786TIP3    H241774   4.876   2.311   5.406  0.8169  2.6419 -1.1290
 6787TIP3   OH241775   1.581   3.311   0.561  0.3870 -0.0384  0.4163
 6787TIP3    H141776   1.664   3.286   0.520 -0.1141 -2.3266  0.6931
 6787TIP3    H241777   1.593   3.402   0.587  1.9699  0.3903 -1.6648
 6788TIP3   OH241778   3.050   6.731   0.493 -0.4521  0.3710 -0.0968
 6788TIP3    H141779   3.022   6.653   0.540  0.3477  0.1786  0.0746
 6788TIP3    H241780   2.969   6.774   0.466 -0.8981 -0.2502  0.2502
 6789TIP3   OH241781   2.218   5.475  11.817 -0.4797  0.4500 -0.0096
 6789TIP3    H141782   2.171   5.417  11.878 -0.2648 -2.6276 -2.5899
 6789TIP3    H241783   2.149   5.527  11.776 -1.2027 -0.9306 -0.5934
 6790TIP3   OH241784   0.947   1.310  11.439 -0.2304  0.1506 -0.0499
 6790TIP3    H141785   0.900   1.235  11.474 -0.9327  0.2056 -0.8641
 6790TIP3    H241786   0.997   1.276  11.366 -0.0812  0.3567 -0.0456
 6791TIP3   OH241787   3.444   6.757  11.718 -0.3876 -0.3231  0.4289
 6791TIP3    H141788   3.510   6.689  11.701 -0.7415 -0.8229  1.0268
 6791TIP3    H241789   3.462   6.824  11.653  2.4213  0.7705  2.2009
 6792TIP3   OH241790   5.317   2.773  13.846  0.6813  0.4970  0.0489
 6792TIP3    H141791   5.226   2.758  13.873  0.9223 -1.6482 -0.2190
 6792TIP3    H241792   5.368   2.758  13.926  0.8580  0.9631  0.0253
 6793TIP3   OH241793   5.883   4.751  12.598 -0.0029  0.4008  0.2036
 6793TIP3    H141794   5.970   4.791  12.606  0.2886 -0.5903  2.3016
 6793TIP3    H241795   5.829   4.801  12.659 -0.8080  0.7101 -0.7576
 6794TIP3   OH241796   1.327   0.614  14.057 -0.3510 -0.0634 -0.3801
 6794TIP3    H141797   1.296   0.529  14.026  1.5606 -0.5945 -0.9272
 6794TIP3    H241798   1.415   0.597  14.090 -1.1195  1.0825  2.5204
 6795TIP3   OH241799   2.307   0.813  14.086  0.4408 -0.4332 -0.8420
 6795TIP3    H141800   2.329   0.871  14.014  2.7501 -1.1695 -0.7735
 6795TIP3    H241801   2.343   0.728  14.061 -1.8345 -1.5695 -0.4024
 6796TIP3   OH241802   1.660   5.764  14.953 -0.3916  0.3988 -0.1256
 6796TIP3    H141803   1.724   5.783  14.884 -1.0714  1.0976 -0.5787
 6796TIP3    H241804   1.578   5.802  14.920 -1.0019 -0.3518  0.5145
 6797TIP3   OH241805   1.210   3.344  14.573  0.0079  0.0094  0.0334
 6797TIP3    H141806   1.186   3.384  14.656 -2.3636  0.2273 -0.7416
 6797TIP3    H241807   1.170   3.400  14.506 -0.2621 -1.5846 -1.1787
 6798TIP3   OH241808   1.941   0.685  12.469 -0.4622 -0.6267  0.2435
 6798TIP3    H141809   2.036   0.691  12.459 -0.1094 -1.3047  2.6567
 6798TIP3    H241810   1.907   0.678  12.380  1.6819  0.4588 -0.6903
 6799TIP3   OH241811   0.499   2.098  14.774  0.3094 -0.0089 -0.1514
 6799TIP3    H141812   0.430   2.142  14.725 -1.5972 -1.8828  0.7841
 6799TIP3    H241813   0.467   2.097  14.865  1.7714 -0.5208  0.3677
 6800TIP3   OH241814   3.764   0.253   2.984  0.4943  0.3627 -0.3309
 6800TIP3    H141815   3.745   0.315   3.055  0.5826  0.1170 -0.0899
 6800TIP3    H241816   3.854   0.273   2.958  0.5500  0.2846 -0.1996
 6801TIP3   OH241817   3.121   5.227  11.615  0.6151  0.0163  0.3351
 6801TIP3    H141818   3.185   5.297  11.631  0.5289  0.0085  0.7152
 6801TIP3    H241819   3.118   5.219  11.519 -1.3257  2.3470  0.1448
 6802TIP3   OH241820   3.165   2.349   4.124 -0.3094  0.0107  0.1329
 6802TIP3    H141821   3.152   2.351   4.219  0.7098  0.4438  0.2733
 6802TIP3    H241822   3.107   2.418   4.091  0.0742  0.5322  0.5385
 6803TIP3   OH241823   0.352   2.745  11.791  0.0629  0.6194  0.0171
 6803TIP3    H141824   0.288   2.814  11.780 -0.0982  0.0716 -3.0996
 6803TIP3    H241825   0.437   2.788  11.781  0.1415  1.0290  2.2605
 6804TIP3   OH241826   4.421   3.216  15.366  0.1085 -0.0785  0.1339
 6804TIP3    H141827   4.479   3.242  15.295  0.2774 -0.2471  0.2109
 6804TIP3    H241828   4.384   3.299  15.398 -0.1082 -0.0181 -0.2694
 6805TIP3   OH241829   2.079   1.575   4.506  0.2210  0.0426  0.4860
 6805TIP3    H141830   2.141   1.647   4.521 -0.2947 -0.1406  3.9405
 6805TIP3    H241831   2.007   1.592   4.567 -2.2807 -0.7598 -2.1651
 6806TIP3   OH241832   2.895   2.129   0.318  0.6623  0.1151 -0.2297
 6806TIP3    H141833   2.802   2.153   0.309  0.3104 -0.7849  0.9597
 6806TIP3    H241834   2.935   2.204   0.362  0.8169  1.1587 -2.1092
 6807TIP3   OH241835   6.166   4.880  12.143 -0.7818 -0.2331 -0.1716
 6807TIP3    H141836   6.078   4.891  12.180 -1.1305  0.8864 -1.3093
 6807TIP3    H241837   6.165   4.793  12.104 -0.9054 -0.8177  1.0941
 6808TIP3   OH241838   2.206   0.557  16.414 -0.3060  0.0246 -0.3384
 6808TIP3    H141839   2.130   0.540  16.470 -0.7251  1.6912 -0.3715
 6808TIP3    H241840   2.275   0.584  16.475  0.3249 -1.5859 -0.2986
 6809TIP3   OH241841   3.060   3.281  12.736  0.3311 -0.0234  0.4744
 6809TIP3    H141842   3.072   3.365  12.780  0.3947 -0.1623  0.7232
 6809TIP3    H241843   3.027   3.304  12.649  2.1135  0.3592 -0.1300
 6810TIP3   OH241844   2.144   4.770   0.228 -0.9080 -0.1160  0.3028
 6810TIP3    H141845   2.207   4.732   0.166 -2.1615  0.2354 -1.2126
 6810TIP3    H241846   2.198   4.816   0.292  0.3931 -0.2957 -0.6528
 6811TIP3   OH241847   4.914   2.900  13.725  0.4073  0.2512 -0.5289
 6811TIP3    H141848   4.917   2.969  13.658 -0.4209  1.9388  1.1301
 6811TIP3    H241849   4.881   2.944  13.803 -0.2736 -2.0837  0.5359
 6812TIP3   OH241850   2.948   4.004  10.381 -0.5350 -0.4320  0.3942
 6812TIP3    H141851   3.034   3.961  10.377  0.1253  0.8400  0.6497
 6812TIP3    H241852   2.963   4.083  10.432 -1.3805  0.9438 -1.4186
 6813TIP3   OH241853   3.032   1.579  14.415  0.2983  0.3907 -0.3479
 6813TIP3    H141854   3.052   1.651  14.355 -0.1550  0.7930 -0.0243
 6813TIP3    H241855   2.936   1.578  14.419  0.3230  0.3297  0.3155
 6814TIP3   OH241856   0.794   6.150   3.844  0.5019 -0.6329 -0.0231
 6814TIP3    H141857   0.726   6.085   3.864 -0.2111 -0.3491 -1.4926
 6814TIP3    H241858   0.844   6.111   3.773  0.0648  0.4367 -0.9233
 6815TIP3   OH241859   2.843   1.402   6.769 -0.9309 -0.4493  0.3074
 6815TIP3    H141860   2.813   1.490   6.744  0.3667  0.2871  1.2338
 6815TIP3    H241861   2.764   1.355   6.792 -1.6975  0.3355 -0.6618
 6816TIP3   OH241862   0.940   0.858   0.313 -0.0014  0.2555  0.7290
 6816TIP3    H141863   0.853   0.898   0.303  1.2873  3.1659  0.4947
 6816TIP3    H241864   0.961   0.869   0.406  1.1942  1.9811  0.2734
 6817TIP3   OH241865   2.470   5.090  12.560 -0.3518 -0.3094  0.1964
 6817TIP3    H141866   2.468   5.184  12.577 -0.1059 -0.0791 -0.9916
 6817TIP3    H241867   2.438   5.050  12.641 -1.3756  0.8341  0.3695
 6818TIP3   OH241868   3.779   1.474  11.562  0.1823  0.2612 -0.0342
 6818TIP3    H141869   3.687   1.451  11.568  0.5747 -1.8161 -1.4645
 6818TIP3    H241870   3.825   1.400  11.604  1.1800  1.5758  1.2665
 6819TIP3   OH241871   2.233   0.033   0.313  0.1109 -0.3601 -0.3170
 6819TIP3    H141872   2.195  -0.031   0.374 -1.6434  0.6391 -0.3279
 6819TIP3    H241873   2.202   0.005   0.227 -0.0920  0.1008 -0.3953
 6820TIP3   OH241874   1.506   0.022   6.078  0.2026  0.5526 -0.1177
 6820TIP3    H141875   1.600   0.024   6.095  0.0111  2.6478  0.8353
 6820TIP3    H241876   1.498   0.029   5.982  1.0023  0.6988 -0.1707
 6821TIP3   OH241877   0.130   0.303  13.706 -0.4162 -0.3181  0.5614
 6821TIP3    H141878   0.164   0.220  13.672  0.0952  0.8268 -1.7814
 6821TIP3    H241879   0.037   0.287  13.719 -0.9505 -0.3689 -2.8960
 6822TIP3   OH241880   5.944   3.206  11.273  0.3398 -0.7229 -0.2927
 6822TIP3    H141881   5.898   3.290  11.278  0.2544 -0.5727 -3.0867
 6822TIP3    H241882   5.988   3.198  11.359  0.3736  2.1818  0.0118
 6823TIP3   OH241883   3.542   3.820  15.791 -0.1673 -0.2873 -0.4253
 6823TIP3    H141884   3.513   3.778  15.872  0.6510 -0.1422 -0.0522
 6823TIP3    H241885   3.473   3.884  15.772 -0.2223 -0.1209  0.3108
 6824TIP3   OH241886   4.499   0.278   3.883 -0.0626 -0.1871  0.1610
 6824TIP3    H141887   4.525   0.309   3.796 -0.7865 -1.4780 -0.5362
 6824TIP3    H241888   4.581   0.249   3.924  0.5018  1.8031  0.5100
 6825TIP3   OH241889   2.147   6.205   0.954 -0.0153  0.1868 -0.0059
 6825TIP3    H141890   2.072   6.156   0.920  0.9091 -1.1087 -0.1947
 6825TIP3    H241891   2.160   6.172   1.042 -1.5698  2.6077  1.1871
 6826TIP3   OH241892   2.969   5.678   2.724  0.0640  0.1510 -0.1139
 6826TIP3    H141893   3.061   5.689   2.700 -0.1363 -0.2482 -1.0653
 6826TIP3    H241894   2.971   5.633   2.808  0.7795  1.8942  0.8347
 6827TIP3   OH241895   6.101   4.841  16.486 -0.1870 -0.1082  0.1371
 6827TIP3    H141896   6.161   4.874  16.552  0.8095 -3.6862  1.1453
 6827TIP3    H241897   6.076   4.754  16.518 -2.7433 -0.3420 -2.2854
 6828TIP3   OH241898   0.558   2.110   0.315  0.1611 -0.3260  0.4233
 6828TIP3    H141899   0.602   2.134   0.233  0.2262  0.5191  0.7047
 6828TIP3    H241900   0.629   2.078   0.371 -0.0009 -1.6983 -0.1363
 6829TIP3   OH241901   1.642   3.906  13.079 -0.0987  0.1172 -0.0097
 6829TIP3    H141902   1.551   3.877  13.083  0.1426 -0.6887 -0.3208
 6829TIP3    H241903   1.662   3.908  12.986  0.1148  0.5781  0.0463
 6830TIP3   OH241904   3.311   6.025  10.965  0.0244  0.5756  1.0842
 6830TIP3    H141905   3.283   6.080  10.892 -0.8686 -0.3870  0.6893
 6830TIP3    H241906   3.406   6.019  10.955  0.4072  3.5836  2.2252
 6831TIP3   OH241907   1.584   0.683  12.445 -0.3173 -0.0174 -0.7553
 6831TIP3    H141908   1.566   0.637  12.363  0.0918 -0.7414 -0.4489
 6831TIP3    H241909   1.674   0.658  12.467 -0.4395  0.1413 -0.0671
 6832TIP3   OH241910   4.863   4.274  16.498  0.4689 -0.2216  0.0059
 6832TIP3    H141911   4.776   4.242  16.523 -0.7457  2.3217 -0.7314
 6832TIP3    H241912   4.900   4.204  16.445 -1.0625 -1.4154  0.4443
 6833TIP3   OH241913   5.766   5.186  13.086 -0.7568 -0.2253  0.0554
 6833TIP3    H141914   5.821   5.125  13.135 -0.1197  0.2344 -0.0733
 6833TIP3    H241915   5.682   5.141  13.076 -0.6212 -0.6524  0.8481
 6834TIP3   OH241916   4.597   0.308   3.316 -0.3555 -0.5457 -0.2851
 6834TIP3    H141917   4.646   0.344   3.390 -1.9290  0.8359  0.1080
 6834TIP3    H241918   4.605   0.213   3.327 -1.9533 -0.4156  2.6295
 6835TIP3   OH241919   5.095   0.458   6.036 -0.2487  0.8102  0.3152
 6835TIP3    H141920   5.079   0.439   5.943  0.6376 -3.3977  0.9379
 6835TIP3    H241921   5.012   0.440   6.079 -0.1407  1.0123  0.6108
 6836TIP3   OH241922   0.271   3.022  11.973 -0.4823 -0.0557 -0.4454
 6836TIP3    H141923   0.341   3.036  11.910  1.4062 -3.1353  0.8671
 6836TIP3    H241924   0.201   2.980  11.922  0.8901 -2.2055 -0.6044
 6837TIP3   OH241925   2.594   4.114  11.210 -0.1821  0.6799  0.0716
 6837TIP3    H141926   2.629   4.122  11.298  1.0097  1.2641 -0.4471
 6837TIP3    H241927   2.513   4.063  11.221 -0.2296  1.0457  1.5309
 6838TIP3   OH241928   0.950   0.393   1.206  0.3054  1.0857  0.2881
 6838TIP3    H141929   1.025   0.334   1.215 -0.6736 -0.6362 -2.4409
 6838TIP3    H241930   0.979   0.474   1.249  4.0160  0.7084 -1.2747
 6839TIP3   OH241931   1.587   0.353  13.885  0.1233  0.6460  0.1110
 6839TIP3    H141932   1.621   0.441  13.901  1.4303  0.1074  0.4132
 6839TIP3    H241933   1.666   0.299  13.872 -0.6492 -0.5408  0.2710
 6840TIP3   OH241934   4.291   2.036   2.884  0.2736  0.2469  0.0030
 6840TIP3    H141935   4.239   2.114   2.901 -1.1715 -0.3160 -1.7146
 6840TIP3    H241936   4.275   1.979   2.960  0.9001  1.3532  0.9922
 6841TIP3   OH241937   3.842   1.625  16.187 -0.3187 -0.6721  0.0913
 6841TIP3    H141938   3.898   1.697  16.218 -1.7413 -0.2876  1.8161
 6841TIP3    H241939   3.883   1.597  16.105  0.6297  1.6692 -0.2777
 6842TIP3   OH241940   1.549   1.364  14.331  0.4552 -0.0807 -0.5309
 6842TIP3    H141941   1.536   1.277  14.369 -1.0439  0.8927  1.2895
 6842TIP3    H241942   1.635   1.359  14.288  1.1454 -1.9680  0.9706
 6843TIP3   OH241943   1.596   0.403  10.893  0.2761 -0.0043  0.0273
 6843TIP3    H141944   1.520   0.429  10.842  0.1034 -0.7770 -0.1266
 6843TIP3    H241945   1.584   0.309  10.907  1.0276 -0.0646  0.2971
 6844TIP3   OH241946   1.649   3.398   3.249  0.5984  0.5025 -0.8785
 6844TIP3    H141947   1.666   3.447   3.169  0.1667 -0.7503 -1.7574
 6844TIP3    H241948   1.679   3.309   3.230  0.1808  0.1119  0.2305
 6845TIP3   OH241949   4.707   5.766  15.562  0.2931  0.1470 -0.0578
 6845TIP3    H141950   4.762   5.739  15.635 -0.1275 -1.8681 -0.4673
 6845TIP3    H241951   4.726   5.703  15.492  0.2369  1.6703 -1.4956
 6846TIP3   OH241952   2.915   2.237   1.151 -0.9898  0.2031  0.0377
 6846TIP3    H141953   3.007   2.254   1.129 -0.5106  0.2356  1.9642
 6846TIP3    H241954   2.911   2.249   1.246 -2.5574 -1.7331  0.2500
 6847TIP3   OH241955   6.693   3.814  11.232  0.1146 -0.3901 -0.5174
 6847TIP3    H141956   6.750   3.737  11.232 -1.4027 -1.5335  0.0541
 6847TIP3    H241957   6.680   3.835  11.139  0.8069 -0.6038 -0.6626
 6848TIP3   OH241958   4.700   3.414  12.872  0.8399 -0.0489  0.0967
 6848TIP3    H141959   4.647   3.377  12.802  0.5832 -1.3748  0.9653
 6848TIP3    H241960   4.638   3.467  12.924  0.5461 -0.8895  0.6085
 6849TIP3   OH241961   4.374   1.045   3.686 -0.8276  0.1247 -0.9725
 6849TIP3    H141962   4.335   1.101   3.753 -1.1564  1.0592 -1.9129
 6849TIP3    H241963   4.366   0.956   3.720 -0.0565  0.6695  0.6713
 6850TIP3   OH241964   0.608   4.057  12.818  0.0681 -0.8784 -0.8426
 6850TIP3    H141965   0.642   4.008  12.743  0.1259  0.7819 -1.9145
 6850TIP3    H241966   0.600   4.147  12.787  0.8682 -0.0015  1.3920
 6851TIP3   OH241967   0.185   6.508  14.505 -0.4815  0.2180  0.6555
 6851TIP3    H141968   0.144   6.494  14.420  1.0791  0.3928 -0.1327
 6851TIP3    H241969   0.155   6.595  14.533 -0.5998  0.3608  0.0752
 6852TIP3   OH241970   2.017   4.727  12.872  0.2758  0.4044  0.3954
 6852TIP3    H141971   1.948   4.702  12.934  1.8915 -2.2077  1.2028
 6852TIP3    H241972   2.092   4.749  12.927  0.8896  0.7405 -0.5702
 6853TIP3   OH241973   3.525   2.035  16.147 -0.2857  0.3462 -0.1101
 6853TIP3    H141974   3.553   1.945  16.133  2.9665  1.1152  0.7638
 6853TIP3    H241975   3.559   2.057  16.235  0.9324  3.0568 -1.1822
 6854TIP3   OH241976   6.176   5.496   3.269 -0.0047 -0.2185  0.0194
 6854TIP3    H141977   6.227   5.574   3.289 -0.4571  0.1940 -0.4135
 6854TIP3    H241978   6.227   5.450   3.203  0.2238 -0.2434  0.2155
 6855TIP3   OH241979   5.311   0.433  15.211  0.6050 -0.5412  0.4134
 6855TIP3    H141980   5.332   0.376  15.285 -0.4897 -2.0899 -0.4443
 6855TIP3    H241981   5.219   0.416  15.192  0.0997  1.9478  0.4833
 6856TIP3   OH241982   2.853   2.050   2.317  0.3206  0.4352  0.6621
 6856TIP3    H141983   2.762   2.037   2.292  0.7819  0.2456 -0.9838
 6856TIP3    H241984   2.856   2.137   2.357 -0.5907  0.4012  0.8014
 6857TIP3   OH241985   4.268   4.605  15.957 -0.0539  0.1373  0.4682
 6857TIP3    H141986   4.241   4.556  15.879 -2.8272 -0.4811  1.7553
 6857TIP3    H241987   4.325   4.545  16.005  0.0345 -0.2277 -0.0842
 6858TIP3   OH241988   1.146   4.653  11.259 -0.6075 -0.2915 -0.2405
 6858TIP3    H141989   1.111   4.722  11.203  0.1874  0.1078 -0.2572
 6858TIP3    H241990   1.099   4.574  11.232  0.7201 -0.3776 -2.4554
 6859TIP3   OH241991   1.947   1.596   4.239 -0.2428  0.4284 -0.0481
 6859TIP3    H141992   1.915   1.686   4.234 -0.9391  0.2746  1.5820
 6859TIP3    H241993   1.994   1.591   4.323 -2.8279 -1.5546  1.3393
 6860TIP3   OH241994   3.523   1.980   4.221 -0.7456 -0.9976  0.6947
 6860TIP3    H141995   3.467   1.982   4.143  0.4560  0.9495 -0.1509
 6860TIP3    H241996   3.524   2.070   4.252 -0.7423 -1.6465  2.6548
 6861TIP3   OH241997   2.544   2.914  11.597  0.5851  0.6308 -0.2463
 6861TIP3    H141998   2.621   2.858  11.603  0.7531  0.7916 -0.8090
 6861TIP3    H241999   2.481   2.865  11.544 -0.7218 -0.6114  2.3878
 6862TIP3   OH242000   3.498   6.779   2.076 -0.2829  0.0084 -0.5995
 6862TIP3    H142001   3.524   6.837   2.148 -1.1169  0.2762 -0.5058
 6862TIP3    H242002   3.415   6.741   2.105  0.0718 -0.9477 -0.8281
 6863TIP3   OH242003   5.157   1.768  12.734 -0.3667 -0.2818  0.5902
 6863TIP3    H142004   5.152   1.689  12.789 -1.2577 -0.9944 -0.5065
 6863TIP3    H242005   5.251   1.780  12.719 -0.3380 -2.9563 -1.7834
 6864TIP3   OH242006   4.931   2.799   4.224 -0.5655 -0.2255  0.8887
 6864TIP3    H142007   4.910   2.792   4.131 -1.6461 -0.0818  1.1181
 6864TIP3    H242008   4.981   2.880   4.232 -1.7565  0.5355  0.6632
 6865TIP3   OH242009   6.053   2.234   2.971  0.4477 -0.1983  0.3139
 6865TIP3    H142010   5.964   2.260   2.948  0.0507 -0.5850  1.3792
 6865TIP3    H242011   6.068   2.153   2.921  0.1827 -0.1765  0.2000
 6866TIP3   OH242012   3.711   4.548   4.494  0.5834  0.4504 -0.4064
 6866TIP3    H142013   3.754   4.500   4.424 -0.4401 -0.8723 -0.1395
 6866TIP3    H242014   3.719   4.491   4.571  0.1766  1.1204  0.1407
 6867TIP3   OH242015   6.050   4.112   4.938  0.1425  0.1331  0.6060
 6867TIP3    H142016   6.057   4.069   4.853  1.8247 -3.3027  2.3426
 6867TIP3    H242017   5.958   4.106   4.961 -0.1377  0.1107 -0.5094
 6868TIP3   OH242018   6.491   3.724   0.878 -0.3923 -0.2025 -0.2568
 6868TIP3    H142019   6.555   3.782   0.918 -0.8525  0.6646 -0.7582
 6868TIP3    H242020   6.463   3.771   0.799 -0.9869 -0.9738 -0.5068
 6869TIP3   OH242021   4.817   4.335  12.630 -0.2252 -0.0733 -0.3536
 6869TIP3    H142022   4.860   4.250  12.640  1.7334  1.0783  1.3757
 6869TIP3    H242023   4.871   4.396  12.680 -2.7259  1.8362  0.1771
 6870TIP3   OH242024   0.412   2.070   4.241 -0.2114  0.1267 -0.6894
 6870TIP3    H142025   0.341   2.020   4.281  0.0591  0.4917  0.2631
 6870TIP3    H242026   0.393   2.067   4.147 -0.3528 -1.4933 -0.6249
 6871TIP3   OH242027   5.543   2.482  11.180  0.1281 -0.3782 -0.4148
 6871TIP3    H142028   5.587   2.545  11.123 -4.2063  1.5662 -1.8824
 6871TIP3    H242029   5.522   2.533  11.259  0.0870 -1.0992  0.0414
 6872TIP3   OH242030   4.377   6.326   5.938  0.2622 -0.1846 -0.3840
 6872TIP3    H142031   4.407   6.266   6.006  0.0054 -0.7453 -0.7637
 6872TIP3    H242032   4.456   6.349   5.889  0.0896 -1.6312 -1.3635
 6873TIP3   OH242033   4.664   4.995  13.680 -0.3975  0.3534  0.3568
 6873TIP3    H142034   4.660   4.964  13.589  0.4068  0.9294  0.1190
 6873TIP3    H242035   4.749   5.039  13.686  0.4881 -1.5265  1.9766
 6874TIP3   OH242036   1.516   0.960   2.503  0.1353 -0.5951 -0.2931
 6874TIP3    H142037   1.596   0.948   2.452  0.5929 -0.9344  0.5038
 6874TIP3    H242038   1.532   0.914   2.585 -1.0334 -1.0276 -0.2896
 6875TIP3   OH242039   3.718   5.827  12.607  0.1266 -0.0038 -0.1035
 6875TIP3    H142040   3.778   5.834  12.532  1.5765 -0.1257  1.0202
 6875TIP3    H242041   3.631   5.837  12.569  0.9624  2.8069 -1.4443
 6876TIP3   OH242042   3.036   3.471  15.832 -0.0566 -0.4001  0.0518
 6876TIP3    H142043   3.084   3.403  15.785 -1.0419 -1.8332  1.0759
 6876TIP3    H242044   3.103   3.536  15.855  0.5796 -0.0764 -2.5429
 6877TIP3   OH242045   1.355   2.156  13.177 -0.2084 -0.1781 -0.0397
 6877TIP3    H142046   1.446   2.182  13.159 -0.3881 -0.4870 -1.4379
 6877TIP3    H242047   1.360   2.062  13.194 -0.2719 -0.2054 -0.1700
 6878TIP3   OH242048   0.032   5.226   5.357  0.3583  0.0451 -0.3015
 6878TIP3    H142049   0.028   5.318   5.329 -2.6246 -0.3420 -1.3896
 6878TIP3    H242050   0.031   5.230   5.452 -0.3281  1.1547 -0.3403
 6879TIP3   OH242051   4.571   2.951  15.165  0.2430  0.1102 -0.3587
 6879TIP3    H142052   4.642   2.947  15.229  0.6146  0.5060 -0.7523
 6879TIP3    H242053   4.493   2.926  15.216  0.6303 -0.1529  0.1119
 6880TIP3   OH242054   3.037   6.197  15.635  0.7864  0.1838  0.3407
 6880TIP3    H142055   3.116   6.243  15.666  0.6582  2.7794 -2.9541
 6880TIP3    H242056   3.067   6.145  15.561 -0.2870 -0.0561  0.0716
 6881TIP3   OH242057   0.797   1.498   5.011 -0.2254  0.3957 -0.1920
 6881TIP3    H142058   0.705   1.476   5.022 -0.2086  0.5507  0.2565
 6881TIP3    H242059   0.832   1.502   5.100  0.3222 -0.1230 -0.3797
 6882TIP3   OH242060   3.035   0.261  14.480  0.3807  0.0938  0.4725
 6882TIP3    H142061   3.127   0.241  14.460  0.2370 -0.3565  0.2511
 6882TIP3    H242062   3.012   0.332  14.419 -0.0293 -1.2067 -0.9308
 6883TIP3   OH242063   1.868   5.719  16.342 -0.0352 -0.4865  0.1143
 6883TIP3    H142064   1.887   5.675  16.259 -2.0596  1.0504 -1.2237
 6883TIP3    H242065   1.846   5.809  16.316  2.4328  0.9056  2.6260
 6884TIP3   OH242066   5.085   4.008   2.774 -0.0475 -0.1290 -0.0665
 6884TIP3    H142067   5.055   4.058   2.699 -0.7636 -0.6382 -0.1197
 6884TIP3    H242068   5.008   3.960   2.803  0.0941  0.4336  1.2881
 6885TIP3   OH242069   6.103   2.128   3.296 -0.8629 -0.2179 -0.1254
 6885TIP3    H142070   6.193   2.099   3.311  0.2064  3.6348  1.4363
 6885TIP3    H242071   6.085   2.104   3.206  2.1127 -0.1958 -0.7767
 6886TIP3   OH242072   3.624   5.917  13.858 -0.2544  0.1689  0.3698
 6886TIP3    H142073   3.613   5.966  13.939 -0.1982 -0.7145  0.9146
 6886TIP3    H242074   3.544   5.864  13.851 -0.7618  1.0495 -0.7173
 6887TIP3   OH242075   2.142   6.549   3.954 -0.2193 -0.6583  0.4128
 6887TIP3    H142076   2.182   6.615   3.897 -3.4676  0.5721 -0.5380
 6887TIP3    H242077   2.171   6.573   4.042  0.0811  0.9756 -0.1179
 6888TIP3   OH242078   1.131   4.751  15.350 -0.3112 -0.1473 -0.0849
 6888TIP3    H142079   1.122   4.657  15.363  0.1201 -0.1748  0.0170
 6888TIP3    H242080   1.049   4.778  15.308 -2.1311  0.1057  3.4435
 6889TIP3   OH242081   2.310   5.378  16.145 -0.4422 -0.6474 -0.2786
 6889TIP3    H142082   2.403   5.401  16.154  0.0894 -3.1391  1.0352
 6889TIP3    H242083   2.286   5.411  16.059  2.2914 -1.9407 -1.5973
 6890TIP3   OH242084   6.400   2.139   3.351 -0.1510  0.7615  0.1079
 6890TIP3    H142085   6.478   2.108   3.304  0.1589  0.6016  0.7249
 6890TIP3    H242086   6.435   2.184   3.428 -0.6393  1.5215 -0.1107
 6891TIP3   OH242087   1.918   1.333   6.018  0.1737 -0.2634 -0.3138
 6891TIP3    H142088   1.868   1.326   6.099  1.8557  1.0955  0.8639
 6891TIP3    H242089   1.998   1.379   6.042  0.4566  0.6691 -2.8499
 6892TIP3   OH242090   3.917   5.395  15.405  0.2027  0.7069  0.2581
 6892TIP3    H142091   3.880   5.481  15.425  0.2103  1.3586 -2.3067
 6892TIP3    H242092   3.846   5.348  15.360  0.7449 -0.0344  0.1657
 6893TIP3   OH242093   4.592   4.619  11.935  0.2218 -0.0530 -0.2310
 6893TIP3    H142094   4.661   4.610  12.001  0.5958  1.9988 -0.2889
 6893TIP3    H242095   4.537   4.690  11.969 -0.6632 -0.2680 -1.2022
 6894TIP3   OH242096   4.521   3.046  12.248 -0.4181  0.0855  0.0786
 6894TIP3    H142097   4.536   3.000  12.165 -0.4105  0.3007 -0.0391
 6894TIP3    H242098   4.426   3.046  12.259 -0.3805 -0.6169  0.4499
 6895TIP3   OH242099   3.763   3.302  12.000 -0.0271 -0.2737  0.1442
 6895TIP3    H142100   3.725   3.355  11.929 -0.7686 -1.4677 -0.3611
 6895TIP3    H242101   3.694   3.296  12.065 -0.7730 -2.4888 -0.8004
 6896TIP3   OH242102   0.881   6.070  13.492  0.1873  0.1046  0.4490
 6896TIP3    H142103   0.786   6.075  13.479 -0.1292  1.1900  3.0579
 6896TIP3    H242104   0.915   6.151  13.453 -0.0375  0.1970  0.4492
 6897TIP3   OH242105   3.311   4.807  15.632 -0.3903 -0.2995 -0.1294
 6897TIP3    H142106   3.289   4.858  15.554 -1.7146 -1.5135 -0.5792
 6897TIP3    H242107   3.300   4.716  15.604  2.0751 -0.8458  0.6111
 6898TIP3   OH242108   4.264   5.108   2.626  0.1210  0.1357  0.8584
 6898TIP3    H142109   4.305   5.045   2.567  0.4964  0.7491  0.4577
 6898TIP3    H242110   4.254   5.061   2.709  1.2194 -0.1662  0.8253
 6899TIP3   OH242111   3.972   3.782   5.671  0.0430  0.0097  0.4976
 6899TIP3    H142112   3.959   3.877   5.676  0.2110  0.1602 -1.2983
 6899TIP3    H242113   4.046   3.771   5.611  0.9097 -1.2176  1.7752
 6900TIP3   OH242114   1.435   1.141  15.694  0.7263  0.2433 -0.3713
 6900TIP3    H142115   1.478   1.167  15.776  0.6096 -0.5324 -0.0669
 6900TIP3    H242116   1.502   1.093  15.646  0.7266  0.5084 -0.6348
 6901TIP3   OH242117   3.343   3.543  15.833  0.0014  0.2488 -0.5189
 6901TIP3    H142118   3.308   3.604  15.897  0.9612 -0.4190  0.6614
 6901TIP3    H242119   3.329   3.586  15.748 -4.0527 -0.1783 -0.1649
 6902TIP3   OH242120   0.652   1.073   5.868 -0.5955  0.5775  0.0710
 6902TIP3    H142121   0.694   1.012   5.929 -0.6917  0.6416  0.2034
 6902TIP3    H242122   0.603   1.132   5.925 -0.9788  0.4155 -0.0906
 6903TIP3   OH242123   2.892   3.612  16.867  0.6005 -0.0838  0.6697
 6903TIP3    H142124   2.885   3.642  16.777  0.4737  0.0357  0.7184
 6903TIP3    H242125   2.850   3.526  16.868  0.6719 -0.1191  0.5985
 6904TIP3   OH242126   2.159   0.759   1.510  0.4136 -0.4277  0.0292
 6904TIP3    H142127   2.255   0.765   1.516  0.4447  0.1166 -0.8826
 6904TIP3    H242128   2.137   0.683   1.564  1.3280 -0.3652  0.5165
 6905TIP3   OH242129   2.958   4.751  13.809 -0.3396  0.7281 -0.0142
 6905TIP3    H142130   3.049   4.769  13.788 -0.3965  0.0325 -0.8900
 6905TIP3    H242131   2.935   4.815  13.876  0.5552  1.4182 -0.3658
 6906TIP3   OH242132   3.254   6.554  16.556  0.1639  0.4196 -0.0225
 6906TIP3    H142133   3.262   6.611  16.479  2.7425 -2.0941 -1.7424
 6906TIP3    H242134   3.164   6.523  16.553 -0.4425  2.1618 -0.6890
 6907TIP3   OH242135   1.646   4.919   2.881 -0.1818 -0.3058  0.0258
 6907TIP3    H142136   1.659   4.958   2.795 -0.7269 -0.9170 -0.3398
 6907TIP3    H242137   1.667   4.826   2.869  0.1577 -0.3123  0.6512
 6908TIP3   OH242138   3.101   0.622   4.803 -0.4102 -0.1406  0.0315
 6908TIP3    H142139   3.044   0.546   4.815  0.0818 -0.6007 -0.5234
 6908TIP3    H242140   3.109   0.631   4.708  0.3542 -0.0146  0.1060
 6909TIP3   OH242141   0.082   1.419  15.944  0.0871  0.3051 -0.1910
 6909TIP3    H142142   0.167   1.461  15.954  0.1182 -0.0670  1.1442
 6909TIP3    H242143   0.019   1.480  15.983 -0.3951  1.0439 -2.0819
 6910TIP3   OH242144   0.794   0.940  12.450  0.1361  0.6036 -0.1321
 6910TIP3    H142145   0.873   0.886  12.460  0.2070  0.7718  0.1998
 6910TIP3    H242146   0.764   0.956  12.539  0.6664  1.9328 -0.1806
 6911TIP3   OH242147   2.234   2.087  14.003  0.7161  0.3154  0.2251
 6911TIP3    H142148   2.269   2.100  13.915  0.7658  1.4042  0.4030
 6911TIP3    H242149   2.177   2.162  14.018 -0.0051 -0.3308  0.7770
 6912TIP3   OH242150   1.808   0.695  11.357  0.5247 -0.0989 -0.2456
 6912TIP3    H142151   1.821   0.762  11.290  0.0895 -0.1691 -0.3979
 6912TIP3    H242152   1.756   0.737  11.425  0.4893 -0.2013 -0.2092
 6913TIP3   OH242153   4.088   3.451  17.036  0.0328 -0.3955  0.2241
 6913TIP3    H142154   4.051   3.368  17.004 -1.2501  0.3217 -0.1948
 6913TIP3    H242155   4.012   3.502  17.064  0.9399  0.0472  1.9309
 6914TIP3   OH242156   6.659   0.929   3.889 -0.0377  0.7081  0.2412
 6914TIP3    H142157   6.651   0.893   3.978 -1.3393  1.2708  0.3647
 6914TIP3    H242158   6.637   0.855   3.832 -2.0361  1.0942  0.4747
 6915TIP3   OH242159   0.493   4.763  13.830 -0.1477  0.6521  0.0708
 6915TIP3    H142160   0.584   4.749  13.802 -0.1977 -0.0193  0.2358
 6915TIP3    H242161   0.500   4.788  13.922 -0.0910  1.2569 -0.0912
 6916TIP3   OH242162   3.211   6.082  13.033  0.0395 -0.6915  0.4984
 6916TIP3    H142163   3.210   6.162  13.086 -2.0914 -0.3542  0.0020
 6916TIP3    H242164   3.211   6.011  13.097 -2.1250 -0.2877  0.9646
 6917TIP3   OH242165   1.808   6.111   1.558 -0.5098  0.2959 -0.1103
 6917TIP3    H142166   1.854   6.155   1.487  0.4705  0.3344  0.5513
 6917TIP3    H242167   1.807   6.175   1.630 -2.1876  0.5582 -0.3412
 6918TIP3   OH242168   0.150   2.566  13.618  0.4206 -0.2625  0.1066
 6918TIP3    H142169   0.146   2.518  13.701  1.0177 -0.5014 -0.0030
 6918TIP3    H242170   0.139   2.658  13.643 -1.7976 -0.5409  0.2104
 6919TIP3   OH242171   0.806   0.450  15.338 -0.4530 -0.2146 -0.4839
 6919TIP3    H142172   0.816   0.355  15.343 -0.2738 -0.1368  0.8363
 6919TIP3    H242173   0.728   0.468  15.391 -1.1357  0.2736 -1.6299
 6920TIP3   OH242174   5.429   5.080   3.590  0.0380 -0.2269  0.0534
 6920TIP3    H142175   5.401   4.994   3.556  0.8485 -0.8161  0.8610
 6920TIP3    H242176   5.516   5.092   3.553 -0.7264  1.0075 -1.3883
 6921TIP3   OH242177   0.088   0.878  12.409 -0.0872  0.6987 -0.0475
 6921TIP3    H142178   0.174   0.869  12.370 -0.9400 -1.7440 -1.4832
 6921TIP3    H242179   0.049   0.954  12.366  1.2302  1.6704  0.4461
 6922TIP3   OH242180   4.375   4.241   5.851 -0.2222 -0.3372 -0.2928
 6922TIP3    H142181   4.371   4.239   5.946 -2.2806 -0.2512 -0.3508
 6922TIP3    H242182   4.399   4.332   5.830  0.3647 -0.3920  0.1396
 6923TIP3   OH242183   0.352   1.968  13.681  0.5326 -0.2816  0.3376
 6923TIP3    H142184   0.317   1.911  13.749  0.4345 -0.2222  0.3385
 6923TIP3    H242185   0.363   1.911  13.605 -0.5431 -0.0914  0.0278
 6924TIP3   OH242186   0.404   0.843   2.160 -0.0392  0.2749  0.1685
 6924TIP3    H142187   0.322   0.851   2.112 -0.0952  2.2450  0.5781
 6924TIP3    H242188   0.380   0.853   2.252  0.9504  3.3773  0.1363
 6925TIP3   OH242189   0.667   2.948  11.290 -0.1726 -0.2978  0.1155
 6925TIP3    H142190   0.759   2.971  11.296 -0.9233  2.3275  2.9869
 6925TIP3    H242191   0.647   2.950  11.196  2.4021  0.1659 -0.4565
 6926TIP3   OH242192   6.278   5.755   5.296  0.5903 -0.0277 -0.5719
 6926TIP3    H142193   6.251   5.816   5.365  0.5100  1.4826 -1.9065
 6926TIP3    H242194   6.202   5.748   5.239  1.0863 -0.2164 -1.2245
 6927TIP3   OH242195   0.871   1.331  15.379 -0.0472 -0.1259 -0.1400
 6927TIP3    H142196   0.869   1.244  15.339 -0.6863 -0.2432  0.1328
 6927TIP3    H242197   0.801   1.379  15.334  1.4396  0.8051 -1.5293
 6928TIP3   OH242198   3.188   0.702  15.846  0.0284 -0.0241  0.0534
 6928TIP3    H142199   3.166   0.613  15.818 -0.9301 -0.0668  0.8880
 6928TIP3    H242200   3.263   0.692  15.904  0.3981 -0.2003 -0.4496
 6929TIP3   OH242201   5.182   2.208  10.576 -0.2767 -0.0419  0.3761
 6929TIP3    H142202   5.152   2.134  10.523 -0.8529 -0.0506  0.7162
 6929TIP3    H242203   5.275   2.189  10.592 -0.5253 -0.9128  0.8189
 6930TIP3   OH242204   4.524   5.294  12.054  0.0820 -0.0140 -0.1588
 6930TIP3    H142205   4.585   5.320  12.123 -1.0399  0.1320  0.7803
 6930TIP3    H242206   4.513   5.200  12.065  2.7398 -0.6740 -2.4367
 6931TIP3   OH242207   1.972   2.408  14.941  0.1524  0.3728 -0.4174
 6931TIP3    H142208   2.013   2.348  15.003 -2.5459 -0.6918  0.4287
 6931TIP3    H242209   1.965   2.491  14.988  0.3546  0.2573 -0.1854
 6932TIP3   OH242210   1.897   5.899  12.244 -0.4101 -0.2235 -0.0531
 6932TIP3    H142211   1.943   5.983  12.247 -0.7302 -0.0645  0.6288
 6932TIP3    H242212   1.966   5.835  12.225  0.2866 -0.1042  1.9142
 6933TIP3   OH242213   1.814   4.018   1.981  0.1379 -0.0943 -0.0438
 6933TIP3    H142214   1.818   4.022   2.077 -1.5958  1.9159 -0.0260
 6933TIP3    H242215   1.774   3.934   1.962 -0.1323 -0.2121  1.0266
 6934TIP3   OH242216   5.343   0.786   2.366 -0.2024 -0.3376  0.3795
 6934TIP3    H142217   5.310   0.767   2.278 -0.1802 -0.1663  0.3350
 6934TIP3    H242218   5.411   0.720   2.381  0.7163  0.4501 -0.2538
 6935TIP3   OH242219   2.364   1.025  11.922  0.6457  0.2382 -0.3308
 6935TIP3    H142220   2.280   1.030  11.877  1.3602 -0.5256 -1.7998
 6935TIP3    H242221   2.411   1.103  11.893 -0.1525  1.5327  1.7764
 6936TIP3   OH242222   5.960   2.494  11.138 -0.8586 -0.4451  0.3312
 6936TIP3    H142223   5.897   2.547  11.187 -0.0118  0.5207  0.3820
 6936TIP3    H242224   6.036   2.551  11.126 -0.2359 -1.3864 -0.2814
 6937TIP3   OH242225   3.731   1.522  14.723  0.1830 -0.3039 -0.8193
 6937TIP3    H142226   3.788   1.576  14.779  0.3477 -0.9798 -0.3251
 6937TIP3    H242227   3.644   1.534  14.760  0.1964 -0.2668 -0.7998
 6938TIP3   OH242228   3.319   4.669  14.441  0.2787 -0.7741 -0.1927
 6938TIP3    H142229   3.290   4.756  14.467  0.2135 -0.7638 -0.2959
 6938TIP3    H242230   3.244   4.632  14.395  1.1509  0.1031 -2.4233
 6939TIP3   OH242231   3.674   4.677  10.709  0.2677  0.3513  0.1835
 6939TIP3    H142232   3.715   4.608  10.760  1.9897  1.1834 -0.0617
 6939TIP3    H242233   3.717   4.757  10.738 -0.5600  1.1295 -0.7216
 6940TIP3   OH242234   3.811   5.060   0.327 -0.2039  0.9583  0.0438
 6940TIP3    H142235   3.864   5.020   0.397  0.0749  0.4510 -0.4554
 6940TIP3    H242236   3.863   5.134   0.297  0.5341  0.0842 -0.8826
 6941TIP3   OH242237   6.425   5.783  13.652  0.0449  0.2465  0.1828
 6941TIP3    H142238   6.358   5.743  13.709  0.5701  0.0052  0.6440
 6941TIP3    H242239   6.488   5.821  13.713  0.8104 -0.3359 -0.2354
 6942TIP3   OH242240   2.104   2.595  15.706 -0.4356 -0.1397  0.4908
 6942TIP3    H142241   2.030   2.655  15.702 -0.3947 -0.0040  1.6723
 6942TIP3    H242242   2.124   2.574  15.615 -1.1784  0.7450  0.1321
 6943TIP3   OH242243   1.661   3.691   2.445 -0.0024  0.3413  0.4614
 6943TIP3    H142244   1.641   3.639   2.523  0.7474 -0.7236 -0.0452
 6943TIP3    H242245   1.672   3.627   2.375  3.1640  0.9824  0.2906
 6944TIP3   OH242246   2.961   3.952   6.306 -0.4326  0.2022 -0.4793
 6944TIP3    H142247   2.903   4.019   6.342 -0.8341  0.1522 -1.0384
 6944TIP3    H242248   2.991   3.904   6.384  0.0881  1.2069 -0.0580
 6945TIP3   OH242249   6.317   5.122  11.829 -0.2421  0.2085  0.0400
 6945TIP3    H142250   6.253   5.052  11.844 -0.1597 -0.2282 -1.5711
 6945TIP3    H242251   6.402   5.079  11.842 -0.2327  0.5165  1.0590
 6946TIP3   OH242252   0.036   1.637   3.893  0.5848 -0.4281 -0.0483
 6946TIP3    H142253   0.017   1.731   3.888  0.7928 -0.3937 -0.1576
 6946TIP3    H242254  -0.019   1.607   3.966  1.7827  0.0883  1.0845
 6947TIP3   OH242255   0.248   0.689   3.937 -0.3026 -0.2733  0.2760
 6947TIP3    H142256   0.170   0.645   3.903 -1.2600 -1.1925  3.4680
 6947TIP3    H242257   0.314   0.620   3.944  0.6509  0.3783 -1.8199
 6948TIP3   OH242258   5.727   0.294   1.928 -0.3141 -0.3416  0.4865
 6948TIP3    H142259   5.641   0.336   1.930  0.8002  2.0126  0.6159
 6948TIP3    H242260   5.789   0.367   1.925  1.6619 -2.0173 -0.3981
 6949TIP3   OH242261   1.460   4.211  14.988 -0.2714  0.0951 -0.0340
 6949TIP3    H142262   1.379   4.230  15.036  0.1153 -0.5997  0.9201
 6949TIP3    H242263   1.507   4.294  14.985  0.0830 -0.0310  1.5539
 6950TIP3   OH242264   6.440   0.410   4.931  0.1217  0.0634 -0.4629
 6950TIP3    H142265   6.525   0.453   4.941 -0.9047  1.6737  2.1537
 6950TIP3    H242266   6.376   0.479   4.953 -1.8681 -1.0656 -2.5095
 6951TIP3   OH242267   4.423   2.915  13.878 -0.4765 -0.1907 -0.1495
 6951TIP3    H142268   4.472   2.833  13.871 -1.8739 -1.0473 -0.0802
 6951TIP3    H242269   4.391   2.916  13.968  1.4344  1.5527  0.5390
 6952TIP3   OH242270   0.696   0.799  16.129 -0.0318  0.7034 -0.4679
 6952TIP3    H142271   0.708   0.795  16.224  0.6003  2.7474 -0.4332
 6952TIP3    H242272   0.703   0.893  16.108  1.0473  0.1582 -2.6834
 6953TIP3   OH242273   2.609   1.255   3.583 -0.0886 -0.0580  0.2373
 6953TIP3    H142274   2.515   1.274   3.584 -0.4542 -1.6552 -1.1179
 6953TIP3    H242275   2.623   1.210   3.500  1.5369 -1.5366  1.2815
 6954TIP3   OH242276   4.899   0.403   2.224  0.1436 -0.3690  0.1795
 6954TIP3    H142277   4.878   0.432   2.313  0.7846 -0.1972  0.2814
 6954TIP3    H242278   4.970   0.340   2.236 -0.2267 -0.8497 -0.1621
 6955TIP3   OH242279   3.230   3.766   2.429  0.0037 -0.2732 -0.0101
 6955TIP3    H142280   3.293   3.766   2.500  0.1499 -0.8065 -0.1341
 6955TIP3    H242281   3.144   3.769   2.472  0.1058  0.0723  0.1666
 6956TIP3   OH242282   3.821   0.123  15.471  0.0551  0.2922  0.0255
 6956TIP3    H142283   3.738   0.134  15.424 -0.3525 -0.2849  0.5970
 6956TIP3    H242284   3.810   0.042  15.521  0.6109  0.7011  0.8323
 6957TIP3   OH242285   6.657   2.294  11.121  0.0920  0.0821 -0.9711
 6957TIP3    H142286   6.690   2.379  11.150  0.9350 -0.6148  0.1619
 6957TIP3    H242287   6.725   2.262  11.061 -0.0667  0.0729 -1.1438
 6958TIP3   OH242288   3.841   6.510  13.046  0.3542 -0.6806 -0.1050
 6958TIP3    H142289   3.883   6.593  13.023 -1.3655  0.1358 -0.3774
 6958TIP3    H242290   3.831   6.514  13.141 -2.3197  0.7412 -0.3816
 6959TIP3   OH242291   2.430   2.091  13.116 -0.0457 -0.4695  0.3230
 6959TIP3    H142292   2.360   2.041  13.159 -0.0882 -0.7908 -0.1151
 6959TIP3    H242293   2.412   2.182  13.139  0.2723 -0.6855  1.4884
 6960TIP3   OH242294   2.343   5.592  13.759  0.2583 -0.7893 -0.5392
 6960TIP3    H142295   2.359   5.499  13.775 -1.2717 -1.0932 -0.6371
 6960TIP3    H242296   2.299   5.594  13.674 -1.1150 -0.1477  0.1628
 6961TIP3   OH242297   4.259   5.636  15.605  0.0723  0.1798 -0.0073
 6961TIP3    H142298   4.328   5.692  15.642 -1.0313  0.4530  1.7071
 6961TIP3    H242299   4.275   5.638  15.511 -0.0577  3.6093 -0.0272
 6962TIP3   OH242300   4.845   4.334   1.915 -0.2334 -0.0996 -0.2778
 6962TIP3    H142301   4.938   4.354   1.898  0.0340  0.3305  1.5305
 6962TIP3    H242302   4.823   4.390   1.990 -1.8052 -0.6321 -0.3366
 6963TIP3   OH242303   4.369   0.344   1.324 -0.0155 -0.1931  0.3921
 6963TIP3    H142304   4.435   0.365   1.258 -0.3855  0.5217  0.2435
 6963TIP3    H242305   4.406   0.376   1.406  0.1439 -0.4695  0.4318
 6964TIP3   OH242306   0.964   2.667  11.236  0.1238  0.9071  0.3295
 6964TIP3    H142307   1.020   2.714  11.175 -0.2847  0.0983 -0.6782
 6964TIP3    H242308   0.887   2.643  11.185 -0.7048  1.1491  1.4448
 6965TIP3   OH242309   0.975   6.772  16.635  0.1132  0.5284  0.7396
 6965TIP3    H142310   0.917   6.841  16.603 -0.0313 -0.0464 -0.2529
 6965TIP3    H242311   0.961   6.771  16.730  0.0744  1.8136  0.7499
 6966TIP3   OH242312   0.876   5.989   4.801 -0.9783 -0.1962  0.4976
 6966TIP3    H142313   0.826   5.912   4.829 -1.2346  0.6444  2.4581
 6966TIP3    H242314   0.915   6.022   4.882  0.9084  0.4813 -0.6567
 6967TIP3   OH242315   3.933   0.504  14.572 -0.0526 -0.0588 -0.4145
 6967TIP3    H142316   4.000   0.519  14.638 -0.5906 -1.8722  0.5705
 6967TIP3    H242317   3.852   0.495  14.622 -0.9063  1.2641 -1.5314
 6968TIP3   OH242318   5.226   3.634   2.772 -0.2627 -0.4960 -0.2091
 6968TIP3    H142319   5.215   3.618   2.866 -0.6138 -1.3468 -0.3879
 6968TIP3    H242320   5.313   3.672   2.764  0.7797 -2.7042  0.2294
 6969TIP3   OH242321   3.002   1.204   5.093  0.7885 -0.2764 -0.2068
 6969TIP3    H142322   2.935   1.273   5.089  0.6952 -0.3306  0.2842
 6969TIP3    H242323   3.060   1.222   5.020  0.8448  0.4076  0.0034
 6970TIP3   OH242324   1.665   3.920  11.735 -0.5277 -0.0509  0.6703
 6970TIP3    H142325   1.663   3.941  11.829 -1.9380  0.8208  0.4587
 6970TIP3    H242326   1.649   4.003  11.691 -0.0777 -0.4943 -0.3478
 6971TIP3   OH242327   0.309   6.652   0.706 -0.2730 -0.5524  0.4215
 6971TIP3    H142328   0.371   6.719   0.734  0.8599 -1.5704  0.4199
 6971TIP3    H242329   0.224   6.695   0.708  0.5786  1.2721 -0.8829
 6972TIP3   OH242330   3.868   3.060   4.737 -0.5464 -0.0648 -0.7434
 6972TIP3    H142331   3.900   2.971   4.752  1.2359  0.8778  1.3396
 6972TIP3    H242332   3.773   3.054   4.753 -0.2646 -1.3369  0.6158
 6973TIP3   OH242333   0.257   1.539  11.178 -0.2951 -0.0761 -0.2823
 6973TIP3    H142334   0.319   1.548  11.106  0.4995  3.9595  0.7933
 6973TIP3    H242335   0.181   1.591  11.152 -1.5526 -1.5986  0.2265
 6974TIP3   OH242336   5.663   5.347  13.317  0.5786  0.1077  0.2088
 6974TIP3    H142337   5.618   5.386  13.243 -0.5207 -1.6199 -0.0512
 6974TIP3    H242338   5.748   5.320  13.282  0.5044  0.3167 -0.1287
 6975TIP3   OH242339   1.222   5.571  13.795  0.0579  0.1465  0.3107
 6975TIP3    H142340   1.261   5.641  13.742 -1.2272  0.8014  0.2075
 6975TIP3    H242341   1.161   5.617  13.853 -1.8650 -1.0505 -0.7555
 6976TIP3   OH242342   5.582   5.166  11.002 -0.0322  0.5523  0.2292
 6976TIP3    H142343   5.535   5.238  10.958  0.0651 -0.1667 -1.0955
 6976TIP3    H242344   5.512   5.113  11.041 -0.1720  0.8126  0.3329
 6977TIP3   OH242345   0.894   3.833   3.538 -0.6769  0.6218 -0.1799
 6977TIP3    H142346   0.835   3.811   3.610 -0.2237  1.1418  0.3516
 6977TIP3    H242347   0.887   3.759   3.478  1.1515 -1.1671  1.7724
 6978TIP3   OH242348   1.617   1.521  11.523  0.0263  0.7710 -0.4267
 6978TIP3    H142349   1.707   1.522  11.557  0.5516  3.8156 -1.7435
 6978TIP3    H242350   1.617   1.451  11.458  0.3411 -1.8018  2.2092
 6979TIP3   OH242351   6.437   6.158  15.990  0.2154 -0.5869 -0.1573
 6979TIP3    H142352   6.406   6.233  15.939  1.8533  0.6066  0.5477
 6979TIP3    H242353   6.503   6.117  15.934 -0.5527 -1.4119 -0.4671
 6980TIP3   OH242354   2.239   0.638  11.196 -0.5075 -0.8920  0.4207
 6980TIP3    H142355   2.297   0.565  11.178  0.1705 -0.9567  2.7418
 6980TIP3    H242356   2.159   0.599  11.232  0.3531 -0.4532  2.8907
 6981TIP3   OH242357   5.971   2.421   1.587 -0.4005  0.2405 -0.3779
 6981TIP3    H142358   6.009   2.491   1.639  1.4258 -0.9776  0.0006
 6981TIP3    H242359   6.045   2.386   1.536 -1.8536  0.4687 -2.7220
 6982TIP3   OH242360   3.417   4.680  13.756  0.2698 -0.5113  0.2525
 6982TIP3    H142361   3.342   4.738  13.746  0.5038 -0.1810  0.4001
 6982TIP3    H242362   3.492   4.734  13.728  0.3570 -1.0806 -0.6317
 6983TIP3   OH242363   2.890   6.607   1.680  0.3859  0.3129  0.1079
 6983TIP3    H142364   2.852   6.608   1.592  0.4969  1.7008  0.0553
 6983TIP3    H242365   2.930   6.694   1.689  1.1985 -0.1606  1.1704
 6984TIP3   OH242366   4.202   4.190   3.257 -0.1479 -1.0884 -0.5309
 6984TIP3    H142367   4.182   4.099   3.236 -1.3524 -0.9731  0.0719
 6984TIP3    H242368   4.165   4.203   3.344  1.0682 -0.3525 -0.1123
 6985TIP3   OH242369   0.947   3.227   6.512  0.3860  0.6082 -0.1150
 6985TIP3    H142370   0.978   3.269   6.593  0.6320 -0.2186  0.2221
 6985TIP3    H242371   1.010   3.157   6.495 -1.5865 -1.5028  0.9244
 6986TIP3   OH242372   1.898   3.291   1.427 -0.4816  0.4849 -0.1076
 6986TIP3    H142373   1.824   3.315   1.483  0.1367 -0.1378  0.9983
 6986TIP3    H242374   1.969   3.347   1.456 -1.2098  3.0517 -3.0180
 6987TIP3   OH242375   3.505   5.168   1.301  0.5989 -0.3344  0.0448
 6987TIP3    H142376   3.576   5.104   1.295 -0.4705 -1.4634 -0.6590
 6987TIP3    H242377   3.486   5.174   1.394  0.6268 -1.1290  0.1023
 6988TIP3   OH242378   1.100   4.710   4.900 -0.1927  0.4130  0.0125
 6988TIP3    H142379   1.148   4.737   4.821 -0.6273 -0.8879 -0.7273
 6988TIP3    H242380   1.158   4.733   4.972  0.5582  0.9146 -0.7360
 6989TIP3   OH242381   0.831   1.118   3.979 -0.3301 -0.2157 -0.7188
 6989TIP3    H142382   0.795   1.066   4.051  1.4031 -2.4036 -1.3841
 6989TIP3    H242383   0.912   1.154   4.014  0.4252 -1.1363 -1.4887
 6990TIP3   OH242384   3.354   2.268   0.401  0.1333 -0.1783 -0.2092
 6990TIP3    H142385   3.292   2.231   0.464 -0.1822  1.2244  0.3263
 6990TIP3    H242386   3.351   2.209   0.326 -2.6358  0.4194 -0.6295
 6991TIP3   OH242387   4.104   0.174   0.794 -0.4570 -0.1671 -0.5517
 6991TIP3    H142388   4.081   0.151   0.884  0.7213  2.7285  0.5574
 6991TIP3    H242389   4.026   0.217   0.759  0.3034  2.0871  0.4003
 6992TIP3   OH242390   1.880   2.348   3.525 -0.5583  0.5941  0.0620
 6992TIP3    H142391   1.944   2.297   3.574 -1.7978 -0.6813  0.3797
 6992TIP3    H242392   1.807   2.287   3.509 -1.1704  1.6624 -1.3383
 6993TIP3   OH242393   6.119   1.034  11.359  0.0265 -0.1266  0.3293
 6993TIP3    H142394   6.109   1.036  11.454  0.6945 -0.2250  0.3989
 6993TIP3    H242395   6.175   0.959  11.341  0.4520  0.2896 -0.0942
 6994TIP3   OH242396   1.218   3.384  14.204 -0.0464  0.5682 -0.5881
 6994TIP3    H142397   1.284   3.349  14.263 -1.0126  0.3878  0.3891
 6994TIP3    H242398   1.266   3.444  14.147  1.1913 -0.5612 -0.7436
 6995TIP3   OH242399   2.294   6.153  11.244  0.3377 -0.2235  0.4217
 6995TIP3    H142400   2.361   6.176  11.180 -0.7578  1.0613 -0.2883
 6995TIP3    H242401   2.281   6.232  11.296 -1.7990  0.0704 -0.5148
 6996TIP3   OH242402   4.914   1.257  17.156  0.4406 -0.2260 -0.2043
 6996TIP3    H142403   4.861   1.318  17.206  1.2807 -0.0287  0.4417
 6996TIP3    H242404   4.859   1.178  17.149 -0.2585  0.2579 -0.2403
 6997TIP3   OH242405   0.916   0.276  12.130  0.0125 -0.3909 -0.2177
 6997TIP3    H142406   0.935   0.257  12.221  1.5468  0.4417 -0.3561
 6997TIP3    H242407   0.925   0.191  12.085 -2.8904 -1.2567  0.7024
 6998TIP3   OH242408   2.780   4.685   3.157 -0.1508  0.0020  0.2184
 6998TIP3    H142409   2.805   4.606   3.207  1.7216 -0.2892 -1.1161
 6998TIP3    H242410   2.821   4.757   3.205  0.0877 -0.0863  0.1491
 6999TIP3   OH242411   5.782   0.441  12.955 -0.2667 -0.2675 -0.5757
 6999TIP3    H142412   5.839   0.512  12.924 -0.9537  0.4888 -0.1346
 6999TIP3    H242413   5.788   0.374  12.887  4.2521 -1.9712  1.2907
 7000TIP3   OH242414   4.005   6.344  12.872  0.1037 -0.4642  0.9492
 7000TIP3    H142415   3.974   6.402  12.941  1.0276  0.6559  0.4369
 7000TIP3    H242416   3.930   6.335  12.813  0.0568  0.4853  0.8570
 7001TIP3   OH242417   1.684   0.876   3.468  0.0450  0.2621 -0.0456
 7001TIP3    H142418   1.746   0.892   3.540  0.9428 -1.8250 -0.3040
 7001TIP3    H242419   1.738   0.839   3.398 -0.3702  4.4569 -2.7646
 7002TIP3   OH242420   5.914   1.745   2.180  0.4025  0.4072 -0.5100
 7002TIP3    H142421   5.866   1.668   2.212  1.3954 -0.3748 -0.8914
 7002TIP3    H242422   5.852   1.817   2.191 -1.6533 -0.9141 -2.9363
 7003TIP3   OH242423   6.610   4.678  12.380  0.0429 -0.5093 -0.6126
 7003TIP3    H142424   6.590   4.664  12.473  1.3488  0.9353 -0.0772
 7003TIP3    H242425   6.536   4.640  12.333 -0.7174 -1.1124  1.0284
 7004TIP3   OH242426   0.407   0.924   1.255  0.1391  0.2605 -0.6476
 7004TIP3    H142427   0.487   0.919   1.202 -0.2804 -0.2322 -1.2490
 7004TIP3    H242428   0.407   1.013   1.290  1.5940 -0.1225  0.3812
 7005TIP3   OH242429   0.723   1.435  17.177 -0.9326  0.7918  0.2089
 7005TIP3    H142430   0.691   1.389  17.099  0.7389 -1.2475  0.6785
 7005TIP3    H242431   0.816   1.413  17.181 -1.1453  0.3495  3.1398
 7006TIP3   OH242432   3.625   4.738   1.617 -0.0283  0.4908 -0.1364
 7006TIP3    H142433   3.631   4.694   1.532  0.5275  0.6029 -0.1610
 7006TIP3    H242434   3.676   4.818   1.606  2.5194 -0.8733  1.1423
 7007TIP3   OH242435   5.339   2.740   2.918  0.0686 -0.1573  0.0399
 7007TIP3    H142436   5.314   2.830   2.938  1.2582  0.0584  0.6279
 7007TIP3    H242437   5.272   2.686   2.960 -0.8896  0.4576 -0.6927
 7008TIP3   OH242438   3.083   1.851   1.066  0.7883 -0.3133  1.0111
 7008TIP3    H142439   3.046   1.763   1.059 -1.1050  0.4070  1.6281
 7008TIP3    H242440   3.046   1.886   1.147 -0.1207  1.8156 -0.2853
 7009TIP3   OH242441   4.613   3.018  14.310  0.2727 -0.4412 -0.1650
 7009TIP3    H142442   4.585   3.035  14.220  2.0085  0.4414 -0.5604
 7009TIP3    H242443   4.545   3.056  14.364  0.0250  0.4681 -1.1029
 7010TIP3   OH242444   4.146   2.685  12.847 -0.4609  0.2928  0.3796
 7010TIP3    H142445   4.094   2.642  12.779 -0.7006  2.2842 -0.7569
 7010TIP3    H242446   4.100   2.666  12.929 -1.5762 -0.0753 -0.3154
 7011TIP3   OH242447   4.691   5.841  12.851  0.1762  0.3024  0.4154
 7011TIP3    H142448   4.609   5.881  12.882 -0.1711  3.3376 -3.9370
 7011TIP3    H242449   4.662   5.774  12.789  0.9654 -2.7548  3.1937
 7012TIP3   OH242450   1.971   5.594   4.660  0.0507 -0.4225 -0.1478
 7012TIP3    H142451   1.920   5.638   4.592 -1.6090 -0.5846  0.9568
 7012TIP3    H242452   1.929   5.508   4.668  0.2201 -0.3969  1.0823
 7013TIP3   OH242453   0.184   6.121   0.360  1.0030 -0.4875 -0.1047
 7013TIP3    H142454   0.243   6.172   0.305  1.3847  0.1074  0.8393
 7013TIP3    H242455   0.097   6.157   0.343  1.3084  0.6796  0.7821
 7014TIP3   OH242456   0.139   6.531  13.289  0.5960  0.0131  0.4832
 7014TIP3    H142457   0.089   6.461  13.329 -0.1317 -0.4822 -1.2399
 7014TIP3    H242458   0.200   6.486  13.230  1.2784  0.7490  0.6170
 7015TIP3   OH242459   5.586   3.359  11.913 -0.1819  0.0120 -0.4782
 7015TIP3    H142460   5.596   3.290  11.980 -0.0636 -0.1745 -0.6852
 7015TIP3    H242461   5.549   3.313  11.838  1.3906 -0.1766 -1.1752
 7016TIP3   OH242462   5.769   4.913  13.920 -0.3288 -0.0563  0.1955
 7016TIP3    H142463   5.703   4.944  13.858  0.8383  0.4446 -0.8168
 7016TIP3    H242464   5.805   4.993  13.957 -0.5069 -0.3400  0.9875
 7017TIP3   OH242465   1.103   2.898   1.371 -0.1623 -0.3186 -0.0266
 7017TIP3    H142466   1.169   2.916   1.438 -0.6683 -0.8185  0.6096
 7017TIP3    H242467   1.051   2.978   1.368  1.3372  0.6475 -1.5658
 7018TIP3   OH242468   6.689   4.935  14.814 -0.2644 -0.1296 -0.1532
 7018TIP3    H142469   6.724   4.855  14.854  2.4429  1.0201 -0.1535
 7018TIP3    H242470   6.615   4.959  14.870  0.4013 -1.2840  1.2484
 7019TIP3   OH242471   0.191   2.305   4.371 -0.2004  0.0528  0.2473
 7019TIP3    H142472   0.100   2.288   4.346 -0.0329 -0.8818  0.2780
 7019TIP3    H242473   0.194   2.400   4.385 -1.2259  0.0647  0.4555
 7020TIP3   OH242474   5.384   0.246  15.405 -0.3524  0.3814 -0.0530
 7020TIP3    H142475   5.379   0.162  15.359  1.3910 -0.1474  0.6687
 7020TIP3    H242476   5.336   0.233  15.486 -0.7817  0.3427 -0.3123
 7021TIP3   OH242477   4.347   4.065  14.529 -0.2132  0.1144 -0.1324
 7021TIP3    H142478   4.320   4.086  14.440  1.9286 -0.0960 -0.8470
 7021TIP3    H242479   4.431   4.109  14.541 -0.8750  0.8619  2.0922
 7022TIP3   OH242480   0.103   1.496   5.012 -0.1808  0.5000 -0.1208
 7022TIP3    H142481   0.012   1.520   5.029 -0.2631  0.4683 -0.5103
 7022TIP3    H242482   0.126   1.545   4.933 -0.6010 -1.3054 -1.3906
 7023TIP3   OH242483   5.274   4.293  12.927 -0.4837 -0.0946 -0.0967
 7023TIP3    H142484   5.268   4.224  12.861 -1.2823 -0.7150  0.6184
 7023TIP3    H242485   5.351   4.343  12.902 -1.8828  0.8783 -2.6596
 7024TIP3   OH242486   3.562   6.079  13.666 -0.1029 -0.2854 -0.1748
 7024TIP3    H142487   3.619   6.015  13.708  1.5632  2.8833  2.6762
 7024TIP3    H242488   3.601   6.092  13.579  0.6674 -1.6486 -0.0512
 7025TIP3   OH242489   4.253   0.416   4.201  0.0443 -0.4055  0.3230
 7025TIP3    H142490   4.226   0.325   4.209 -2.7928  0.4055  0.6897
 7025TIP3    H242491   4.226   0.441   4.112  1.7011 -0.1845 -0.1302
 7026TIP3   OH242492   3.850   0.437   5.249 -0.4266 -0.6805 -0.1958
 7026TIP3    H142493   3.768   0.407   5.211 -0.1543 -1.8330  0.1178
 7026TIP3    H242494   3.892   0.488   5.180 -0.5379 -1.6667 -0.9949
 7027TIP3   OH242495   0.068   5.281  13.585 -0.2433  0.6637 -0.5170
 7027TIP3    H142496  -0.017   5.251  13.553  0.3074  0.7557 -2.0926
 7027TIP3    H242497   0.131   5.220  13.548  0.2708 -0.2526  1.8112
 7028TIP3   OH242498   4.855   1.268  15.746 -0.3245  0.6444  0.2247
 7028TIP3    H142499   4.769   1.270  15.705  0.4376 -1.4305 -1.5380
 7028TIP3    H242500   4.903   1.338  15.703  0.1080 -0.7850 -1.6680
 7029TIP3   OH242501   3.439   4.226  15.656 -0.1126 -0.3671  0.1593
 7029TIP3    H142502   3.501   4.154  15.649 -0.0386 -0.4623  1.5937
 7029TIP3    H242503   3.394   4.227  15.572  2.3534  0.2056 -1.2110
 7030TIP3   OH242504   5.697   6.190  13.058 -0.1349 -0.0803 -0.3325
 7030TIP3    H142505   5.710   6.134  13.135  1.6271 -1.6272 -1.7315
 7030TIP3    H242506   5.779   6.239  13.050 -0.0797 -0.3737 -1.5814
 7031TIP3   OH242507   2.167   1.551   4.089 -0.1069  0.4242 -0.2605
 7031TIP3    H142508   2.180   1.464   4.051  1.0828  0.0337  0.9937
 7031TIP3    H242509   2.090   1.541   4.145  0.4023 -0.0012  0.3753
 7032TIP3   OH242510   3.702   6.644  11.718  0.4598 -0.1680 -0.2805
 7032TIP3    H142511   3.779   6.700  11.726  1.3956 -1.1307 -2.1078
 7032TIP3    H242512   3.688   6.638  11.623 -1.1880 -0.9213  0.0007
 7033TIP3   OH242513   4.283   1.410   2.040 -0.2659 -0.7554  0.4094
 7033TIP3    H142514   4.297   1.388   2.133  0.7581  0.3854  0.5400
 7033TIP3    H242515   4.328   1.341   1.992  0.4935 -0.5203  0.7797
 7034TIP3   OH242516   4.598   2.875  14.612 -0.2742  0.5223 -0.0743
 7034TIP3    H142517   4.677   2.896  14.562  0.5084  2.4199  1.8937
 7034TIP3    H242518   4.609   2.783  14.636  0.4006  0.2279 -1.4351
 7035TIP3   OH242519   2.038   5.358   1.887 -0.2292  0.0059 -0.1175
 7035TIP3    H142520   2.115   5.311   1.856 -0.4627 -0.4399 -0.0277
 7035TIP3    H242521   2.066   5.398   1.970 -1.4985 -4.2265  2.5067
 7036TIP3   OH242522   6.374   3.509  14.452 -0.0801 -0.0216  0.6028
 7036TIP3    H142523   6.407   3.467  14.531 -1.0879  0.9892  1.5755
 7036TIP3    H242524   6.448   3.560  14.419  0.6549 -1.2791  0.3012
 7037TIP3   OH242525   2.805   4.313  16.655 -0.1254  0.0818 -0.2827
 7037TIP3    H142526   2.790   4.329  16.562  1.0219  1.7144 -0.1945
 7037TIP3    H242527   2.835   4.397  16.690 -1.5994 -0.2168  1.7952
 7038TIP3   OH242528   3.611   5.541  11.713 -0.3924 -0.2906 -0.6491
 7038TIP3    H142529   3.594   5.612  11.775 -0.7736 -0.3727 -0.6601
 7038TIP3    H242530   3.692   5.566  11.669 -0.8637  0.4544 -1.1063
 7039TIP3   OH242531   3.455   2.380  14.633 -0.1215 -0.1741  0.0133
 7039TIP3    H142532   3.508   2.383  14.554  0.2765  0.8294  0.3161
 7039TIP3    H242533   3.452   2.286  14.655 -1.6894 -0.6587 -2.1364
 7040TIP3   OH242534   5.309   0.242   1.456 -0.4093  0.8698  0.2056
 7040TIP3    H142535   5.327   0.148   1.458 -0.0953  0.9507  1.2636
 7040TIP3    H242536   5.359   0.274   1.381  0.8539  0.4708  0.8594
 7041TIP3   OH242537   3.829   2.359   6.170  0.0146  0.1025 -0.0509
 7041TIP3    H142538   3.912   2.330   6.134  0.8764 -0.2925  2.1353
 7041TIP3    H242539   3.784   2.279   6.196  0.1558  0.4263  1.2594
 7042TIP3   OH242540   5.586   6.355  10.413  0.2469  0.5212  0.1516
 7042TIP3    H142541   5.585   6.260  10.414 -1.1766  0.5262 -0.2699
 7042TIP3    H242542   5.548   6.380  10.497  0.5495  0.7312  0.2294
 7043TIP3   OH242543   5.400   0.909   1.276 -0.5393  0.4702 -0.2612
 7043TIP3    H142544   5.365   0.865   1.353 -0.7592  0.3173 -0.4452
 7043TIP3    H242545   5.329   0.904   1.212 -0.6460  1.2809 -0.2112
 7044TIP3   OH242546   1.440   2.701   3.885 -0.0256  0.3043  0.8215
 7044TIP3    H142547   1.470   2.632   3.826 -0.3265  1.0945 -0.2633
 7044TIP3    H242548   1.432   2.658   3.970 -1.3915 -1.3027 -0.0919
 7045TIP3   OH242549   5.780   4.346   4.682  0.1806  0.0983  0.5622
 7045TIP3    H142550   5.823   4.317   4.601  0.8065  1.2539  0.4709
 7045TIP3    H242551   5.701   4.390   4.653 -0.0688 -0.3067  0.6274
 7046TIP3   OH242552   3.517   6.519   1.783  0.0061 -0.0901  0.2669
 7046TIP3    H142553   3.553   6.441   1.826  2.1681  1.1102  0.7185
 7046TIP3    H242554   3.440   6.542   1.835  1.7198  0.4453  2.6558
 7047TIP3   OH242555   0.438   2.181  14.075 -0.2522 -0.1640  0.4047
 7047TIP3    H142556   0.405   2.268  14.098  0.8489  0.2117  0.5965
 7047TIP3    H242557   0.460   2.140  14.158  0.6043 -0.0723  0.2237
 7048TIP3   OH242558   3.522   1.788  14.793  0.5507  0.4691  0.3546
 7048TIP3    H142559   3.499   1.713  14.848  0.2780  0.0636 -0.3134
 7048TIP3    H242560   3.566   1.849  14.853 -0.3650  0.3333  1.1663
 7049TIP3   OH242561   1.045   1.864   0.577 -0.0100  0.1143  0.0277
 7049TIP3    H142562   0.957   1.825   0.579 -0.6432  1.6210  2.6916
 7049TIP3    H242563   1.090   1.826   0.652  1.0880  0.5982 -0.3745
 7050TIP3   OH242564   3.991   4.283  13.939 -0.1077  0.2617 -0.6468
 7050TIP3    H142565   3.969   4.318  13.853 -0.0831  0.5409 -0.5382
 7050TIP3    H242566   3.914   4.301  13.993  0.1990  0.8285 -0.3904
 7051TIP3   OH242567   1.188   5.539  16.339 -0.5000 -0.7085 -0.0804
 7051TIP3    H142568   1.239   5.603  16.389 -1.1582 -0.6727  0.5423
 7051TIP3    H242569   1.100   5.576  16.334 -0.7757 -1.3513 -0.0949
 7052TIP3   OH242570   4.955   6.512  12.689  0.2672  0.1805 -0.0524
 7052TIP3    H142571   4.958   6.513  12.785 -0.5391 -1.5261  0.0110
 7052TIP3    H242572   4.868   6.477  12.668  0.3815  0.6780 -1.4083
 7053TIP3   OH242573   5.644   2.272  14.241  0.3977  0.0319 -0.0461
 7053TIP3    H142574   5.654   2.316  14.326 -0.6191 -0.2912  0.2478
 7053TIP3    H242575   5.640   2.179  14.262  2.7728 -0.2407 -0.6920
 7054TIP3   OH242576   6.312   6.143  14.832 -0.2983 -0.2398  0.6601
 7054TIP3    H142577   6.344   6.067  14.880  1.0162 -0.1627 -0.0587
 7054TIP3    H242578   6.351   6.218  14.877  2.1465 -0.2326 -1.3472
 7055TIP3   OH242579   1.405   5.630   3.872 -0.1615  0.6732  0.6501
 7055TIP3    H142580   1.402   5.537   3.897 -1.6403  0.6748  0.5306
 7055TIP3    H242581   1.412   5.676   3.955  1.8895  0.4147  0.6371
 7056TIP3   OH242582   1.673   5.222  14.940  0.1015 -0.5664 -0.0635
 7056TIP3    H142583   1.589   5.232  14.895  0.1670 -1.4988 -0.3955
 7056TIP3    H242584   1.694   5.310  14.971 -0.0949  0.0245 -1.5798
 7057TIP3   OH242585   6.265   0.365  13.208  0.1082 -0.6039 -0.1243
 7057TIP3    H142586   6.330   0.385  13.275  0.5548 -0.7682 -0.5066
 7057TIP3    H242587   6.274   0.436  13.144 -0.9336  0.0452  0.4278
 7058TIP3   OH242588   6.157   4.756  15.309 -0.0429  0.1190 -0.0488
 7058TIP3    H142589   6.181   4.709  15.229 -1.4974  1.9236 -1.5858
 7058TIP3    H242590   6.062   4.758  15.308 -0.0931 -0.2134  1.9948
 7059TIP3   OH242591   2.390   2.288  13.307 -0.3447  0.6480  0.4278
 7059TIP3    H142592   2.373   2.366  13.254  1.0885 -0.2325 -1.3895
 7059TIP3    H242593   2.449   2.318  13.376  0.0968  1.2182 -0.1931
 7060TIP3   OH242594   5.668   6.072  11.614 -0.0536  0.9272 -0.8810
 7060TIP3    H142595   5.727   5.997  11.602  0.6713  1.4141 -0.4134
 7060TIP3    H242596   5.605   6.043  11.679  2.8996  2.2172  2.7505
 7061TIP3   OH242597   6.133   1.193  14.618  0.1138  0.7264 -0.2467
 7061TIP3    H142598   6.217   1.192  14.572  1.4408  2.0518  2.0529
 7061TIP3    H242599   6.147   1.136  14.694 -1.5934 -0.3135 -0.6914
 7062TIP3   OH242600   6.606   5.835   4.947  0.1709  0.9229 -0.0042
 7062TIP3    H142601   6.572   5.896   4.881  2.9784  2.3666 -0.2041
 7062TIP3    H242602   6.572   5.867   5.030 -0.6774  1.0667 -0.4008
 7063TIP3   OH242603   1.019   5.381   5.890 -0.4468 -0.1232  0.1017
 7063TIP3    H142604   1.024   5.468   5.930 -2.5457  0.4036 -0.7081
 7063TIP3    H242605   0.950   5.389   5.824 -1.4689 -2.7055  0.7948
 7064TIP3   OH242606   0.635   2.983   3.594  0.5247 -0.1109  0.1812
 7064TIP3    H142607   0.697   3.042   3.637  1.3279 -1.7783  1.3657
 7064TIP3    H242608   0.565   2.971   3.658  0.4685 -0.6105  0.0248
 7065TIP3   OH242609   1.175   2.729   6.171  0.1792 -1.2575  0.4198
 7065TIP3    H142610   1.186   2.775   6.088 -1.1067  1.4221  1.6592
 7065TIP3    H242611   1.108   2.663   6.153 -1.0259  0.1542 -0.3945
 7066TIP3   OH242612   5.566   0.414   1.101  0.5485 -0.0907 -0.3539
 7066TIP3    H142613   5.489   0.435   1.153 -0.2234 -0.0834 -1.4772
 7066TIP3    H242614   5.635   0.398   1.165 -0.5177 -0.5935  0.6802
 7067TIP3   OH242615   2.042   0.468   5.418 -0.2677 -0.1053  0.3922
 7067TIP3    H142616   2.100   0.397   5.442  0.7563  0.3580 -0.6717
 7067TIP3    H242617   2.085   0.512   5.344 -0.8496  1.6387  1.0458
 7068TIP3   OH242618   4.476   6.586   1.278 -0.1316 -0.5026 -0.5051
 7068TIP3    H142619   4.526   6.505   1.286 -0.5283 -0.9424 -2.2112
 7068TIP3    H242620   4.415   6.584   1.352  1.2299 -0.7784  0.6136
 7069TIP3   OH242621   3.422   1.483   3.976  0.3634  0.0633  0.0636
 7069TIP3    H142622   3.388   1.491   4.065 -0.5357 -1.1962 -0.1447
 7069TIP3    H242623   3.470   1.400   3.976  1.7038  0.8376 -0.2017
 7070TIP3   OH242624   5.570   4.797   6.118 -1.2096 -0.1976  0.5012
 7070TIP3    H142625   5.660   4.816   6.092 -0.0776 -1.3319  3.3012
 7070TIP3    H242626   5.527   4.883   6.123 -0.5796  0.2794 -1.7149
 7071TIP3   OH242627   4.089   5.270   3.215  0.6331 -0.0603  0.8516
 7071TIP3    H142628   4.023   5.218   3.261  0.5093 -1.5384 -0.9267
 7071TIP3    H242629   4.042   5.347   3.183 -0.0704 -0.7083  0.3008
 7072TIP3   OH242630   5.364   5.752  10.944 -0.0777  0.2915 -0.0480
 7072TIP3    H142631   5.403   5.716  11.024  0.1180 -1.0459 -0.7195
 7072TIP3    H242632   5.399   5.841  10.939 -0.2473  0.4617  1.4479
 7073TIP3   OH242633   2.863   6.081  12.609 -0.0282  0.4617  0.2384
 7073TIP3    H142634   2.933   6.092  12.674 -0.7025 -1.1059  1.2728
 7073TIP3    H242635   2.782   6.089  12.659 -0.5586 -0.3901 -0.4644
 7074TIP3   OH242636   2.649   2.658  16.508  0.8457 -0.1259 -0.2527
 7074TIP3    H142637   2.649   2.568  16.475  0.7261 -0.0719 -0.3976
 7074TIP3    H242638   2.585   2.704  16.453  0.3624 -0.1264  0.3053
 7075TIP3   OH242639   3.664   2.255   2.763  0.1894  0.3985 -0.1659
 7075TIP3    H142640   3.635   2.178   2.813  0.1309 -0.1692 -1.0586
 7075TIP3    H242641   3.751   2.275   2.798  0.3777 -0.3277 -0.2080
 7076TIP3   OH242642   4.908   1.177  13.408  0.1366  0.1234 -0.1076
 7076TIP3    H142643   4.986   1.172  13.463  0.7007 -0.1364 -0.9222
 7076TIP3    H242644   4.937   1.221  13.328 -0.5173 -0.0856 -0.4690
 7077TIP3   OH242645   4.747   5.634  11.365  0.1370 -0.6527  0.7426
 7077TIP3    H142646   4.696   5.697  11.314  1.1760  1.2531  1.9805
 7077TIP3    H242647   4.838   5.655  11.347  0.5356 -3.2407 -0.4943
 7078TIP3   OH242648   2.967   4.374  16.127  0.2148 -0.6751 -0.7552
 7078TIP3    H142649   3.025   4.420  16.067 -0.6222  0.0983 -0.9828
 7078TIP3    H242650   2.972   4.423  16.209  0.9538 -1.4248 -0.3460
 7079TIP3   OH242651   2.350   3.366   3.413 -0.2452  0.5394  0.2895
 7079TIP3    H142652   2.400   3.402   3.487  0.7879 -1.4201  0.5967
 7079TIP3    H242653   2.275   3.322   3.455  1.3270 -2.1827  0.3872
 7080TIP3   OH242654   5.617   2.800   0.187  0.3239 -0.2480  0.2669
 7080TIP3    H142655   5.545   2.798   0.124  1.6080 -1.4660 -1.2333
 7080TIP3    H242656   5.669   2.875   0.161  0.4208 -0.2795  0.3721
 7081TIP3   OH242657   2.176   3.128   1.438 -0.3560 -0.2568  0.0405
 7081TIP3    H142658   2.110   3.066   1.406 -1.9696  0.8239  1.1825
 7081TIP3    H242659   2.257   3.101   1.395 -1.7182 -1.0642 -2.0963
 7082TIP3   OH242660   6.784   2.704  14.680 -0.1536  0.5001 -0.3484
 7082TIP3    H142661   6.718   2.716  14.611  0.1638  0.4693 -0.6569
 7082TIP3    H242662   6.741   2.735  14.760  0.2776  2.6930 -0.9318
 7083TIP3   OH242663   4.718   2.929   0.084 -0.1458 -0.2646  0.5650
 7083TIP3    H142664   4.732   2.916  -0.010 -0.7301 -0.2756  0.4784
 7083TIP3    H242665   4.633   2.890   0.101 -1.3129  2.2265  0.5607
 7084TIP3   OH242666   5.441   0.314  16.803 -0.3961 -0.2778  0.0364
 7084TIP3    H142667   5.415   0.300  16.712 -0.7091  1.9725 -0.2548
 7084TIP3    H242668   5.518   0.371  16.797 -1.4962  1.3578  1.2337
 7085TIP3   OH242669   1.374   4.674   4.211  0.4837  0.1536 -0.3262
 7085TIP3    H142670   1.399   4.608   4.146  0.8961  1.0806 -1.1244
 7085TIP3    H242671   1.280   4.662   4.222  0.6478 -0.9237 -0.0612
 7086TIP3   OH242672   3.794   5.348  13.840 -0.0784  0.0320  0.0890
 7086TIP3    H142673   3.824   5.290  13.910 -0.6748 -0.1729  0.1800
 7086TIP3    H242674   3.803   5.296  13.760  1.8780  0.7259 -0.1749
 7087TIP3   OH242675   2.746   2.027   1.391  0.5512 -0.0316  0.2496
 7087TIP3    H142676   2.754   2.122   1.382  1.0095 -0.0691  0.2435
 7087TIP3    H242677   2.832   1.994   1.366  0.6768 -0.3882  1.1493
 7088TIP3   OH242678   1.509   2.500   0.514  0.4126  0.3336 -0.1066
 7088TIP3    H142679   1.440   2.494   0.449 -1.0308  1.8981  1.2379
 7088TIP3    H242680   1.530   2.409   0.536  0.2563 -0.1872 -2.0358
 7089TIP3   OH242681   4.387   0.872  15.465  0.6339 -0.4000 -0.3181
 7089TIP3    H142682   4.301   0.878  15.425  0.2295 -0.7711  0.4734
 7089TIP3    H242683   4.409   0.779  15.461 -0.4247 -0.8139  2.3464
 7090TIP3   OH242684   2.403   6.074  11.810  0.1374 -0.0201  0.3246
 7090TIP3    H142685   2.404   6.097  11.902 -0.5421 -0.7411  0.5245
 7090TIP3    H242686   2.313   6.045  11.793  0.9584 -2.6797  0.1630
 7091TIP3   OH242687   5.124   2.691   6.620 -0.3382 -0.1112  0.2920
 7091TIP3    H142688   5.213   2.686   6.584 -1.0184  1.1770 -1.6559
 7091TIP3    H242689   5.074   2.627   6.569 -0.7321 -0.1295  0.7077
 7092TIP3   OH242690   1.146   0.297   1.540 -0.3655  0.2834 -1.0008
 7092TIP3    H142691   1.105   0.302   1.626  1.0815  1.0355 -0.3402
 7092TIP3    H242692   1.089   0.239   1.489 -0.7560 -0.8728  0.7271
 7093TIP3   OH242693   3.268   3.375  15.434  0.0816 -0.8996 -0.2051
 7093TIP3    H142694   3.220   3.455  15.414  0.1422 -0.7587  0.2095
 7093TIP3    H242695   3.219   3.335  15.506  0.7396 -0.6177  0.4041
 7094TIP3   OH242696   3.638   4.000  16.127  0.7649  0.0238  0.8176
 7094TIP3    H142697   3.653   4.085  16.168 -0.5812  1.0762 -0.8027
 7094TIP3    H242698   3.692   4.001  16.048 -1.0575  0.3436 -0.4528
 7095TIP3   OH242699   3.659   3.581  11.406 -0.1097  0.2103  0.8436
 7095TIP3    H142700   3.753   3.596  11.415 -0.4149  2.4281  0.4298
 7095TIP3    H242701   3.619   3.634  11.475 -1.0806 -0.6017  0.9197
 7096TIP3   OH242702   6.544   3.647  11.439  0.5327  0.1439 -0.4793
 7096TIP3    H142703   6.628   3.650  11.393  0.6277  2.4252 -0.2174
 7096TIP3    H242704   6.563   3.603  11.522  1.1207 -0.7116 -1.0554
 7097TIP3   OH242705   5.695   5.891   0.865  0.1190  0.2031  0.8136
 7097TIP3    H142706   5.729   5.843   0.940 -1.3108 -1.2469  0.5598
 7097TIP3    H242707   5.611   5.926   0.895  0.3937  1.1879  0.4645
 7098TIP3   OH242708   2.746   5.469  15.053  0.2195 -0.2933 -0.1958
 7098TIP3    H142709   2.837   5.441  15.052  0.2657 -0.1359 -0.6113
 7098TIP3    H242710   2.718   5.465  14.961  0.3707  1.4612 -0.3371
 7099TIP3   OH242711   4.375   4.441   6.552 -0.5433 -0.0525  0.2249
 7099TIP3    H142712   4.435   4.414   6.622  0.9605  0.7853 -0.7095
 7099TIP3    H242713   4.353   4.531   6.573 -2.3178 -0.6719  1.1177
 7100TIP3   OH242714   3.452   2.208  13.647  0.3349  0.0443  0.3521
 7100TIP3    H142715   3.497   2.187  13.565  0.5291  1.4336  0.1036
 7100TIP3    H242716   3.489   2.292  13.674 -0.0147 -0.2201  1.6596
 7101TIP3   OH242717   2.992   0.316   2.995  0.7181  0.3102 -0.0383
 7101TIP3    H142718   3.058   0.385   3.003  0.1530  1.1570 -2.1779
 7101TIP3    H242719   2.917   0.360   2.956 -0.4631 -1.0436  0.6673
 7102TIP3   OH242720   4.734   6.627   2.508  0.1052 -0.0635  0.3016
 7102TIP3    H142721   4.731   6.556   2.573  1.7974 -1.1163 -0.7163
 7102TIP3    H242722   4.647   6.628   2.469 -0.3662 -0.6362  1.3273
 7103TIP3   OH242723   4.618   3.840  15.427  0.2967  0.2892  0.5832
 7103TIP3    H142724   4.625   3.750  15.395 -1.1690 -0.4494  2.2326
 7103TIP3    H242725   4.607   3.893  15.348 -1.1796 -1.2436 -0.2741
 7104TIP3   OH242726   0.053   5.240   1.472  0.2056  0.5785  0.2879
 7104TIP3    H142727  -0.021   5.224   1.530  1.3137  0.6255  1.7385
 7104TIP3    H242728   0.013   5.251   1.385 -1.3977 -0.3251  0.8766
 7105TIP3   OH242729   0.316   4.969   5.960  0.2878 -0.6222  0.0171
 7105TIP3    H142730   0.315   4.874   5.945 -0.5885 -0.8366  1.2837
 7105TIP3    H242731   0.409   4.991   5.970  0.4918 -1.3665 -0.2205
 7106TIP3   OH242732   1.021   0.231   5.290 -0.2459  0.2650 -0.6561
 7106TIP3    H142733   0.974   0.192   5.364  1.2549 -0.4747 -0.0861
 7106TIP3    H242734   0.960   0.296   5.255 -1.6074 -0.5163  0.2187
 7107TIP3   OH242735   2.537   3.416   2.960  0.0991 -0.3654  0.4086
 7107TIP3    H142736   2.512   3.431   3.051  0.7637  1.3643  0.3174
 7107TIP3    H242737   2.624   3.455   2.952  0.2711 -0.9750 -0.8410
 7108TIP3   OH242738   0.221   5.901  14.904 -0.4079 -1.1196 -0.1529
 7108TIP3    H142739   0.137   5.857  14.912  0.2916 -2.4835 -0.1581
 7108TIP3    H242740   0.251   5.912  14.994 -2.2255  2.7015  0.1262
 7109TIP3   OH242741   5.498   3.949  12.429  0.2699  0.4350  0.1828
 7109TIP3    H142742   5.405   3.933  12.446 -0.5123  1.9881 -2.3640
 7109TIP3    H242743   5.520   4.022  12.487  0.1938 -0.5987  1.5426
 7110TIP3   OH242744   2.645   1.530   0.817 -0.0480  0.5442  0.3669
 7110TIP3    H142745   2.646   1.573   0.903  0.7130  2.6599 -0.6518
 7110TIP3    H242746   2.718   1.570   0.770  0.6182 -1.8569 -0.6873
 7111TIP3   OH242747   4.948   0.747  14.426 -0.3429 -0.1917  0.4286
 7111TIP3    H142748   4.905   0.807  14.365  0.5433  0.9547  0.9226
 7111TIP3    H242749   4.988   0.681  14.369 -0.8006  0.0186 -0.1477
 7112TIP3   OH242750   4.501   1.759   4.062  0.4861  0.1912 -0.4008
 7112TIP3    H142751   4.487   1.693   3.994  0.3265 -0.2869  0.0893
 7112TIP3    H242752   4.416   1.802   4.072  0.4014 -0.0135 -0.2239
 7113TIP3   OH242753   1.028   0.053   6.552  0.8426  0.0692 -0.5747
 7113TIP3    H142754   1.094   0.031   6.486  0.7364  0.2801 -0.7501
 7113TIP3    H242755   0.946   0.020   6.516  0.7890  0.1559 -0.5311
 7114TIP3   OH242756   1.898   0.925   2.849  1.0615  1.0906 -0.1723
 7114TIP3    H142757   1.890   0.900   2.757  1.2098  0.6971 -0.0766
 7114TIP3    H242758   1.832   0.994   2.860 -2.1379 -1.9652  0.5175
 7115TIP3   OH242759   0.986   3.664   0.556  0.0655  0.6952 -0.2526
 7115TIP3    H142760   1.011   3.641   0.645  1.2713 -0.6034 -0.9084
 7115TIP3    H242761   0.954   3.583   0.518 -1.7470  1.5438 -0.5908
 7116TIP3   OH242762   1.088   1.826   1.382  0.0565 -0.0553  0.0832
 7116TIP3    H142763   1.028   1.855   1.314 -1.1677 -1.4122  0.5550
 7116TIP3    H242764   1.079   1.892   1.451 -0.4202  0.0932 -0.1169
 7117TIP3   OH242765   2.836   2.934  16.695  0.3043 -0.5532 -0.3748
 7117TIP3    H142766   2.860   2.856  16.646 -3.4129  0.0948 -3.4375
 7117TIP3    H242767   2.770   2.904  16.758 -0.1798 -0.1050 -0.6670
 7118TIP3   OH242768   6.040   6.521  17.162 -0.0082 -0.1820  0.2039
 7118TIP3    H142769   5.971   6.471  17.118  0.8518 -0.5071 -0.8052
 7118TIP3    H242770   5.995   6.567  17.232 -1.0878 -1.1265  0.1452
 7119TIP3   OH242771   0.066   1.593   3.468 -0.2483 -0.1098  0.3790
 7119TIP3    H142772   0.131   1.545   3.417  0.4208  0.8617  0.3162
 7119TIP3    H242773  -0.004   1.613   3.405 -0.5917 -1.1092  0.4372
 7120TIP3   OH242774   5.951   5.894   5.478  0.1915  0.3779  0.5845
 7120TIP3    H142775   6.041   5.925   5.480 -0.4857  2.6137 -1.3249
 7120TIP3    H242776   5.942   5.851   5.393 -1.0316  1.8092 -0.0300
 7121TIP3   OH242777   2.902   6.063   4.847 -0.0272  0.0103  0.5034
 7121TIP3    H142778   2.873   6.047   4.758 -1.9534  1.3081  0.8696
 7121TIP3    H242779   2.997   6.051   4.844 -0.2077 -1.1106 -1.4371
 7122TIP3   OH242780   0.011   5.289   2.677  0.6198 -0.4311  0.0202
 7122TIP3    H142781   0.102   5.268   2.659  0.9365  0.0922  0.9667
 7122TIP3    H242782   0.006   5.385   2.668  0.1274 -0.4735 -0.1948
 7123TIP3   OH242783   1.315   6.780  15.021 -0.0054  0.8253  0.1836
 7123TIP3    H142784   1.331   6.863  14.976  0.3448  0.0260 -1.1924
 7123TIP3    H242785   1.348   6.794  15.110  1.1768  1.7656 -0.3855
 7124TIP3   OH242786   6.505   1.595  17.045 -0.6727  0.0962 -0.3189
 7124TIP3    H142787   6.580   1.591  17.105 -0.7429 -0.6123 -0.2733
 7124TIP3    H242788   6.492   1.504  17.018 -2.1921  0.0546  0.4972
 7125TIP3   OH242789   2.425   0.570  13.377 -0.0887 -0.2594  0.0394
 7125TIP3    H142790   2.501   0.520  13.347 -1.7869 -1.2276 -2.8300
 7125TIP3    H242791   2.449   0.661  13.361  1.2900 -0.4040  1.1652
 7126TIP3   OH242792   4.719   2.999  12.944 -0.2936 -0.2383  0.4877
 7126TIP3    H142793   4.743   2.908  12.961 -2.7789 -1.2913 -1.3390
 7126TIP3    H242794   4.704   3.036  13.032 -1.0144 -2.0934  1.1666
 7127TIP3   OH242795   0.159   5.856  13.167 -0.3539  0.5369  0.2474
 7127TIP3    H142796   0.240   5.905  13.157 -0.6860  0.9266 -0.6552
 7127TIP3    H242797   0.138   5.861  13.260  0.6074  0.5027  0.4659
 7128TIP3   OH242798   2.662   6.740   3.587 -0.2347 -0.5090 -0.6166
 7128TIP3    H142799   2.657   6.683   3.511 -0.5150 -0.8539 -0.3412
 7128TIP3    H242800   2.737   6.797   3.570 -0.2318 -0.6568 -1.0978
 7129TIP3   OH242801   5.160   6.100  14.071  0.1325  0.5824 -0.3316
 7129TIP3    H142802   5.122   6.162  14.009 -1.5868 -0.0193  0.1178
 7129TIP3    H242803   5.173   6.020  14.020  1.5105  1.0073 -0.6749
 7130TIP3   OH242804   0.954   3.022   1.786  0.1529  0.8062  0.3738
 7130TIP3    H142805   0.965   2.963   1.860 -0.0293  0.6925  0.3099
 7130TIP3    H242806   0.860   3.042   1.784 -0.3161 -1.3561 -1.4691
 7131TIP3   OH242807   0.112   3.616  15.657 -0.1469 -0.5821  0.4011
 7131TIP3    H142808   0.055   3.549  15.695  0.8528 -0.8453  1.4528
 7131TIP3    H242809   0.186   3.621  15.717 -1.1825  2.9532  1.5314
 7132TIP3   OH242810   0.659   0.941   1.144 -0.3100  0.3401 -0.7496
 7132TIP3    H142811   0.634   1.029   1.116 -2.1863 -0.8270 -2.8935
 7132TIP3    H242812   0.719   0.910   1.077  0.7649  0.1677  0.2794
 7133TIP3   OH242813   1.534   3.237   2.526 -0.3200 -0.0625 -0.7874
 7133TIP3    H142814   1.473   3.298   2.486 -1.2760 -0.8360 -0.5284
 7133TIP3    H242815   1.496   3.218   2.612 -0.5934 -1.8732 -1.3039
 7134TIP3   OH242816   0.282   3.283   3.417 -0.3485  0.0804  0.4401
 7134TIP3    H142817   0.262   3.355   3.477 -1.3533  0.6722 -0.5983
 7134TIP3    H242818   0.206   3.276   3.360  0.4896 -0.6242 -0.6284
 7135TIP3   OH242819   0.852   4.829  15.255 -0.5792 -0.1578  0.7143
 7135TIP3    H142820   0.822   4.909  15.213 -1.1334 -0.8094 -0.1329
 7135TIP3    H242821   0.802   4.825  15.337 -2.0906 -0.7066 -0.2110
 7136TIP3   OH242822   0.449   5.307  17.097  0.3679 -0.4120  0.8542
 7136TIP3    H142823   0.530   5.300  17.047  0.0182  1.5198 -0.0072
 7136TIP3    H242824   0.476   5.341  17.182  0.7758 -2.3278  1.5175
 7137TIP3   OH242825   5.507   1.989   2.739  0.1365 -0.0571  0.7485
 7137TIP3    H142826   5.426   2.036   2.754  0.1327 -0.0060  0.5690
 7137TIP3    H242827   5.507   1.971   2.645 -0.4035 -1.3930  0.9811
 7138TIP3   OH242828   3.468   2.228   0.811 -0.7886  0.2249  0.1303
 7138TIP3    H142829   3.452   2.200   0.901  0.7566 -0.8815  0.0915
 7138TIP3    H242830   3.450   2.150   0.758 -1.7959  0.8993 -0.5351
 7139TIP3   OH242831   0.720   6.181  12.854  0.0959  0.1526 -0.4130
 7139TIP3    H142832   0.672   6.200  12.935  1.8841 -1.2582  0.9968
 7139TIP3    H242833   0.696   6.091  12.833  0.2410  0.2614 -1.0569
 7140TIP3   OH242834   4.293   5.214  17.228 -0.0826  0.7414 -0.4162
 7140TIP3    H142835   4.321   5.128  17.197 -2.0087 -0.0940  0.0872
 7140TIP3    H242836   4.238   5.248  17.157 -1.0434  0.6253  0.2552
 7141TIP3   OH242837   1.994   0.745  16.237 -0.2491  0.1375  0.4376
 7141TIP3    H142838   2.002   0.698  16.154 -0.6436  0.3470  0.2788
 7141TIP3    H242839   2.081   0.782  16.252  0.1333 -0.8214  0.6758
 7142TIP3   OH242840   3.574   1.565  14.039  0.5472 -0.4543 -0.3615
 7142TIP3    H142841   3.649   1.558  14.098  0.5811  0.0928 -0.3432
 7142TIP3    H242842   3.512   1.500  14.073  1.5341 -1.8530 -1.1488
 7143TIP3   OH242843   2.540   2.405  11.500  0.2695 -1.4968  0.5181
 7143TIP3    H142844   2.543   2.384  11.406 -1.5815  2.8870 -0.6401
 7143TIP3    H242845   2.610   2.468  11.513 -1.7923  0.7149  1.2427
 7144TIP3   OH242846   1.447   4.347   1.989  0.1773  0.7583  0.0845
 7144TIP3    H142847   1.518   4.408   2.009  1.6281 -0.5090 -1.0822
 7144TIP3    H242848   1.368   4.398   2.003  1.3453  2.7248 -0.2287
 7145TIP3   OH242849   1.751   4.171   6.219 -0.1095  0.1769 -0.1048
 7145TIP3    H142850   1.717   4.099   6.166  0.3757 -1.1128  1.3285
 7145TIP3    H242851   1.682   4.237   6.216 -0.6491 -0.4246 -1.2485
 7146TIP3   OH242852   2.548   0.655   5.288 -0.7075 -0.0473 -0.5489
 7146TIP3    H142853   2.555   0.701   5.204 -3.1605  0.4046 -0.5572
 7146TIP3    H242854   2.618   0.692   5.342 -0.0057  0.6688 -1.9381
 7147TIP3   OH242855   4.573   0.014  15.684  0.4124 -0.0324 -0.3326
 7147TIP3    H142856   4.503   0.078  15.697  0.6521  0.0623  0.5196
 7147TIP3    H242857   4.624   0.048  15.610 -2.0558 -1.5271 -2.7908
 7148TIP3   OH242858   5.926   1.598  13.448 -0.1574  0.2145 -0.4044
 7148TIP3    H142859   5.866   1.602  13.374  0.0552  1.2646 -0.5244
 7148TIP3    H242860   5.875   1.557  13.518 -0.4006 -0.6398 -1.0815
 7149TIP3   OH242861   0.346   5.572   5.593  0.0267  0.1578  0.6215
 7149TIP3    H142862   0.318   5.565   5.685  1.3436  1.3027  1.1417
 7149TIP3    H242863   0.396   5.491   5.578  0.7766  0.4843  1.2821
 7150TIP3   OH242864   2.760   6.483   2.266 -0.0089 -0.0017 -0.2726
 7150TIP3    H142865   2.750   6.474   2.171  0.6081 -1.6765 -0.1850
 7150TIP3    H242866   2.814   6.562   2.278  1.7974 -1.0477 -1.3956
 7151TIP3   OH242867   5.878   2.954  16.797 -0.2011 -0.1151 -0.2193
 7151TIP3    H142868   5.824   3.005  16.857  1.8520 -0.2086  1.7599
 7151TIP3    H242869   5.931   3.020  16.751 -1.0785 -0.1156 -1.2417
 7152TIP3   OH242870   3.461   5.077   1.830  0.1472 -0.1445 -0.5559
 7152TIP3    H142871   3.452   5.130   1.750  0.0560 -0.3446 -0.6793
 7152TIP3    H242872   3.550   5.095   1.860  0.0179  0.3074 -0.4340
 7153TIP3   OH242873   6.247   1.009   1.412 -0.3355 -0.2476 -0.3406
 7153TIP3    H142874   6.154   1.017   1.393 -0.5861  1.8572  1.5914
 7153TIP3    H242875   6.251   0.958   1.493  0.3375 -2.0641 -1.4592
 7154TIP3   OH242876   4.817   5.027   2.039 -0.9852 -0.3100  0.0194
 7154TIP3    H142877   4.831   4.982   1.956 -1.1088 -1.6278  0.7129
 7154TIP3    H242878   4.722   5.022   2.054 -0.7146 -2.0733  1.3432
 7155TIP3   OH242879   2.194   5.312   4.840 -0.3470  0.1449  0.2769
 7155TIP3    H142880   2.159   5.296   4.928  1.0945  0.8025  0.9914
 7155TIP3    H242881   2.125   5.284   4.781 -2.0250  1.2630  1.6527
 7156TIP3   OH242882   3.375   3.253  11.167  0.7335  0.3994  0.0224
 7156TIP3    H142883   3.410   3.164  11.164  1.3084  0.5650  1.5674
 7156TIP3    H242884   3.368   3.279  11.075  0.4057 -1.2916 -0.4538
 7157TIP3   OH242885   1.816   6.486   5.653  0.5874 -0.1192  0.3485
 7157TIP3    H142886   1.814   6.554   5.720  0.2321  0.2259 -0.0106
 7157TIP3    H242887   1.774   6.411   5.695 -1.3172  0.6662 -0.0972
 7158TIP3   OH242888   1.852   5.907  15.603 -0.0628  0.4229  0.3983
 7158TIP3    H142889   1.811   5.961  15.535  1.3623  0.7907 -0.1835
 7158TIP3    H242890   1.938   5.948  15.617 -0.1370  0.0279  2.0376
 7159TIP3   OH242891   5.965   1.088   1.396 -0.0161  0.6518 -0.5725
 7159TIP3    H142892   5.905   1.021   1.364  0.5753  0.0674 -0.4562
 7159TIP3    H242893   5.941   1.167   1.347 -0.4760  0.2730 -0.9624
 7160TIP3   OH242894   6.054   3.034   6.172  0.4023  0.0109  0.5905
 7160TIP3    H142895   6.043   3.095   6.099 -0.9305 -0.7563  0.1357
 7160TIP3    H242896   6.074   2.950   6.130  3.6075  0.3775  1.2502
 7161TIP3   OH242897   5.514   5.748  16.123 -0.4087  0.3074  0.1454
 7161TIP3    H142898   5.610   5.749  16.116 -0.5018  1.5807 -1.2507
 7161TIP3    H242899   5.489   5.663  16.087  0.2303 -0.3928  1.3048
 7162TIP3   OH242900   3.882   3.947  15.536 -0.0978 -0.0062  0.5834
 7162TIP3    H142901   3.920   3.987  15.458  1.4463 -1.9305  0.2950
 7162TIP3    H242902   3.955   3.941  15.598 -0.9824  0.2332  1.6637
 7163TIP3   OH242903   3.642   6.215  16.086  0.0308  0.1872 -0.5594
 7163TIP3    H142904   3.629   6.202  16.180 -1.8678  0.0124 -0.8202
 7163TIP3    H242905   3.585   6.150  16.045 -0.6061  1.5241 -1.8282
 7164TIP3   OH242906   6.327   2.486  11.354  0.4409 -0.1035 -0.0797
 7164TIP3    H142907   6.386   2.415  11.381  0.1267 -0.2734  0.1655
 7164TIP3    H242908   6.240   2.457  11.384 -0.1847 -1.0347 -2.6521
 7165TIP3   OH242909   4.414   0.067  12.526  0.4984  0.3260 -0.5343
 7165TIP3    H142910   4.494   0.076  12.474  0.1195  1.6972 -0.8904
 7165TIP3    H242911   4.372   0.153  12.522 -0.0876  0.1491  1.1447
 7166TIP3   OH242912   2.739   1.463  11.678  0.0311  0.4994  0.0321
 7166TIP3    H142913   2.753   1.395  11.744 -0.3000  2.4010  2.1259
 7166TIP3    H242914   2.644   1.462  11.663  0.2365 -0.6466 -1.2106
 7167TIP3   OH242915   4.144   0.780   4.919 -0.3165  0.4320 -0.0364
 7167TIP3    H142916   4.226   0.827   4.937 -0.2098 -0.2234  1.2229
 7167TIP3    H242917   4.156   0.745   4.830  0.2277  1.4560 -0.3812
 7168TIP3   OH242918   2.718   0.776   5.488 -0.1518 -0.4705  0.1131
 7168TIP3    H142919   2.770   0.724   5.549 -0.0737 -1.3712 -0.7189
 7168TIP3    H242920   2.745   0.867   5.505  0.1139 -0.7377  1.1787
 7169TIP3   OH242921   2.688   6.503  15.664 -0.0441  0.6854 -0.2792
 7169TIP3    H142922   2.754   6.445  15.627 -1.5337 -1.9045  0.9220
 7169TIP3    H242923   2.712   6.511  15.757 -1.1251  0.0907  0.0650
 7170TIP3   OH242924   0.319   5.442   4.395 -0.3967  0.0665 -0.1181
 7170TIP3    H142925   0.265   5.520   4.389  0.7201  0.7246 -2.2658
 7170TIP3    H242926   0.352   5.441   4.485 -1.8257  1.0900  0.4218
 7171TIP3   OH242927   0.427   2.396  14.768 -0.4019  0.7670  0.0799
 7171TIP3    H142928   0.333   2.390  14.753 -0.2034  0.0537 -0.9594
 7171TIP3    H242929   0.445   2.490  14.775 -1.1592  0.9111  0.1054
 7172TIP3   OH242930   0.193   0.238  11.420  0.2174 -0.3558  0.5281
 7172TIP3    H142931   0.178   0.143  11.416  0.7059 -0.4251  0.2341
 7172TIP3    H242932   0.157   0.271  11.338 -0.5383 -0.2034  0.9247
 7173TIP3   OH242933   1.996   6.386   1.775 -0.2775  0.1932  0.2434
 7173TIP3    H142934   2.057   6.368   1.847 -0.9735 -0.7884  0.5969
 7173TIP3    H242935   1.915   6.342   1.800 -0.8310  0.6480 -0.6980
 7174TIP3   OH242936   4.775   3.020   3.998 -0.9765 -0.2292 -0.1075
 7174TIP3    H142937   4.809   3.109   4.006 -0.5326 -0.2495 -1.7345
 7174TIP3    H242938   4.687   3.025   4.034 -0.8790  0.8217 -0.0056
 7175TIP3   OH242939   2.048   4.929   2.774  0.4637 -0.1141 -0.0892
 7175TIP3    H142940   2.141   4.917   2.758  0.2322 -2.2484  0.1050
 7175TIP3    H242941   2.004   4.870   2.713 -0.7746  0.7366 -0.0565
 7176TIP3   OH242942   5.059   0.953  16.947 -0.5893  0.0780 -0.6709
 7176TIP3    H142943   4.990   0.951  16.881 -0.1133  0.1030 -1.1714
 7176TIP3    H242944   5.132   0.998  16.904 -0.6247  0.9883  0.2033
 7177TIP3   OH242945   0.413   5.692   0.124  0.4120  0.2629 -0.1482
 7177TIP3    H142946   0.470   5.637   0.071  0.2207 -1.1213  1.0722
 7177TIP3    H242947   0.329   5.648   0.124  0.6251 -0.2090  1.9693
 7178TIP3   OH242948   2.284   2.937   4.246  0.3005  0.3622  0.0183
 7178TIP3    H142949   2.356   2.972   4.297 -0.3611  0.6591  0.7538
 7178TIP3    H242950   2.239   3.014   4.212 -0.8836  0.2330  1.2568
 7179TIP3   OH242951   2.342   2.703  11.457  0.2396  0.2740 -0.2052
 7179TIP3    H142952   2.341   2.732  11.366 -0.1956  1.0300  0.0338
 7179TIP3    H242953   2.271   2.639  11.463 -0.8200  1.4416 -0.0160
 7180TIP3   OH242954   4.548   5.882   4.893  0.3314  0.1424  0.0611
 7180TIP3    H142955   4.504   5.932   4.962 -0.9299 -0.8133 -0.0468
 7180TIP3    H242956   4.631   5.856   4.933 -0.2277 -0.0843  1.1054
 7181TIP3   OH242957   5.164   1.985   1.980  0.5852  0.3303 -0.5884
 7181TIP3    H142958   5.175   1.909   2.037 -2.2925  0.5261  0.2887
 7181TIP3    H242959   5.136   1.949   1.896  0.3107  0.3335 -0.4998
 7182TIP3   OH242960   5.674   0.619  12.270  0.1515  0.8151  0.0246
 7182TIP3    H142961   5.686   0.682  12.341 -0.3485  0.0712  0.7816
 7182TIP3    H242962   5.629   0.545  12.311 -0.9543  0.7534 -1.2699
 7183TIP3   OH242963   4.807   0.295   2.886 -0.0020  0.1187  0.2886
 7183TIP3    H142964   4.730   0.299   2.828 -0.1516  0.5836  0.5164
 7183TIP3    H242965   4.806   0.378   2.933  0.6296  0.1195  0.3106
 7184TIP3   OH242966   4.328   4.261  17.179  0.2114 -0.6310  0.7268
 7184TIP3    H142967   4.343   4.252  17.085  1.4714 -1.9826  1.0425
 7184TIP3    H242968   4.266   4.334  17.186  2.5683  1.6196 -0.9354
 7185TIP3   OH242969   1.478   5.223  10.507 -0.5654 -0.3425  0.0854
 7185TIP3    H142970   1.396   5.271  10.502 -0.9283 -0.8597  0.8927
 7185TIP3    H242971   1.524   5.262  10.582 -1.2320 -1.8004  1.2698
 7186TIP3   OH242972   0.492   2.047  15.459 -0.3017  0.2625  0.2467
 7186TIP3    H142973   0.534   1.983  15.401 -0.0748  0.6017  0.0323
 7186TIP3    H242974   0.434   1.995  15.515 -0.8220 -0.0225 -0.5488
 7187TIP3   OH242975   0.703   2.488   1.281 -0.1270  0.5093 -0.2419
 7187TIP3    H142976   0.619   2.491   1.234 -0.5976  0.1849  0.5852
 7187TIP3    H242977   0.700   2.407   1.331  0.0139  1.2962  1.0466
 7188TIP3   OH242978   5.633   2.230  13.080 -0.6444  0.2049  0.3959
 7188TIP3    H142979   5.613   2.215  13.173 -1.0387  0.0724  0.2898
 7188TIP3    H242980   5.665   2.320  13.077 -1.4372  0.4935  0.5320
 7189TIP3   OH242981   1.405   5.202   2.149  0.4355 -0.4276  0.1992
 7189TIP3    H142982   1.441   5.121   2.184 -1.2881 -0.5862  1.7205
 7189TIP3    H242983   1.401   5.260   2.225 -2.1450 -0.3106  0.0164
 7190TIP3   OH242984   6.046   3.576  12.454  0.2772 -0.1750  0.1407
 7190TIP3    H142985   6.111   3.560  12.386  1.4615  0.9578  0.9877
 7190TIP3    H242986   6.066   3.512  12.522  0.9251  0.6220  0.6953
 7191TIP3   OH242987   2.080   1.955  16.450 -0.6782  0.2081  0.2275
 7191TIP3    H142988   2.025   1.888  16.491 -0.8968 -0.1426 -0.6478
 7191TIP3    H242989   2.076   1.937  16.357  1.1480  0.0084  0.1577
 7192TIP3   OH242990   1.843   6.337  14.847  0.1890 -0.0874 -0.7567
 7192TIP3    H142991   1.888   6.382  14.775  1.2311  1.0979  0.6035
 7192TIP3    H242992   1.826   6.406  14.912 -1.0496 -1.0714 -0.0077
 7193TIP3   OH242993   5.721   2.776  11.058 -0.5862  0.4127 -0.1410
 7193TIP3    H142994   5.765   2.719  11.121  0.6019  0.9594 -0.4699
 7193TIP3    H242995   5.700   2.855  11.108  0.8233  1.0580 -0.5491
 7194TIP3   OH242996   2.797   0.974  11.863  0.0923 -0.3055  0.2849
 7194TIP3    H142997   2.785   0.896  11.916  4.6019 -0.4124  1.3128
 7194TIP3    H242998   2.833   0.942  11.780  0.8699  0.5529  0.2775
 7195TIP3   OH242999   3.619   0.329   5.149 -0.7306  0.0082 -0.1097
 7195TIP3    H143000   3.623   0.246   5.197  0.2650  0.8261  1.2684
 7195TIP3    H243001   3.613   0.303   5.057 -0.1010 -1.5923  0.2760
 7196TIP3   OH243002   4.124   1.278   4.208 -0.3111  0.6822 -0.7089
 7196TIP3    H143003   4.127   1.284   4.303 -2.1907  0.5283 -0.6098
 7196TIP3    H243004   4.102   1.186   4.191 -1.0208  0.9481 -1.2501
 7197TIP3   OH243005   0.975   2.506  14.101  0.1971  0.3411 -0.0545
 7197TIP3    H143006   0.897   2.527  14.151 -0.1560  0.4228 -0.6403
 7197TIP3    H243007   0.946   2.442  14.037  0.3632  1.2130 -1.0128
 7198TIP3   OH243008   5.665   2.426   5.630 -0.1587  0.1727 -0.3896
 7198TIP3    H143009   5.670   2.519   5.606 -1.1557  0.1335 -0.7689
 7198TIP3    H243010   5.645   2.426   5.723 -1.0516  0.3405 -0.5828
 7199TIP3   OH243011   4.690   3.603   6.119  0.3877  0.1802 -0.1012
 7199TIP3    H143012   4.595   3.593   6.123  0.2797  0.3616 -1.6754
 7199TIP3    H243013   4.705   3.697   6.127  0.4024  0.1853 -0.1765
 7200TIP3   OH243014   5.470   5.226  15.372 -0.5390  0.0301 -0.3722
 7200TIP3    H143015   5.502   5.190  15.455 -1.7863 -0.4395 -0.0758
 7200TIP3    H243016   5.546   5.266  15.332  0.8381 -2.7281 -0.5931
 7201TIP3   OH243017   6.656   6.551  14.732 -0.1040  0.5825 -0.2088
 7201TIP3    H143018   6.687   6.461  14.729 -0.5072  0.3450  1.9469
 7201TIP3    H243019   6.729   6.600  14.771  0.8559  1.5504 -3.1132
 7202TIP3   OH243020   4.144   4.188  11.120 -0.4130  0.0407  0.2381
 7202TIP3    H143021   4.159   4.281  11.137  0.8754  0.0377 -0.8225
 7202TIP3    H243022   4.159   4.145  11.205  1.6174  0.5101  0.1284
 7203TIP3   OH243023   1.872   5.062   5.185 -0.1310  0.0237 -0.5861
 7203TIP3    H143024   1.882   4.995   5.117 -0.3430  0.7653 -1.3599
 7203TIP3    H243025   1.780   5.059   5.209  0.2798 -1.3889  0.8837
 7204TIP3   OH243026   1.210   4.099   2.724  0.3343  0.4965 -0.6840
 7204TIP3    H143027   1.248   4.185   2.742  0.4737  0.4117 -0.5669
 7204TIP3    H243028   1.144   4.086   2.793  0.9874  0.0964 -0.1234
 7205TIP3   OH243029   0.745   1.054   0.308  0.2895 -0.3714 -0.5844
 7205TIP3    H143030   0.695   1.121   0.262 -0.2362 -0.0965  0.3738
 7205TIP3    H243031   0.812   1.103   0.356  0.2464 -0.5825 -0.3102
 7206TIP3   OH243032   2.785   1.954  13.234  0.6972 -0.0768 -0.6287
 7206TIP3    H143033   2.781   1.935  13.140 -0.8169  1.2637 -0.8510
 7206TIP3    H243034   2.711   1.906  13.271  1.6301 -1.0699 -0.0158
 7207TIP3   OH243035   3.429   6.175  14.251  0.4614  0.1174 -0.2077
 7207TIP3    H143036   3.441   6.267  14.231 -0.1765  0.3358  0.3935
 7207TIP3    H243037   3.516   6.144  14.277  0.6595  0.5606 -0.3509
 7208TIP3   OH243038   3.329   1.063  12.548  0.6136 -0.0571  0.3447
 7208TIP3    H143039   3.398   1.090  12.487 -0.4866  3.2361  0.4999
 7208TIP3    H243040   3.372   1.000  12.606  2.3973 -1.1554 -2.0710
 7209TIP3   OH243041   3.722   0.680  14.737 -0.1521 -0.4996  0.3036
 7209TIP3    H143042   3.631   0.688  14.765 -0.0258 -0.6174  0.7517
 7209TIP3    H243043   3.768   0.646  14.813  0.7639  2.0987  0.9727
 7210TIP3   OH243044   0.928   6.097  11.646  0.3128 -0.4181  0.0888
 7210TIP3    H143045   0.847   6.138  11.614  1.9999  1.4288 -1.9452
 7210TIP3    H243046   0.961   6.048  11.571  1.0613 -1.2225  0.9357
 7211TIP3   OH243047   4.209   6.287   1.361  0.3577 -0.0721  0.0042
 7211TIP3    H143048   4.203   6.233   1.439  0.8710 -0.9895 -0.5863
 7211TIP3    H243049   4.303   6.295   1.343  0.2944  1.0835  0.1333
 7212TIP3   OH243050   0.587   2.345   3.428  0.6938 -0.0163  0.0213
 7212TIP3    H143051   0.494   2.348   3.451  1.2603 -2.4398  2.9644
 7212TIP3    H243052   0.632   2.340   3.512  3.5010  0.9054 -1.3797
 7213TIP3   OH243053   5.906   3.810  12.482  0.2588  0.3665 -0.1812
 7213TIP3    H143054   5.921   3.715  12.477  0.7026  0.4739 -0.7971
 7213TIP3    H243055   5.820   3.817  12.525  0.4878 -0.2992  0.3974
 7214TIP3   OH243056   4.916   1.185  14.623  0.2405  0.5566 -0.6936
 7214TIP3    H143057   4.971   1.126  14.675  0.2868  0.5351 -0.7670
 7214TIP3    H243058   4.923   1.152  14.533  0.6459  0.9517 -0.8101
 7215TIP3   OH243059   4.551   5.133   1.261  0.0578  0.4776  0.2881
 7215TIP3    H143060   4.604   5.082   1.198 -0.2218  1.7100 -0.9761
 7215TIP3    H243061   4.468   5.085   1.266 -0.2116  0.7966 -0.8993
 7216TIP3   OH243062   5.877   2.793  17.218  0.1928 -0.2285 -0.3876
 7216TIP3    H143063   5.941   2.738  17.174  0.2966 -1.6324  1.4478
 7216TIP3    H243064   5.907   2.797  17.309 -2.3959 -1.1026  0.5559
 7217TIP3   OH243065   4.520   5.524   5.238  0.4856  0.0723  0.0677
 7217TIP3    H143066   4.429   5.512   5.265 -0.1334  0.1867 -1.9186
 7217TIP3    H243067   4.526   5.616   5.214  0.9837 -0.0684 -0.3494
 7218TIP3   OH243068   3.796   1.497  11.899 -0.2284  0.0986 -0.0054
 7218TIP3    H143069   3.885   1.531  11.897 -0.3295  0.3231 -0.6873
 7218TIP3    H243070   3.803   1.409  11.862  0.0933 -0.7849  2.0753
 7219TIP3   OH243071   0.409   2.885   4.863 -0.6649  0.1408  0.1496
 7219TIP3    H143072   0.457   2.951   4.913 -2.7447  0.9809  1.1007
 7219TIP3    H243073   0.370   2.934   4.791  0.1141 -0.5776 -0.7612
 7220TIP3   OH243074   6.418   4.366   5.309  0.2265 -0.0466 -0.5533
 7220TIP3    H143075   6.352   4.307   5.275 -0.9952 -0.5897  2.5499
 7220TIP3    H243076   6.493   4.309   5.328  0.8170  0.2164 -2.0292
 7221TIP3   OH243077   4.534   1.969  11.913 -0.2330 -0.1730  0.0915
 7221TIP3    H143078   4.449   1.934  11.885 -0.9535  1.1997  0.4622
 7221TIP3    H243079   4.511   2.040  11.973  1.2101 -0.4703  1.0283
 7222TIP3   OH243080   0.345   4.745   2.463  0.5580  0.4951 -0.2848
 7222TIP3    H143081   0.438   4.734   2.443  0.3078  0.8049 -1.6987
 7222TIP3    H243082   0.327   4.680   2.531  1.8792  0.6686  0.2454
 7223TIP3   OH243083   0.616   3.526  13.304  0.5918  0.3749  0.4617
 7223TIP3    H143084   0.655   3.443  13.277 -0.5329  0.2303 -0.7048
 7223TIP3    H243085   0.614   3.521  13.400 -1.8352 -2.0288  0.3345
 7224TIP3   OH243086   2.926   3.848   5.133 -0.2461 -0.1683 -0.4800
 7224TIP3    H143087   2.854   3.836   5.071 -0.9166 -0.6273  0.3761
 7224TIP3    H243088   2.921   3.772   5.191  1.1760 -0.4071 -0.6520
 7225TIP3   OH243089   4.605   6.607   5.873 -0.3777  0.4329  0.1256
 7225TIP3    H143090   4.697   6.632   5.871 -0.8887  2.4637  0.7335
 7225TIP3    H243091   4.603   6.519   5.835  1.6091  0.9441 -1.2400
 7226TIP3   OH243092   0.595   4.242  13.982  0.4203  0.4131  0.0181
 7226TIP3    H143093   0.629   4.221  13.895 -0.0853 -0.6203  0.0539
 7226TIP3    H243094   0.673   4.248  14.037  0.7023  0.3911 -0.3761
 7227TIP3   OH243095   1.057   6.330  16.259 -0.0012  0.7661 -0.1573
 7227TIP3    H143096   1.102   6.401  16.304  3.3794 -1.3634 -0.0634
 7227TIP3    H243097   1.114   6.306  16.187 -0.2154 -2.9553  0.7939
 7228TIP3   OH243098   0.228   5.447   5.105 -0.3318 -0.8351  0.1718
 7228TIP3    H143099   0.168   5.374   5.092 -0.3871 -0.8052  0.2640
 7228TIP3    H243100   0.295   5.412   5.165 -0.5340 -0.7101  0.4738
 7229TIP3   OH243101   0.022   1.251  14.123 -0.1922 -0.0014  0.1678
 7229TIP3    H143102   0.060   1.288  14.044 -1.6727  0.8714 -0.1576
 7229TIP3    H243103   0.096   1.242  14.183  0.4555  2.2236 -0.2361
 7230TIP3   OH243104   4.108   2.546  16.113 -0.3703 -0.3025 -0.0418
 7230TIP3    H143105   4.188   2.493  16.110  0.3193  0.7103  0.3065
 7230TIP3    H243106   4.095   2.565  16.205 -1.6439 -1.3752  0.0267
 7231TIP3   OH243107   0.585   0.583  14.873 -0.4487  0.3410  0.6973
 7231TIP3    H143108   0.637   0.636  14.813  0.7648 -0.1975  1.2643
 7231TIP3    H243109   0.494   0.610  14.855  0.0615  1.8716  0.2659
 7232TIP3   OH243110   1.268   6.477   5.963 -0.2049 -0.2668 -0.7658
 7232TIP3    H143111   1.192   6.487   6.020  0.3210 -2.4822  0.4134
 7232TIP3    H243112   1.341   6.511   6.014  0.2419 -2.1029 -0.1366
 7233TIP3   OH243113   2.729   4.910  14.388 -0.1266  0.4592 -0.1658
 7233TIP3    H143114   2.760   5.001  14.378 -1.2896  0.8090 -0.6379
 7233TIP3    H243115   2.784   4.860  14.329  1.2583  0.6802  0.8953
 7234TIP3   OH243116   3.074   2.390   1.780 -0.9036 -1.0154 -0.0749
 7234TIP3    H143117   3.039   2.465   1.733 -0.2072 -0.2829  0.5662
 7234TIP3    H243118   3.008   2.322   1.770  0.0778 -1.4998 -3.7194
 7235TIP3   OH243119   1.620   1.658  14.003  0.0494  0.1148  0.1729
 7235TIP3    H143120   1.625   1.691  14.093  1.8142 -0.8843  0.4613
 7235TIP3    H243121   1.694   1.598  13.995 -2.6157 -3.2438 -0.5818
 7236TIP3   OH243122   0.011   6.521   0.636  0.2699 -0.4667 -0.2693
 7236TIP3    H143123   0.029   6.615   0.631  0.7159 -0.6292 -2.3529
 7236TIP3    H243124   0.046   6.494   0.720 -0.7833  1.4232  0.8054
 7237TIP3   OH243125   1.155   1.509  11.527 -0.3577 -0.0882  0.0154
 7237TIP3    H143126   1.076   1.527  11.477 -0.2226  2.1609  0.5421
 7237TIP3    H243127   1.133   1.537  11.616  0.9042  0.2642  0.2256
 7238TIP3   OH243128   0.903   5.009  16.285  0.6850  0.1657 -0.0408
 7238TIP3    H143129   0.851   5.020  16.205 -1.1006 -2.6818  0.6821
 7238TIP3    H243130   0.839   5.006  16.356  2.1184  0.6174  1.3160
 7239TIP3   OH243131   5.405   1.213   5.162 -0.4746 -0.6977 -0.2413
 7239TIP3    H143132   5.465   1.248   5.229  1.5760 -0.0216 -2.3794
 7239TIP3    H243133   5.352   1.288   5.136  1.2103 -0.0647 -1.9522
 7240TIP3   OH243134   2.335   5.908  13.827  0.3585 -0.1598  0.0261
 7240TIP3    H143135   2.357   5.975  13.763  0.8812  0.7768  1.1754
 7240TIP3    H243136   2.320   5.829  13.775  0.3889  0.6814 -1.2737
 7241TIP3   OH243137   4.714   4.075  16.237 -0.4251  0.5628  0.3261
 7241TIP3    H143138   4.774   4.034  16.300  0.3484  0.2107 -0.6332
 7241TIP3    H243139   4.716   4.018  16.161 -1.3773  0.9801 -0.0243
 7242TIP3   OH243140   4.646   2.601   2.754 -0.5189  0.2157 -0.6621
 7242TIP3    H143141   4.550   2.606   2.756 -0.6290 -1.6614  0.0809
 7242TIP3    H243142   4.676   2.691   2.761 -2.2118  0.6583  0.9984
 7243TIP3   OH243143   3.983   1.215  12.362 -0.0316 -0.5106 -0.2678
 7243TIP3    H143144   4.068   1.250  12.389  0.1501 -0.8449 -0.3989
 7243TIP3    H243145   3.984   1.220  12.267 -0.6241  0.5502 -0.2239
 7244TIP3   OH243146   0.894   3.201   2.076  0.5291  0.4103 -0.0992
 7244TIP3    H143147   0.884   3.285   2.122  0.0883  0.8818 -1.0519
 7244TIP3    H243148   0.982   3.206   2.038  0.5355  0.3999 -0.0859
 7245TIP3   OH243149   6.072   4.783  17.202 -0.4426 -0.0686  0.2186
 7245TIP3    H143150   6.012   4.791  17.276 -1.4953 -0.8686 -0.5244
 7245TIP3    H243151   6.132   4.857  17.211 -1.8815  1.0727  0.6723
 7246TIP3   OH243152   6.730   6.301  11.878  0.1873  0.3177 -0.3386
 7246TIP3    H143153   6.685   6.300  11.962  0.9041 -0.0581  0.0450
 7246TIP3    H243154   6.822   6.316  11.900  0.4830 -0.4760 -0.9966
 7247TIP3   OH243155   0.793   5.482  16.535  0.0266 -0.3586  0.5381
 7247TIP3    H143156   0.764   5.400  16.495 -0.2227 -0.1960  0.3808
 7247TIP3    H243157   0.759   5.550  16.477 -0.5957 -0.1051  1.1934
 7248TIP3   OH243158   5.944   5.568  12.549 -0.4775  0.2801  0.4411
 7248TIP3    H143159   5.989   5.570  12.633  0.1611 -2.6054  0.2166
 7248TIP3    H243160   6.014   5.557  12.485 -1.2178 -1.0780 -0.1644
 7249TIP3   OH243161   3.509   6.443   3.104 -0.1730  0.4849 -0.0380
 7249TIP3    H143162   3.505   6.350   3.125 -0.1258  0.7448  1.1585
 7249TIP3    H243163   3.443   6.455   3.035  0.4177 -0.5801 -0.8109
 7250TIP3   OH243164   4.814   3.433  11.851  0.5220 -0.3827  0.6183
 7250TIP3    H143165   4.895   3.471  11.884 -0.6671  2.3914  0.4239
 7250TIP3    H243166   4.842   3.379  11.776  2.2010  0.3036  0.7281
 7251TIP3   OH243167   1.977   5.832  12.611  0.0169 -0.3901  0.2180
 7251TIP3    H143168   1.894   5.826  12.563  1.2676 -1.5731 -1.8587
 7251TIP3    H243169   1.996   5.926  12.614 -2.3468  0.0637  2.4345
 7252TIP3   OH243170   5.774   4.529  16.471 -0.0039 -0.4150 -0.3140
 7252TIP3    H143171   5.742   4.519  16.381  0.2945 -0.5647 -0.4014
 7252TIP3    H243172   5.762   4.443  16.511 -0.0510 -0.3731 -0.2370
 7253TIP3   OH243173   3.931   0.895   0.683  0.1823  0.3844 -0.2419
 7253TIP3    H143174   3.902   0.805   0.671  1.8706 -0.5574  2.2593
 7253TIP3    H243175   3.951   0.926   0.595 -1.4679 -1.2911 -1.2367
 7254TIP3   OH243176   5.768   3.711   1.927  0.4967 -0.0509  0.1216
 7254TIP3    H143177   5.836   3.747   1.984 -0.2548 -0.0274  1.0280
 7254TIP3    H243178   5.694   3.771   1.938  0.6556  0.4689 -1.6029
 7255TIP3   OH243179   2.953   3.000  14.592  0.2227  0.2599 -0.2654
 7255TIP3    H143180   2.902   2.974  14.669 -0.2129  1.5529 -0.0938
 7255TIP3    H243181   3.032   2.946  14.596  0.0243  0.0336  0.8824
 7256TIP3   OH243182   3.711   2.827   6.364 -0.2991  0.1293 -0.0928
 7256TIP3    H143183   3.637   2.802   6.420 -0.3868 -0.5684 -0.5153
 7256TIP3    H243184   3.769   2.751   6.366 -1.5416 -0.9988 -3.0280
 7257TIP3   OH243185   5.231   4.652   0.340  0.1206 -0.0092  0.2677
 7257TIP3    H143186   5.253   4.667   0.248  2.2701 -0.7634  0.6303
 7257TIP3    H243187   5.285   4.577   0.365 -1.1335 -0.3907  1.9018
 7258TIP3   OH243188   0.973   3.656  13.866 -0.2538 -0.1667 -0.2749
 7258TIP3    H143189   0.913   3.624  13.798 -0.3258  1.6799 -1.0972
 7258TIP3    H243190   0.988   3.748  13.844  2.6460 -0.5043  0.0854
 7259TIP3   OH243191   4.794   4.036  11.358  0.2552  0.4414  0.2928
 7259TIP3    H143192   4.719   4.093  11.343  1.3161  1.1601 -2.5852
 7259TIP3    H243193   4.869   4.095  11.360  0.9367 -0.4402  1.5057
 7260TIP3   OH243194   1.142   0.073   2.888 -0.2900  0.1440 -0.9493
 7260TIP3    H143195   1.076   0.142   2.894 -0.3829  0.0008 -0.3300
 7260TIP3    H243196   1.094  -0.008   2.903 -0.1887 -0.0658 -1.7240
 7261TIP3   OH243197   3.636   2.419   4.810 -0.0211  0.6819  0.0232
 7261TIP3    H143198   3.560   2.470   4.780 -0.3784  0.7081  0.9437
 7261TIP3    H243199   3.624   2.332   4.771 -0.3882  0.7642 -0.0477
 7262TIP3   OH243200   2.417   4.569  12.827  0.0162 -0.2327 -0.1812
 7262TIP3    H143201   2.415   4.474  12.830 -1.7368 -0.1634  1.7246
 7262TIP3    H243202   2.327   4.596  12.845  0.5315  1.7948 -0.4538
 7263TIP3   OH243203   5.903   1.925  15.230 -0.5067 -1.0647  0.7007
 7263TIP3    H143204   5.908   1.913  15.135  0.0823 -0.8622  0.7058
 7263TIP3    H243205   5.920   1.838  15.266 -2.2441 -1.4763  0.5924
 7264TIP3   OH243206   3.912   3.101  11.316  0.1868 -0.1702  0.1167
 7264TIP3    H143207   3.938   3.187  11.281  0.8111  0.0115  1.0205
 7264TIP3    H243208   3.816   3.103  11.313  0.1917  0.5932  0.2023
 7265TIP3   OH243209   4.815   3.673  11.716  0.6073 -0.1506  0.1321
 7265TIP3    H143210   4.856   3.630  11.642 -1.2322 -0.8802 -0.5076
 7265TIP3    H243211   4.787   3.601  11.773 -0.6790  0.2689  0.0447
 7266TIP3   OH243212   0.182   6.755  11.373 -0.0955  0.1724  0.1156
 7266TIP3    H143213   0.168   6.712  11.457  0.6608 -1.5367 -0.6110
 7266TIP3    H243214   0.112   6.721  11.317  0.2895  0.1915 -0.3739
 7267TIP3   OH243215   5.353   3.031   0.978  0.2402 -0.1392  0.1987
 7267TIP3    H143216   5.395   3.029   0.892  0.5945  3.6766  0.1740
 7267TIP3    H243217   5.264   3.064   0.961  0.0477 -0.1246  1.1787
 7268TIP3   OH243218   6.001   3.287   0.559 -0.2628 -0.2858 -0.2976
 7268TIP3    H143219   6.055   3.348   0.610  1.7445 -0.4869 -2.0940
 7268TIP3    H243220   5.916   3.289   0.601  0.7622  1.1163  1.7995
 7269TIP3   OH243221   2.394   2.069   4.373  0.9099  0.3352  0.2847
 7269TIP3    H143222   2.341   2.057   4.452  0.6194  2.0786  0.3835
 7269TIP3    H243223   2.342   2.130   4.319  2.6245  1.7969  0.2323
 7270TIP3   OH243224   0.552   1.528  13.849 -0.2538 -0.1642 -0.1456
 7270TIP3    H143225   0.538   1.448  13.899  1.3404  0.2423  0.9771
 7270TIP3    H243226   0.640   1.519  13.813 -0.4946  0.5944 -0.9526
 7271TIP3   OH243227   2.377   4.425   5.931 -0.3073  0.7736  0.1859
 7271TIP3    H143228   2.469   4.416   5.956 -0.8007  1.4526  2.3402
 7271TIP3    H243229   2.380   4.465   5.844  1.4539 -1.1250 -0.6717
 7272TIP3   OH243230   1.861   2.018  11.014  0.4522 -0.0723  0.3284
 7272TIP3    H143231   1.831   2.087  11.073 -0.0351  0.3208 -0.3720
 7272TIP3    H243232   1.821   2.040  10.929  0.4190 -1.1308  0.0680
 7273TIP3   OH243233   5.833   6.001   2.428 -0.2130  0.1072  0.2009
 7273TIP3    H143234   5.738   6.004   2.435 -0.3571 -0.8927 -0.9817
 7273TIP3    H243235   5.861   6.092   2.423 -1.2074  0.3740 -0.5461
 7274TIP3   OH243236   4.071   0.763  12.979 -0.1095 -0.6918 -0.1912
 7274TIP3    H143237   4.045   0.696  13.042 -0.1376  0.4075  0.9929
 7274TIP3    H243238   4.010   0.753  12.906 -1.1603 -0.8929  0.6987
 7275TIP3   OH243239   2.398   1.009   2.101 -0.5069 -0.1672 -0.2056
 7275TIP3    H143240   2.403   1.081   2.039  1.3132  0.0537  0.1634
 7275TIP3    H243241   2.343   1.042   2.172  0.6950  1.0347  0.1812
 7276TIP3   OH243242   6.659   4.737   6.639 -0.2063 -0.1561  0.3035
 7276TIP3    H143243   6.742   4.689   6.634 -0.4200 -0.5112  0.1352
 7276TIP3    H243244   6.679   4.812   6.695  0.1468 -0.4096  0.5289
 7277TIP3   OH243245   1.045   5.095   1.091  1.1180 -0.5704  0.0812
 7277TIP3    H143246   1.077   5.108   1.180  0.4880 -1.0505  0.3766
 7277TIP3    H243247   1.001   5.010   1.093 -1.3862  0.6796  0.0137
 7278TIP3   OH243248   0.013   0.059  11.661  0.2815  0.5100  0.0211
 7278TIP3    H143249  -0.068   0.012  11.640 -0.4251  0.7968  1.9410
 7278TIP3    H243250   0.048   0.012  11.738  1.3430  1.0914 -0.0930
 7279TIP3   OH243251   4.985   5.460  15.891 -0.0172 -0.7453  0.1411
 7279TIP3    H143252   4.983   5.395  15.962  1.8253 -0.4476  0.4966
 7279TIP3    H243253   5.027   5.536  15.931 -2.9941  1.0155 -0.0038
 7280TIP3   OH243254   3.903   3.509   0.907  0.1021 -0.1013 -0.3775
 7280TIP3    H143255   3.926   3.561   0.830  5.4599  1.8596  2.2776
 7280TIP3    H243256   3.828   3.554   0.946  1.3236  2.5972 -1.0462
 7281TIP3   OH243257   6.693   4.375  13.474  0.4232  0.0238  0.1255
 7281TIP3    H143258   6.753   4.364  13.547 -1.6139  0.6897  1.9877
 7281TIP3    H243259   6.668   4.468  13.478 -0.7208 -0.2420 -0.5842
 7282TIP3   OH243260   2.954   2.144  13.793 -0.1498  0.0594 -0.2262
 7282TIP3    H143261   2.960   2.086  13.869 -0.2839  0.2918 -0.0372
 7282TIP3    H243262   3.029   2.121  13.739  0.9206  1.0857  0.8075
 7283TIP3   OH243263   0.040   3.363   5.027 -0.3055 -0.6730  0.1154
 7283TIP3    H143264  -0.023   3.351   5.097 -0.4475 -0.1427  0.0867
 7283TIP3    H243265   0.009   3.441   4.980  1.8687  1.3045  1.7723
 7284TIP3   OH243266   2.925   3.171  13.085 -0.4501 -0.3729  0.4010
 7284TIP3    H143267   2.922   3.214  13.000 -0.2131 -1.1541 -0.0073
 7284TIP3    H243268   2.858   3.215  13.137  0.2607  0.9564  0.2220
 7285TIP3   OH243269   1.266   0.033   3.923  0.0715 -0.2731  0.1217
 7285TIP3    H143270   1.189  -0.021   3.941  0.1526 -0.4413 -0.0270
 7285TIP3    H243271   1.324  -0.025   3.874 -0.2438  0.2530 -0.8702
 7286TIP3   OH243272   6.684   2.797  12.795 -0.0753  0.3180  0.4178
 7286TIP3    H143273   6.775   2.768  12.792  0.0663  0.8673 -0.8747
 7286TIP3    H243274   6.634   2.720  12.769  0.1210  0.4312 -0.3020
 7287TIP3   OH243275   5.448   1.099  15.323  0.4992  0.5200 -0.1201
 7287TIP3    H143276   5.445   1.046  15.402  0.3971  1.4926  0.5414
 7287TIP3    H243277   5.528   1.151  15.331  0.7843  0.2207 -0.9249
 7288TIP3   OH243278   4.218   1.381   5.630  0.6317  0.2101  0.6655
 7288TIP3    H143279   4.130   1.389   5.665  0.8027  2.4962  0.5974
 7288TIP3    H243280   4.275   1.381   5.707  0.7012  0.5531  0.6123
 7289TIP3   OH243281   1.254   1.698  14.897 -0.4771  0.1368  0.4153
 7289TIP3    H143282   1.168   1.739  14.892 -0.2669  0.4659 -0.9836
 7289TIP3    H243283   1.295   1.735  14.975 -2.5043 -1.8699  2.4919
 7290TIP3   OH243284   2.767   6.608  12.209  0.1386 -0.2873  0.1838
 7290TIP3    H143285   2.844   6.557  12.233 -0.4640 -0.3808  2.0542
 7290TIP3    H243286   2.765   6.680  12.273  0.2931  1.3746 -1.6580
 7291TIP3   OH243287   3.664   2.057  11.486 -0.3374  0.0581  0.1525
 7291TIP3    H143288   3.661   2.099  11.400  0.8867  0.1489  0.1501
 7291TIP3    H243289   3.580   2.011  11.493 -1.3708  1.8565 -0.1688
 7292TIP3   OH243290   6.300   0.990   1.878 -0.5388  0.7132  0.2378
 7292TIP3    H143291   6.342   1.058   1.932 -0.1384  1.3508 -0.8729
 7292TIP3    H243292   6.208   0.993   1.905 -0.5443  1.7704  0.1352
 7293TIP3   OH243293   4.869   1.728  16.710  0.0801 -0.8383 -0.7333
 7293TIP3    H143294   4.841   1.673  16.637 -0.8565 -0.4347 -0.6836
 7293TIP3    H243295   4.788   1.769  16.742  0.7107  0.2793 -0.5387
 7294TIP3   OH243296   3.945   5.578   3.606  0.3618 -0.2755 -0.3956
 7294TIP3    H143297   3.934   5.628   3.525  4.0729  0.3498 -0.5862
 7294TIP3    H243298   3.906   5.634   3.673  0.1476  0.6742 -1.2840
 7295TIP3   OH243299   5.753   2.639   3.957 -0.3840 -0.5690  0.2032
 7295TIP3    H143300   5.757   2.558   3.905 -1.2754 -0.3534 -0.2272
 7295TIP3    H243301   5.728   2.706   3.893 -2.3024 -0.4488  1.0535
 7296TIP3   OH243302   2.737   0.300   5.804  0.2910 -0.2184  0.3099
 7296TIP3    H143303   2.728   0.349   5.722  2.6512 -0.5176 -0.1688
 7296TIP3    H243304   2.696   0.215   5.786  1.1908 -0.4417 -0.7124
 7297TIP3   OH243305   3.115   1.840  11.954 -0.1156  0.1118 -0.6699
 7297TIP3    H143306   3.204   1.805  11.962 -0.3937 -1.0019 -2.1721
 7297TIP3    H243307   3.096   1.876  12.041  1.8928  0.6235 -0.3942
 7298TIP3   OH243308   2.064   0.304   5.140 -0.4998  0.1750 -0.0247
 7298TIP3    H143309   2.038   0.223   5.095  0.3200  0.5949 -1.2840
 7298TIP3    H243310   1.982   0.348   5.160 -0.9882 -1.3722  1.4375
 7299TIP3   OH243311   0.964   1.339   4.898 -0.6820 -0.2003 -0.3524
 7299TIP3    H143312   0.901   1.404   4.930  0.7168  1.9037 -1.6856
 7299TIP3    H243313   0.939   1.325   4.806 -0.6427 -1.1448 -0.2217
 7300TIP3   OH243314   4.771   4.681  15.944  0.0295 -0.2231 -0.1361
 7300TIP3    H143315   4.730   4.768  15.944  0.0045 -0.2351  0.0320
 7300TIP3    H243316   4.848   4.691  15.888 -1.2055 -0.6617 -1.9754
 7301TIP3   OH243317   4.513   4.481   1.592 -0.1686 -0.0192 -0.8590
 7301TIP3    H143318   4.507   4.443   1.680  2.5222  2.5214  0.5434
 7301TIP3    H243319   4.574   4.424   1.545  0.9153  0.3969  0.0133
 7302TIP3   OH243320   1.087   2.036   5.153  0.4573  0.5780  0.5080
 7302TIP3    H143321   1.014   2.073   5.202  1.2251  1.2064  1.1919
 7302TIP3    H243322   1.064   1.944   5.141 -0.3837  0.7460  0.8309
 7303TIP3   OH243323   0.560   4.405  13.693 -0.3003 -0.2368 -0.4862
 7303TIP3    H143324   0.633   4.420  13.754 -0.5019 -0.3650 -0.2112
 7303TIP3    H243325   0.602   4.373  13.613 -0.1321 -1.4123  0.0578
 7304TIP3   OH243326   1.762   6.560  13.791 -0.0101 -0.2198  0.0189
 7304TIP3    H143327   1.760   6.600  13.877 -1.2966 -1.5180  0.6110
 7304TIP3    H243328   1.833   6.496  13.795  0.3239  0.1377 -0.0946
 7305TIP3   OH243329   3.424   0.882   5.067  0.0218  0.0877 -0.6670
 7305TIP3    H143330   3.400   0.889   4.975  1.4144 -0.8346 -1.1304
 7305TIP3    H243331   3.488   0.951   5.080 -1.0863  1.0045 -0.0669
 7306TIP3   OH243332   5.339   2.639   4.424  0.5666  0.2135  0.3624
 7306TIP3    H143333   5.339   2.624   4.329 -1.2323 -0.7308  0.4825
 7306TIP3    H243334   5.361   2.732   4.434  0.2271  0.4562 -1.0165
 7307TIP3   OH243335   3.043   6.522   4.665 -0.0777  0.1116 -0.2852
 7307TIP3    H143336   2.999   6.578   4.728  0.0256  0.6856 -0.7200
 7307TIP3    H243337   3.133   6.518   4.694  0.4151  1.9275 -1.4381
 7308TIP3   OH243338   1.133   5.578   1.254  0.0257  0.1095  0.4353
 7308TIP3    H143339   1.129   5.484   1.272 -1.2959  0.5408  2.4719
 7308TIP3    H243340   1.182   5.615   1.328 -0.3344  1.1583  0.1539
 7309TIP3   OH243341   3.342   0.850   0.580  1.1199 -0.4190  0.1915
 7309TIP3    H143342   3.385   0.923   0.535 -1.2068  1.0993  0.3501
 7309TIP3    H243343   3.260   0.887   0.612  0.7229 -2.6555  1.8482
 7310TIP3   OH243344   4.185   5.989   5.674 -0.0850  0.5416  0.4249
 7310TIP3    H143345   4.142   6.069   5.644  0.8388  0.9326  0.1146
 7310TIP3    H243346   4.278   6.003   5.653  0.8017  1.2703  4.3735
 7311TIP3   OH243347   0.540   5.819  14.969  0.0729 -0.0541 -0.4261
 7311TIP3    H143348   0.633   5.838  14.974  0.3246 -1.1325 -0.7686
 7311TIP3    H243349   0.500   5.873  15.037  1.1864 -0.9611  0.9774
 7312TIP3   OH243350   0.304   2.534   1.452  0.6440  0.0854  0.2291
 7312TIP3    H143351   0.280   2.448   1.488 -0.6966  0.8919  1.3245
 7312TIP3    H243352   0.293   2.594   1.525  1.5692  1.2008 -0.5372
 7313TIP3   OH243353   0.023   4.564  15.099  0.4849 -0.3081 -0.6321
 7313TIP3    H143354   0.024   4.658  15.119  1.8101 -0.4759  0.1680
 7313TIP3    H243355   0.028   4.560  15.004 -0.8430  0.4459 -0.7483
 7314TIP3   OH243356   4.597   2.581  15.665 -0.4655 -0.5177  0.2507
 7314TIP3    H143357   4.517   2.632  15.657 -0.9785 -1.7248 -3.1424
 7314TIP3    H243358   4.572   2.493  15.639  1.6941 -1.1808  0.3295
 7315TIP3   OH243359   0.437   4.337  16.806  0.5424 -0.4450  0.2108
 7315TIP3    H143360   0.466   4.377  16.724 -0.0558 -1.0986 -0.3240
 7315TIP3    H243361   0.447   4.406  16.871  0.5826  0.2286 -0.5040
 7316TIP3   OH243362   5.511   6.759   1.039  0.4354  0.1380  0.0498
 7316TIP3    H143363   5.443   6.826   1.044  1.0202  0.7113  0.5192
 7316TIP3    H243364   5.469   6.685   0.996 -1.0926 -0.2841  2.2188
 7317TIP3   OH243365   5.725   4.452  11.941  0.1937  0.7308  0.0262
 7317TIP3    H143366   5.651   4.394  11.923 -0.0618  1.1700 -0.3404
 7317TIP3    H243367   5.733   4.505  11.862  2.6850 -1.2286 -1.1023
 7318TIP3   OH243368   5.076   2.914   5.773 -0.2461  0.9914 -0.3256
 7318TIP3    H143369   4.982   2.898   5.772 -0.1165  0.2710 -0.8714
 7318TIP3    H243370   5.096   2.947   5.685 -0.2705  2.8131  0.3178
 7319TIP3   OH243371   3.980   1.711  10.855 -0.3573 -0.3872 -0.0573
 7319TIP3    H143372   4.045   1.641  10.857  0.9936  0.7915 -1.6105
 7319TIP3    H243373   3.920   1.685  10.785  2.1665  1.7044 -3.1152
 7320TIP3   OH243374   4.261   2.534  11.897 -0.1044  0.5791  0.4421
 7320TIP3    H143375   4.341   2.535  11.949 -1.0810  2.0722  1.9503
 7320TIP3    H243376   4.290   2.550  11.807  1.6002 -2.1438  0.4563
 7321TIP3   OH243377   3.182   1.067   0.355  0.0624 -0.2255  0.5445
 7321TIP3    H143378   3.207   1.034   0.269 -2.3011 -0.3329 -0.1385
 7321TIP3    H243379   3.118   1.003   0.387  0.4350  0.1634  2.1037
 7322TIP3   OH243380   5.424   3.265  16.591  0.2578 -0.1638  0.1463
 7322TIP3    H143381   5.472   3.187  16.619 -0.7792 -1.7441 -2.2546
 7322TIP3    H243382   5.481   3.305  16.524  0.3216  0.5851  0.6418
 7323TIP3   OH243383   0.081   5.584   4.651  0.3163  0.4152  0.4436
 7323TIP3    H143384   0.107   5.610   4.740 -0.7210  1.8477  0.3372
 7323TIP3    H243385  -0.012   5.561   4.659  0.5826 -0.8561  0.0102
 7324TIP3   OH243386   0.657   6.509  12.905 -0.5646 -0.1204  0.1914
 7324TIP3    H143387   0.613   6.583  12.948 -1.3684  0.3717 -1.4095
 7324TIP3    H243388   0.748   6.538  12.895 -0.3042 -0.3563  1.7801
 7325TIP3   OH243389   3.108   6.613  12.316 -0.3947  0.1561 -0.0991
 7325TIP3    H143390   3.077   6.591  12.229 -0.2445  0.1873 -0.1607
 7325TIP3    H243391   3.203   6.614  12.308 -0.3589 -0.5363  0.2320
 7326TIP3   OH243392   6.128   4.085  12.189 -0.6794  0.4626 -0.1295
 7326TIP3    H143393   6.212   4.046  12.166 -1.0600 -0.6745  0.3652
 7326TIP3    H243394   6.129   4.089  12.285 -1.0398  0.7640 -0.1372
 7327TIP3   OH243395   1.214   3.047  11.166 -0.5428  0.1586 -0.4470
 7327TIP3    H143396   1.273   3.052  11.241 -0.2075 -0.6070 -0.6631
 7327TIP3    H243397   1.232   3.127  11.116  0.2237 -0.0262 -0.4602
 7328TIP3   OH243398   4.756   2.687  12.168 -0.1117  0.5234  0.1542
 7328TIP3    H143399   4.769   2.732  12.251 -1.8491 -1.4590  1.5601
 7328TIP3    H243400   4.665   2.705  12.145 -0.4609 -1.2322  0.1179
 7329TIP3   OH243401   6.122   5.624  14.089  0.4427  0.4640  1.1114
 7329TIP3    H143402   6.057   5.634  14.159 -0.1483  0.7089  0.5284
 7329TIP3    H243403   6.131   5.529  14.078  0.6117  0.4207  1.5765
 7330TIP3   OH243404   5.372   4.302   3.107 -0.2619  0.1049  0.1962
 7330TIP3    H143405   5.315   4.372   3.138 -0.2172 -0.2043  1.0055
 7330TIP3    H243406   5.453   4.314   3.156 -0.6895 -1.2502  1.2887
 7331TIP3   OH243407   0.483   5.157   2.406  0.3658 -0.2530  0.6118
 7331TIP3    H143408   0.420   5.087   2.421 -0.5117  0.8241  2.0046
 7331TIP3    H243409   0.532   5.164   2.488  0.8673  0.3525  0.2670
 7332TIP3   OH243410   0.961   3.191  15.355  0.2794 -0.2456  0.2877
 7332TIP3    H143411   0.965   3.099  15.381 -2.2787  0.1075  2.0987
 7332TIP3    H243412   0.938   3.189  15.262 -1.1572 -1.4550  0.6535
 7333TIP3   OH243413   1.407   5.011   4.300  0.2623  0.0112  0.9240
 7333TIP3    H143414   1.326   4.963   4.287  0.0216  0.3443  1.1834
 7333TIP3    H243415   1.438   5.030   4.211 -1.2859  2.1316  0.8022
 7334TIP3   OH243416   4.985   2.051  14.990 -0.0327 -0.5660  0.4684
 7334TIP3    H143417   4.955   2.131  15.032  1.4048  0.2472 -0.0190
 7334TIP3    H243418   4.997   2.074  14.898 -0.1205 -1.4799  0.2223
 7335TIP3   OH243419   5.561   3.606  16.794  0.2211 -0.0287  0.2915
 7335TIP3    H143420   5.537   3.540  16.859  1.0348  1.2559  1.9236
 7335TIP3    H243421   5.646   3.638  16.822  0.6537  0.4608 -1.5015
 7336TIP3   OH243422   4.411   2.285   5.340  0.0332  1.0822 -0.2756
 7336TIP3    H143423   4.426   2.319   5.252  0.2195  0.0411 -0.6520
 7336TIP3    H243424   4.325   2.319   5.365 -0.4077  0.6619 -1.2092
 7337TIP3   OH243425   3.912   0.800   5.566  0.2764 -0.2650  0.4803
 7337TIP3    H143426   3.974   0.816   5.495 -0.5454 -0.4006 -0.2798
 7337TIP3    H243427   3.924   0.875   5.626 -0.2353  0.7606 -0.6732
 7338TIP3   OH243428   2.683   4.637   5.280 -0.2323  0.2971 -0.6106
 7338TIP3    H143429   2.675   4.608   5.371 -0.5145  0.2547 -0.6471
 7338TIP3    H243430   2.777   4.648   5.267 -0.2498  1.2230 -0.0295
 7339TIP3   OH243431   6.497   3.791  14.742 -0.1821  0.3586 -0.5667
 7339TIP3    H143432   6.553   3.804  14.665 -0.4891 -0.3489 -0.9208
 7339TIP3    H243433   6.517   3.701  14.771 -0.3101  0.5055 -0.0185
 7340TIP3   OH243434   3.542   4.982  16.964  0.0740 -0.0921 -0.2172
 7340TIP3    H143435   3.595   4.929  16.905  0.9047  0.8802 -0.3565
 7340TIP3    H243436   3.606   5.034  17.013 -0.7974  1.9164 -1.1673
 7341TIP3   OH243437   4.166   2.909  16.298  0.5462  0.5432 -0.1952
 7341TIP3    H143438   4.084   2.912  16.348  0.8752  2.1743  0.2877
 7341TIP3    H243439   4.139   2.923  16.207  0.0163 -1.7447 -0.4180
 7342TIP3   OH243440   0.719   3.901  15.285 -0.0052  0.2570  0.0065
 7342TIP3    H143441   0.718   3.860  15.199 -1.5628  0.6340 -0.1541
 7342TIP3    H243442   0.631   3.890  15.319 -0.0580  2.1834  0.5780
 7343TIP3   OH243443   4.141   4.100   5.428  0.4418  0.4123 -0.1755
 7343TIP3    H143444   4.058   4.141   5.403 -0.6796 -2.1793 -0.8835
 7343TIP3    H243445   4.150   4.118   5.521 -0.3665  1.6441 -0.3259
 7344TIP3   OH243446   3.548   2.285  12.540  0.8112 -0.2769 -0.3939
 7344TIP3    H143447   3.507   2.283  12.627 -0.9357  0.2323 -1.1769
 7344TIP3    H243448   3.632   2.242  12.552 -0.3248 -2.1653  1.0956
 7345TIP3   OH243449   0.796   1.421  13.847  0.0414  0.2680 -0.1456
 7345TIP3    H143450   0.752   1.338  13.866 -0.7899  0.6801 -0.2262
 7345TIP3    H243451   0.849   1.438  13.925  1.0566 -0.8704 -0.5779
 7346TIP3   OH243452   1.917   5.116  16.801  0.0859  0.3500 -0.0747
 7346TIP3    H143453   1.981   5.123  16.872 -0.0629 -1.5413  0.2587
 7346TIP3    H243454   1.905   5.022  16.788 -0.0181  0.6566 -2.4869
 7347TIP3   OH243455   1.531   3.400  12.693  0.2671  0.3909  0.0937
 7347TIP3    H143456   1.618   3.384  12.730 -0.0301 -0.6687  0.3436
 7347TIP3    H243457   1.472   3.344  12.744 -0.4806  0.6619 -0.4585
 7348TIP3   OH243458   1.075   4.434  14.963  0.2795 -0.4313 -0.3595
 7348TIP3    H143459   1.013   4.492  15.008  0.6283 -0.2615 -0.0896
 7348TIP3    H243460   1.156   4.485  14.961  0.2362 -0.4014 -1.2702
 7349TIP3   OH243461   1.562   3.722  13.687 -0.0885  0.3572  0.0575
 7349TIP3    H143462   1.473   3.756  13.684  0.3267  1.3772 -2.0938
 7349TIP3    H243463   1.611   3.788  13.737 -0.1614  0.7693 -0.4073
 7350TIP3   OH243464   3.908   4.757  16.535  0.1652 -0.0114  0.0425
 7350TIP3    H143465   3.890   4.804  16.454  0.3014  0.3762  0.2360
 7350TIP3    H243466   3.824   4.755  16.581  0.1537  0.0143  0.0197
 7351TIP3   OH243467   1.226   4.159  12.601 -0.2069  0.3697 -0.4648
 7351TIP3    H143468   1.177   4.221  12.547 -0.1652 -1.1600 -2.2970
 7351TIP3    H243469   1.317   4.190  12.597 -0.6866  2.1524  1.4536
 7352TIP3   OH243470   0.878   3.006  12.480  0.1243 -0.5441 -0.2541
 7352TIP3    H143471   0.880   3.008  12.576 -0.5625 -0.5184 -0.2392
 7352TIP3    H243472   0.825   3.082  12.456  0.1572 -0.6482 -0.6494
 7353TIP3   OH243473   5.216   5.183  16.681  0.2596 -0.1144  0.0386
 7353TIP3    H143474   5.122   5.195  16.668  0.0569  0.7033  2.0103
 7353TIP3    H243475   5.226   5.181  16.777  2.0208 -2.0567 -0.1622
 7354TIP3   OH243476   0.191   1.076   2.053  0.3822 -0.3970 -0.1420
 7354TIP3    H143477   0.129   1.143   2.024  1.2977  1.1844  1.4062
 7354TIP3    H243478   0.269   1.092   2.000  0.3798 -0.6605 -0.2244
 7355TIP3   OH243479   3.564   6.525   2.647 -0.1354  0.3533  0.4458
 7355TIP3    H143480   3.610   6.561   2.571  1.0713 -1.4914  0.2629
 7355TIP3    H243481   3.471   6.539   2.628  0.1343 -0.4708 -1.5926
 7356TIP3   OH243482   5.662   4.198   0.314 -0.4322 -1.2396 -0.0004
 7356TIP3    H143483   5.674   4.128   0.378 -1.4658 -2.4643 -1.1011
 7356TIP3    H243484   5.747   4.208   0.272  0.1175 -0.7684  1.2250
 7357TIP3   OH243485   0.407   6.432   3.876 -0.0482 -0.4383  0.4314
 7357TIP3    H143486   0.343   6.363   3.856  0.5387 -0.7079 -0.5932
 7357TIP3    H243487   0.443   6.407   3.961 -0.0412 -1.2549  0.1981
 7358TIP3   OH243488   0.977   1.290  14.547 -0.8516  0.4702  0.2430
 7358TIP3    H143489   0.949   1.235  14.620 -0.1596 -0.7711 -0.3892
 7358TIP3    H243490   1.071   1.271  14.538 -0.8987  0.7291 -0.8630
 7359TIP3   OH243491   2.657   4.232  13.703  0.3846  0.1867  0.6824
 7359TIP3    H143492   2.724   4.296  13.680  1.3318 -0.4638  1.5578
 7359TIP3    H243493   2.635   4.188  13.621  0.7024  0.7136  0.3193
 7360TIP3   OH243494   0.867   6.765   2.260 -0.4994 -0.5228  0.0943
 7360TIP3    H143495   0.776   6.733   2.259  0.1487 -2.4066 -0.1230
 7360TIP3    H243496   0.919   6.690   2.232  1.2553  0.1906  1.3606
 7361TIP3   OH243497   2.611   5.660  16.575  0.2263 -0.3149 -0.3437
 7361TIP3    H143498   2.582   5.732  16.632 -1.2076  0.0876 -1.5310
 7361TIP3    H243499   2.703   5.646  16.597 -0.0224  0.5732  1.2818
 7362TIP3   OH243500   5.527   2.494   2.115  0.3249 -0.2819 -0.2026
 7362TIP3    H143501   5.615   2.457   2.109 -0.6204 -2.4549 -1.1184
 7362TIP3    H243502   5.522   2.555   2.042  1.6910  1.2989  0.9706
 7363TIP3   OH243503   0.361   6.263   1.019  0.6933  0.4092 -0.5474
 7363TIP3    H143504   0.316   6.330   1.069  0.4430  0.5814 -1.0024
 7363TIP3    H243505   0.298   6.235   0.952  0.5820 -0.6898  0.0016
 7364TIP3   OH243506   4.338   0.071  11.806  0.1238 -0.6274 -0.1041
 7364TIP3    H143507   4.362  -0.015  11.773  1.2347 -0.2971 -0.1645
 7364TIP3    H243508   4.355   0.130  11.733 -0.4795 -0.3253 -0.0059
 7365TIP3   OH243509   1.563   2.496   6.049  0.5089  0.1989 -0.4141
 7365TIP3    H143510   1.606   2.534   6.126  0.5707 -2.5134  0.9411
 7365TIP3    H243511   1.613   2.417   6.029 -1.7983 -1.2028 -0.8577
 7366TIP3   OH243512   4.492   6.116   5.078 -0.1256  0.1885  0.1983
 7366TIP3    H143513   4.412   6.126   5.026 -0.8822 -1.9568  0.8608
 7366TIP3    H243514   4.534   6.202   5.076 -2.4836  1.3748 -0.1296
 7367TIP3   OH243515   5.697   0.853  17.200 -0.6109  0.0214  0.3649
 7367TIP3    H143516   5.739   0.819  17.121 -1.0919 -0.5360  0.3472
 7367TIP3    H243517   5.743   0.935  17.218  2.2478 -1.7970  1.7952
 7368TIP3   OH243518   2.018   4.000  10.821 -0.1118 -0.2712 -0.0463
 7368TIP3    H143519   2.030   4.079  10.769 -0.5494 -0.5417 -0.5625
 7368TIP3    H243520   2.080   3.937  10.786 -2.2665 -1.3537 -2.0816
 7369TIP3   OH243521   1.185   4.634  14.036 -0.2491 -0.0895  0.2995
 7369TIP3    H143522   1.270   4.647  14.077  0.0707 -1.2911  0.0353
 7369TIP3    H243523   1.198   4.660  13.944 -0.0999 -0.5494  0.1936
 7370TIP3   OH243524   0.749   2.514  14.760  0.1967  0.1386 -0.0878
 7370TIP3    H143525   0.730   2.607  14.744  1.5179  0.3666 -0.3346
 7370TIP3    H243526   0.719   2.499  14.850  0.4147  0.9202  0.1179
 7371TIP3   OH243527   4.104   4.258  14.352  0.7532 -0.2823  0.0362
 7371TIP3    H143528   4.016   4.262  14.315  0.3541 -2.8072  0.6291
 7371TIP3    H243529   4.154   4.205  14.289  1.4387 -0.1864  0.4961
 7372TIP3   OH243530   3.066   5.517  12.610  0.2961  0.0605 -0.5594
 7372TIP3    H143531   3.060   5.583  12.541 -0.4185  0.9720  0.3569
 7372TIP3    H243532   3.147   5.537  12.656 -0.3699  0.8963  0.2893
 7373TIP3   OH243533   1.054   4.818  11.080  0.0402  0.2025 -0.4566
 7373TIP3    H143534   1.081   4.807  10.989 -0.1895  0.5046 -0.5595
 7373TIP3    H243535   1.030   4.910  11.088 -1.0765 -0.0730 -0.4025
 7374TIP3   OH243536   1.887   1.199   5.550 -0.3469  0.3216 -0.2645
 7374TIP3    H143537   1.840   1.220   5.469 -1.3469 -1.2701 -0.1369
 7374TIP3    H243538   1.977   1.225   5.533 -0.9213  1.7422 -1.1965
 7375TIP3   OH243539   0.109   5.975  16.868 -0.2118 -0.2800 -0.1206
 7375TIP3    H143540   0.114   6.066  16.898 -1.2773 -0.2860  0.0955
 7375TIP3    H243541   0.110   5.981  16.772  0.4107 -0.0839 -0.1054
 7376TIP3   OH243542   4.822   1.045  12.382  0.0880  0.3129  0.2726
 7376TIP3    H143543   4.782   1.107  12.321  0.7560 -0.0814 -0.5854
 7376TIP3    H243544   4.804   0.959  12.345  0.2437  0.0519  0.7930
 7377TIP3   OH243545   1.564   4.729  12.042 -0.0058  0.4303  0.3499
 7377TIP3    H143546   1.611   4.672  11.981  1.3391  2.5182 -0.6099
 7377TIP3    H243547   1.482   4.750  11.997 -0.7783 -1.1644  0.9565
 7378TIP3   OH243548   0.438   0.722   6.468 -0.1357  0.6714 -0.4496
 7378TIP3    H143549   0.369   0.666   6.432  0.2048 -0.1533  0.1697
 7378TIP3    H243550   0.468   0.773   6.393 -0.5759  0.1599 -0.9811
 7379TIP3   OH243551   6.063   2.160   5.083  0.1995 -0.1065 -0.6798
 7379TIP3    H143552   5.974   2.143   5.116  0.5518  0.2979  0.5230
 7379TIP3    H243553   6.119   2.149   5.160  0.9219  2.0327 -0.8750
 7380TIP3   OH243554   3.093   4.534  14.271  0.1784 -0.9129 -0.1025
 7380TIP3    H143555   3.055   4.609  14.224  0.6019 -0.0818  0.8598
 7380TIP3    H243556   3.143   4.487  14.204  2.0608  1.1263 -0.1983
 7381TIP3   OH243557   2.350   0.629   4.066  0.1371  0.5437  0.7498
 7381TIP3    H143558   2.437   0.633   4.106  0.0790  0.1722  0.9115
 7381TIP3    H243559   2.299   0.694   4.114  0.5426  1.3463  0.1162
 7382TIP3   OH243560   2.453   5.139   6.115 -0.0382  0.4622 -0.2918
 7382TIP3    H143561   2.512   5.209   6.143 -0.0897  0.9140 -1.2774
 7382TIP3    H243562   2.510   5.073   6.076 -0.0726  0.3563 -0.1640
 7383TIP3   OH243563   2.209   0.057   1.559  0.1286 -0.7072 -0.2042
 7383TIP3    H143564   2.236  -0.013   1.499  1.3165 -2.2623  2.0349
 7383TIP3    H243565   2.278   0.123   1.551  0.3834 -0.9956 -0.4188
 7384TIP3   OH243566   4.583   3.769  12.746  0.6335  0.3215  0.3760
 7384TIP3    H143567   4.592   3.686  12.699  1.7330  2.2173 -2.9498
 7384TIP3    H243568   4.491   3.771  12.773  0.6251 -1.9983  0.6717
 7385TIP3   OH243569   2.434   5.809  12.101  0.2681  0.3932 -0.2060
 7385TIP3    H143570   2.508   5.837  12.155 -0.9274  0.8698  1.2380
 7385TIP3    H243571   2.360   5.858  12.136 -0.8628 -0.6091 -1.1632
 7386TIP3   OH243572   5.354   4.384   6.579 -0.3614 -0.0674 -0.3362
 7386TIP3    H143573   5.288   4.453   6.590 -0.3786 -0.0439 -0.6014
 7386TIP3    H243574   5.313   4.320   6.522  0.6023  0.9418 -2.2270
 7387TIP3   OH243575   0.810   2.956  16.622  0.0068  0.2696 -0.0796
 7387TIP3    H143576   0.748   2.938  16.551 -0.7469 -0.5755  0.7843
 7387TIP3    H243577   0.865   2.878  16.626 -0.3793  0.0329  0.7047
 7388TIP3   OH243578   6.559   6.519  12.708 -0.2117 -0.2924  0.0670
 7388TIP3    H143579   6.544   6.522  12.802  1.4868 -0.2443  0.3390
 7388TIP3    H243580   6.619   6.446  12.695  0.1116  0.1299 -0.9130
 7389TIP3   OH243581   2.899   3.048   6.028 -0.7391 -0.0333  0.3577
 7389TIP3    H143582   2.918   3.077   5.939  0.1586  0.8000  0.8117
 7389TIP3    H243583   2.901   3.128   6.080  4.1265 -1.1189  2.0473
 7390TIP3   OH243584   3.676   2.645  15.016  0.2769  0.2686  0.4640
 7390TIP3    H143585   3.580   2.638  15.022  0.4568 -2.4091  0.8119
 7390TIP3    H243586   3.694   2.647  14.923 -0.0100 -1.3747  0.3612
 7391TIP3   OH243587   5.509   0.287   4.185 -0.6338 -0.2174  0.7260
 7391TIP3    H143588   5.595   0.246   4.193 -0.0607  0.8893  0.2163
 7391TIP3    H243589   5.517   0.348   4.112 -1.8289 -0.0335  0.7265
 7392TIP3   OH243590   5.126   2.638  11.773 -0.8483 -0.0872 -0.1627
 7392TIP3    H143591   5.126   2.560  11.828 -2.7894  0.1318  0.1766
 7392TIP3    H243592   5.123   2.605  11.683 -0.9864 -0.4030 -0.0419
 7393TIP3   OH243593   6.777   6.501   5.463 -0.0545  0.1737  0.2228
 7393TIP3    H143594   6.752   6.538   5.378  0.3703  0.2948  0.1504
 7393TIP3    H243595   6.870   6.479   5.453 -0.5805 -1.9963 -0.1344
 7394TIP3   OH243596   4.855   4.889   1.426 -0.3593 -0.5682  0.1330
 7394TIP3    H143597   4.787   4.904   1.492  0.2107  2.6409  0.0875
 7394TIP3    H243598   4.837   4.954   1.358  3.0620  0.7613  0.4082
 7395TIP3   OH243599   4.324   4.784  13.540  0.4973  0.0143 -0.0477
 7395TIP3    H143600   4.314   4.848  13.610 -0.8732  1.0095 -1.1123
 7395TIP3    H243601   4.312   4.699  13.583 -2.9811  0.7162  0.5029
 7396TIP3   OH243602   1.439   4.502   0.384 -0.3862  0.0188  0.2383
 7396TIP3    H143603   1.498   4.446   0.434  0.6119  1.5208  0.7550
 7396TIP3    H243604   1.356   4.454   0.383  0.6054 -1.7139  0.2092
 7397TIP3   OH243605   1.620   3.085   2.311 -0.6369 -0.2242 -0.4472
 7397TIP3    H143606   1.568   3.142   2.367  2.7860  0.4447  2.2099
 7397TIP3    H243607   1.600   2.996   2.342 -1.9620 -0.1577 -1.0680
 7398TIP3   OH243608   2.341   2.275  15.442 -0.2152  0.1116  0.2785
 7398TIP3    H143609   2.365   2.363  15.413  1.0249 -0.6133 -0.9730
 7398TIP3    H243610   2.418   2.244  15.489 -0.7718 -0.1879  0.9981
 7399TIP3   OH243611   2.605   0.228   3.791  0.4132  0.2580  0.1237
 7399TIP3    H143612   2.626   0.206   3.881  0.2259  0.4522  0.2135
 7399TIP3    H243613   2.594   0.143   3.747 -1.1702  0.1688  0.6656
 7400TIP3   OH243614   3.697   6.579  16.005 -0.9687  0.2028  0.2224
 7400TIP3    H143615   3.719   6.533  16.086 -2.9117 -0.4129  0.4204
 7400TIP3    H243616   3.736   6.665  16.015  0.1535 -0.3951  1.1294
 7401TIP3   OH243617   0.191   3.030   0.011 -0.3869  1.0477 -0.4154
 7401TIP3    H143618   0.280   3.009   0.041 -1.1744 -1.4176  0.2858
 7401TIP3    H243619   0.181   2.981  -0.070 -1.4595  0.4918  0.0464
 7402TIP3   OH243620   2.384   1.656   4.864  0.4350 -0.0254  0.1920
 7402TIP3    H143621   2.318   1.590   4.887  1.8602 -0.7773  2.2413
 7402TIP3    H243622   2.341   1.739   4.880 -0.2856 -0.5013  0.7800
 7403TIP3   OH243623   1.672   5.617   5.783 -0.7570 -0.1803 -0.2366
 7403TIP3    H143624   1.640   5.527   5.787 -0.5892 -0.3192 -1.5617
 7403TIP3    H243625   1.715   5.623   5.697 -0.0723  0.9288  0.1757
 7404TIP3   OH243626   1.891   2.999  15.808 -0.1164  0.5592 -0.4969
 7404TIP3    H143627   1.812   3.039  15.772  0.1708  2.9190  1.3296
 7404TIP3    H243628   1.881   3.006  15.903  1.3658 -0.9868 -0.1906
 7405TIP3   OH243629   0.590   1.552  15.087  0.5155  0.4357  0.0630
 7405TIP3    H143630   0.530   1.568  15.014  0.4626  0.8189  0.1875
 7405TIP3    H243631   0.562   1.468  15.123  1.5936 -0.5688 -1.3952
 7406TIP3   OH243632   6.139   4.651   1.628 -0.5299  0.4313 -0.1936
 7406TIP3    H143633   6.174   4.601   1.703  3.6036 -0.5110 -2.5555
 7406TIP3    H243634   6.045   4.654   1.643 -0.0999 -1.7965  3.7979
 7407TIP3   OH243635   1.118   1.116  12.094 -1.0256  0.5875 -0.1532
 7407TIP3    H143636   1.023   1.129  12.094 -1.2072 -0.6649  0.2734
 7407TIP3    H243637   1.135   1.061  12.170  0.0309  0.7040 -0.2938
 7408TIP3   OH243638   2.251   5.052  13.301 -0.7487  0.3594  0.4217
 7408TIP3    H143639   2.294   4.979  13.257  0.5529  1.4877 -0.1925
 7408TIP3    H243640   2.311   5.076  13.371 -1.6231  0.2426  1.2283
 7409TIP3   OH243641   6.449   4.812   3.993  0.9767  0.3114 -0.5645
 7409TIP3    H143642   6.456   4.742   3.928 -1.2645 -0.3705 -0.0991
 7409TIP3    H243643   6.445   4.892   3.941 -0.7629 -0.2258 -1.2925
 7410TIP3   OH243644   2.186   2.018   5.834 -0.1753 -0.2447 -0.3484
 7410TIP3    H143645   2.235   1.938   5.817 -1.5016 -1.2621  0.4347
 7410TIP3    H243646   2.138   2.035   5.752 -0.6137 -0.7873 -0.2080
 7411TIP3   OH243647   5.941   2.517   1.251  0.0792  0.0204 -0.6659
 7411TIP3    H143648   6.001   2.590   1.259  0.6779 -0.3106 -1.9654
 7411TIP3    H243649   5.872   2.534   1.315  0.9863  0.9576  0.0584
 7412TIP3   OH243650   5.794   6.484  16.418  0.3918  0.0496 -0.1809
 7412TIP3    H143651   5.751   6.437  16.347  2.6007 -3.9420  0.9318
 7412TIP3    H243652   5.868   6.528  16.377 -0.4864  0.8089 -0.9399
 7413TIP3   OH243653   5.272   4.336  14.383  0.5350 -0.1078 -0.1679
 7413TIP3    H143654   5.343   4.340  14.319  1.3505 -0.3041  0.7102
 7413TIP3    H243655   5.263   4.242  14.403  2.2335  0.1852  2.1301
 7414TIP3   OH243656   3.100   4.901   3.992  0.4601  0.1703 -0.1992
 7414TIP3    H143657   3.154   4.938   3.922 -1.0424  0.1906 -1.3867
 7414TIP3    H243658   3.083   4.811   3.965 -1.2021  0.5679 -0.5272
 7415TIP3   OH243659   0.644   4.590   4.846  0.2648  0.9418 -0.2989
 7415TIP3    H143660   0.675   4.520   4.903 -2.6114  0.4434  0.7172
 7415TIP3    H243661   0.676   4.670   4.887  1.2273  0.4044  0.0337
 7416TIP3   OH243662   2.052   2.509   5.100  0.0938 -0.7426  0.3406
 7416TIP3    H143663   2.105   2.533   5.024 -3.3832  2.1956 -1.2943
 7416TIP3    H243664   1.989   2.445   5.066 -0.2481 -0.8737  1.2036
 7417TIP3   OH243665   6.781   1.360  12.135  0.1427  0.3379  0.2934
 7417TIP3    H143666   6.771   1.309  12.054  0.0136 -1.6590  1.5266
 7417TIP3    H243667   6.738   1.443  12.116 -0.6921 -0.4477 -1.3878
 7418TIP3   OH243668   1.685   0.641   0.761  0.2256 -0.0794  0.0780
 7418TIP3    H143669   1.722   0.623   0.674 -1.3952 -1.1129 -0.4073
 7418TIP3    H243670   1.733   0.719   0.791  0.0386  0.9669 -2.2093
 7419TIP3   OH243671   5.990   5.569  16.395  0.4960  0.0342  0.4417
 7419TIP3    H143672   6.034   5.551  16.478  0.5531 -0.7584  0.2453
 7419TIP3    H243673   6.061   5.577  16.331  0.5161  1.7486  0.6574
 7420TIP3   OH243674   5.144   2.266  16.304  0.3297  0.0427  0.3613
 7420TIP3    H143675   5.212   2.199  16.317  0.9057  0.7458  0.9905
 7420TIP3    H243676   5.084   2.255  16.377  0.5453  0.3617  0.5855
 7421TIP3   OH243677   2.220   0.580  12.527 -0.1012 -0.3445  0.4782
 7421TIP3    H143678   2.304   0.606  12.488 -0.9948  1.2815 -0.4298
 7421TIP3    H243679   2.215   0.632  12.608 -0.0643 -0.7348  0.7327
 7422TIP3   OH243680   2.541   0.924  15.758 -0.0924 -0.4565 -0.2342
 7422TIP3    H143681   2.536   0.917  15.662  0.3553 -1.8968 -0.1719
 7422TIP3    H243682   2.461   0.883  15.789 -0.3866  0.2982  0.0024
 7423TIP3   OH243683   6.447   0.069  16.707 -0.1436  0.2619  0.1310
 7423TIP3    H143684   6.369   0.116  16.675  0.6389  0.9778 -0.7513
 7423TIP3    H243685   6.437   0.068  16.802  0.5126  3.4492  0.2870
 7424TIP3   OH243686   4.743   5.797  16.392 -0.4569  0.0308  0.6709
 7424TIP3    H143687   4.767   5.746  16.315  1.0596  1.2335  0.3211
 7424TIP3    H243688   4.669   5.750  16.430  0.9877 -2.4837  0.4685
 7425TIP3   OH243689   4.965   5.396   2.034  0.0242 -0.1080  0.5822
 7425TIP3    H143690   4.924   5.482   2.044 -0.7358 -0.3525 -0.3163
 7425TIP3    H243691   4.916   5.339   2.093 -0.8032 -0.3471 -0.3119
 7426TIP3   OH243692   5.882   2.272  11.921 -0.0758 -0.1601  0.7558
 7426TIP3    H143693   5.898   2.198  11.979 -2.3525 -1.3032 -0.0296
 7426TIP3    H243694   5.889   2.349  11.977 -0.1538 -1.1104  2.0916
 7427TIP3   OH243695   2.479   2.352  11.226 -0.4254  0.1389  0.5425
 7427TIP3    H143696   2.547   2.386  11.168  0.0884 -0.9202  0.5046
 7427TIP3    H243697   2.439   2.281  11.176 -1.2042  0.4164  0.7717
 7428TIP3   OH243698   5.729   0.284  14.902  0.2372  0.3822 -0.3963
 7428TIP3    H143699   5.701   0.196  14.928 -0.5258  0.7589  0.0708
 7428TIP3    H243700   5.817   0.293  14.939  0.4215 -0.2768 -0.6569
 7429TIP3   OH243701   1.238   5.769  11.658  0.0335 -0.4715  0.0960
 7429TIP3    H143702   1.326   5.734  11.672  1.5546  3.6439  1.5951
 7429TIP3    H243703   1.188   5.740  11.735  1.0769  0.0652  0.9909
 7430TIP3   OH243704   6.176   4.390  12.236 -0.4346 -0.8842 -0.0678
 7430TIP3    H143705   6.188   4.301  12.204 -2.9558 -1.5008  0.5425
 7430TIP3    H243706   6.222   4.445  12.172  0.0858 -2.5259 -1.1426
 7431TIP3   OH243707   6.424   0.761  15.085 -0.7327 -0.5885 -0.0437
 7431TIP3    H143708   6.330   0.773  15.072 -0.8551 -0.3312  1.0461
 7431TIP3    H243709   6.448   0.830  15.147 -0.0042 -1.2540  0.4229
 7432TIP3   OH243710   5.388   5.062   3.312 -0.8909  0.3699  0.4762
 7432TIP3    H143711   5.459   5.110   3.356  1.0365  1.6416 -3.7943
 7432TIP3    H243712   5.333   5.131   3.275 -0.0831 -0.6314 -2.6925
 7433TIP3   OH243713   2.011   2.873  15.233 -0.0583  0.0076 -0.5838
 7433TIP3    H143714   1.918   2.888  15.251 -0.2762 -0.3643 -1.3928
 7433TIP3    H243715   2.046   2.960  15.212 -0.4843 -0.0272 -1.4566
 7434TIP3   OH243716   5.474   3.069  16.210  0.5806 -0.1163 -0.1256
 7434TIP3    H143717   5.432   3.001  16.157 -0.5362 -0.0799  0.6810
 7434TIP3    H243718   5.454   3.044  16.300  2.6479 -0.3054  0.3113
 7435TIP3   OH243719   0.338   3.600   1.437  0.5274 -0.1364  0.6062
 7435TIP3    H143720   0.425   3.629   1.407  0.9684 -1.3732  0.6581
 7435TIP3    H243721   0.357   3.529   1.499 -0.5456 -0.9242  0.0460
 7436TIP3   OH243722   1.380   5.449   0.361 -0.5361 -0.0182  0.0967
 7436TIP3    H143723   1.469   5.424   0.385 -0.3361 -1.5728 -2.0669
 7436TIP3    H243724   1.390   5.497   0.279 -1.6724  0.0011 -0.0379
 7437TIP3   OH243725   2.891   0.440   4.869 -0.0246  0.0019 -0.4177
 7437TIP3    H143726   2.887   0.352   4.907 -0.8793  0.9510  1.7660
 7437TIP3    H243727   2.818   0.442   4.807 -0.2878 -0.6671 -0.1365
 7438TIP3   OH243728   3.806   5.902  11.335 -0.5881 -0.0083 -0.3730
 7438TIP3    H143729   3.873   5.899  11.267 -0.5512 -0.4648 -0.3162
 7438TIP3    H243730   3.799   5.995  11.358 -1.2414  0.2654 -1.6261
 7439TIP3   OH243731   1.942   2.199  17.159  0.0516  0.5022 -0.2388
 7439TIP3    H143732   1.942   2.283  17.113 -2.7014  1.1239  0.7879
 7439TIP3    H243733   1.890   2.141  17.104 -0.9935  0.4821  0.7492
 7440TIP3   OH243734   0.372   4.573   1.904  0.5929  0.5936 -0.0792
 7440TIP3    H143735   0.363   4.479   1.914 -1.7137  0.4819 -2.6981
 7440TIP3    H243736   0.297   4.609   1.952  1.0726  1.0670  0.3200
 7441TIP3   OH243737   6.444   1.120  17.056 -0.5780  0.4472  0.0870
 7441TIP3    H143738   6.471   1.067  17.131  0.8163 -0.2109 -0.8664
 7441TIP3    H243739   6.432   1.057  16.985  0.6521  1.3378 -0.9383
 7442TIP3   OH243740   4.635   2.967   3.763 -0.4818 -0.7379  0.1729
 7442TIP3    H143741   4.725   2.962   3.795 -0.6001 -1.0539  0.4627
 7442TIP3    H243742   4.634   3.043   3.705 -0.4088  0.1886  1.3659
 7443TIP3   OH243743   3.147   5.481   4.768 -0.0883  0.2045 -0.5615
 7443TIP3    H143744   3.106   5.414   4.823 -0.8805 -0.3809 -1.8412
 7443TIP3    H243745   3.074   5.537   4.741  0.5014  1.3074  0.0887
 7444TIP3   OH243746   2.875   4.013   2.931 -0.5608  0.4059 -0.1500
 7444TIP3    H143747   2.951   3.963   2.900 -0.4950  1.0568 -1.0817
 7444TIP3    H243748   2.913   4.088   2.977 -0.6480  0.3580  0.0002
 7445TIP3   OH243749   5.503   1.610  11.025  0.4124  0.3738  0.3209
 7445TIP3    H143750   5.485   1.703  11.014  1.4963  0.3334 -2.0753
 7445TIP3    H243751   5.597   1.602  11.011  0.1883 -1.1882 -0.4176
 7446TIP3   OH243752   6.194   6.458  13.580  0.0978 -0.0979 -0.0262
 7446TIP3    H143753   6.244   6.405  13.643  0.9844 -0.4332 -1.0055
 7446TIP3    H243754   6.209   6.548  13.609  1.3315 -0.1880 -0.3351
 7447TIP3   OH243755   6.173   2.165   5.728 -0.4309 -0.1428  0.2749
 7447TIP3    H143756   6.258   2.197   5.697 -0.3487 -0.3944  0.2411
 7447TIP3    H243757   6.188   2.143   5.820 -0.5439  0.1184  0.3578
 7448TIP3   OH243758   1.656   6.780  14.387 -0.0752  0.8296 -0.0836
 7448TIP3    H143759   1.622   6.800  14.300  1.1024 -1.7333 -1.1897
 7448TIP3    H243760   1.585   6.802  14.447 -1.5780  0.8722 -1.8528
 7449TIP3   OH243761   0.239   5.862   2.995  0.1148  0.3770 -0.2470
 7449TIP3    H143762   0.195   5.786   2.957  1.2669 -0.8935  0.8703
 7449TIP3    H243763   0.181   5.889   3.066 -1.2718  1.7907 -1.8882
 7450TIP3   OH243764   5.242   5.326   2.120  0.4175  0.2687 -0.1503
 7450TIP3    H143765   5.192   5.280   2.187  2.0400 -0.5268  0.5646
 7450TIP3    H243766   5.182   5.391   2.084 -0.5648  0.5343  1.9133
 7451TIP3   OH243767   1.468   1.934   2.010  0.2008  0.1850  0.0960
 7451TIP3    H143768   1.563   1.923   2.011  0.2812  0.9085  0.4663
 7451TIP3    H243769   1.433   1.846   2.025  0.8080 -0.1093 -0.2015
 7452TIP3   OH243770   5.727   3.177  14.028 -0.3432  0.2372 -0.4249
 7452TIP3    H143771   5.774   3.116  13.971 -0.7085  0.2967 -0.7859
 7452TIP3    H243772   5.692   3.122  14.098  2.2140  0.4949  1.1151
 7453TIP3   OH243773   2.478   6.514   2.120  0.1411  0.9200  0.1221
 7453TIP3    H143774   2.385   6.507   2.097  0.2645  1.8842 -0.7183
 7453TIP3    H243775   2.481   6.490   2.213 -0.7436 -0.4372 -0.1853
 7454TIP3   OH243776   6.753   5.020   4.559 -0.7077 -0.5907  0.0802
 7454TIP3    H143777   6.734   5.110   4.585 -1.1570  0.6405 -4.1724
 7454TIP3    H243778   6.839   5.002   4.597  0.2108  2.3011 -0.4843
 7455TIP3   OH243779   0.899   5.908  16.763  0.0657 -0.2256  0.9293
 7455TIP3    H143780   0.922   5.821  16.730 -1.9897 -0.3453 -0.2981
 7455TIP3    H243781   0.862   5.954  16.687  0.2364  1.3923  1.7940
 7456TIP3   OH243782   5.204   4.275  13.931  0.0648 -0.3713  0.0323
 7456TIP3    H143783   5.185   4.289  14.024 -0.6669 -3.2810  0.3670
 7456TIP3    H243784   5.231   4.361  13.899  1.5465  0.4187  3.2223
 7457TIP3   OH243785   0.102   5.852  15.945  0.3537  0.0316 -0.1022
 7457TIP3    H143786   0.193   5.849  15.974  0.7573 -0.7045 -1.3942
 7457TIP3    H243787   0.051   5.823  16.021  1.2156  0.1840  0.5379
 7458TIP3   OH243788   4.261   4.034  16.617  0.6286 -0.0489 -0.0781
 7458TIP3    H143789   4.305   3.972  16.674  1.3250  0.7129  0.2145
 7458TIP3    H243790   4.243   3.985  16.537  0.6550 -0.7882  0.3709
 7459TIP3   OH243791   3.516   2.238   4.278  0.2788 -0.2209 -0.3318
 7459TIP3    H143792   3.521   2.237   4.182 -0.2466  0.3160 -0.3671
 7459TIP3    H243793   3.597   2.279   4.306 -0.1787  0.8762 -0.5985
 7460TIP3   OH243794   1.945   0.585  16.462 -0.0759 -0.1634  0.2483
 7460TIP3    H143795   1.959   0.649  16.393 -1.7549  0.5676  0.5547
 7460TIP3    H243796   1.897   0.513  16.420 -0.9001  0.1812  0.5788
 7461TIP3   OH243797   2.410   6.020   0.552 -0.1307  0.9159 -0.5079
 7461TIP3    H143798   2.481   6.054   0.497  1.3837  0.1124  0.9387
 7461TIP3    H243799   2.395   6.088   0.617  0.9195  0.0757  0.6178
 7462TIP3   OH243800   0.646   4.652   6.031 -0.5130  0.3916 -0.6046
 7462TIP3    H143801   0.657   4.584   6.098 -3.9804  0.7470  0.4062
 7462TIP3    H243802   0.620   4.603   5.953  0.3394  0.2696 -0.8175
 7463TIP3   OH243803   2.006   4.421   3.635  0.3715  0.3732  0.5539
 7463TIP3    H143804   2.027   4.474   3.711  0.3198  1.4285 -0.1613
 7463TIP3    H243805   1.932   4.368   3.663  1.2177 -0.2428  1.6771
 7464TIP3   OH243806   0.013   2.652  12.145 -0.3112  0.2089 -0.2600
 7464TIP3    H143807   0.087   2.618  12.095 -0.3700 -1.2849  0.6458
 7464TIP3    H243808  -0.062   2.645  12.085  0.1282  1.0023 -0.9069
 7465TIP3   OH243809   0.976   5.997   4.540 -0.0195  0.2509 -0.2974
 7465TIP3    H143810   1.070   6.003   4.556  0.4080 -2.3438 -1.5321
 7465TIP3    H243811   0.939   5.975   4.626  0.1235  3.8128  0.7729
 7466TIP3   OH243812   3.846   2.325   4.007  0.4234  0.1578 -0.0946
 7466TIP3    H143813   3.810   2.237   4.021  0.2836  0.2451  0.0834
 7466TIP3    H243814   3.934   2.309   3.971 -0.1272 -0.0487 -1.3906
 7467TIP3   OH243815   6.606   1.243   1.041  0.8044 -0.5574 -0.2871
 7467TIP3    H143816   6.629   1.296   0.965 -1.7609  2.1814  0.7497
 7467TIP3    H243817   6.530   1.192   1.012 -0.2895  0.6215  0.4304
 7468TIP3   OH243818   5.329   2.658   3.692  0.4572  0.2122 -0.3706
 7468TIP3    H143819   5.247   2.679   3.736  0.3078 -1.2565  0.0640
 7468TIP3    H243820   5.377   2.741   3.689 -0.0120  0.5574  1.5543
 7469TIP3   OH243821   1.910   1.115  17.009  0.6736  0.2320  0.0446
 7469TIP3    H143822   1.883   1.163  17.087  0.8093  2.1641 -1.0777
 7469TIP3    H243823   1.999   1.087  17.027  0.5357  0.2595  0.7649
 7470TIP3   OH243824   3.030   4.896  13.279  0.1678  0.5374 -0.3417
 7470TIP3    H143825   2.978   4.833  13.330  2.0819 -0.2977  0.6147
 7470TIP3    H243826   3.080   4.842  13.218  1.1002  1.2122 -0.1825
 7471TIP3   OH243827   1.067   0.743  13.098 -0.6115 -0.1866 -0.4492
 7471TIP3    H143828   1.099   0.694  13.174 -0.0902 -0.2495 -0.7043
 7471TIP3    H243829   1.095   0.690  13.023 -1.2026 -0.1701 -0.6796
 7472TIP3   OH243830   5.786   5.157   4.246  0.4791 -0.4989 -0.3412
 7472TIP3    H143831   5.802   5.081   4.190 -2.6499 -1.1229 -0.4306
 7472TIP3    H243832   5.777   5.230   4.186 -0.5303 -0.7557 -0.4990
 7473TIP3   OH243833   5.172   6.411   2.219 -0.5163 -0.7170 -0.3992
 7473TIP3    H143834   5.109   6.345   2.191 -0.8351 -0.5768 -0.0163
 7473TIP3    H243835   5.178   6.472   2.146 -2.1858  0.2717  0.2599
 7474TIP3   OH243836   2.518   1.185  11.008  0.5138 -1.0226 -0.3613
 7474TIP3    H143837   2.537   1.105  11.056 -1.8493 -0.7226  1.1440
 7474TIP3    H243838   2.434   1.168  10.965 -0.5492  1.0181  0.8478
 7475TIP3   OH243839   4.964   4.090  14.095 -0.0900 -0.3564  0.0356
 7475TIP3    H143840   5.020   4.047  14.030  0.3624 -1.5229  1.1714
 7475TIP3    H243841   5.024   4.141  14.149 -0.4768  0.6819 -0.4808
 7476TIP3   OH243842   0.370   5.921  13.688  0.0418  0.0203 -0.3632
 7476TIP3    H143843   0.454   5.963  13.705  0.1125 -0.2920  0.0688
 7476TIP3    H243844   0.386   5.827  13.699 -0.1099 -0.1267 -1.3587
 7477TIP3   OH243845   5.882   6.207   0.261 -0.2781  0.2430 -0.1273
 7477TIP3    H143846   5.795   6.173   0.241  0.4357 -0.3758 -2.3507
 7477TIP3    H243847   5.925   6.136   0.308  0.3340 -1.0184 -2.5077
 7478TIP3   OH243848   4.231   6.127  10.880  0.6159  0.2100 -0.5603
 7478TIP3    H143849   4.316   6.084  10.893  0.1675 -0.5960 -0.2261
 7478TIP3    H243850   4.200   6.094  10.796 -0.7905 -1.9847  0.7573
 7479TIP3   OH243851   4.863   4.216   0.273 -0.4038  0.0353 -0.1756
 7479TIP3    H143852   4.903   4.153   0.333 -1.3819 -0.3321  0.1099
 7479TIP3    H243853   4.830   4.162   0.201  2.8409  0.6995 -2.2561
 7480TIP3   OH243854   1.008   3.160  16.988 -0.1662  0.2908 -0.0658
 7480TIP3    H143855   1.099   3.167  17.016 -0.9974 -0.0748  2.8398
 7480TIP3    H243856   1.012   3.109  16.907  2.4025  2.3851 -1.3429
 7481TIP3   OH243857   0.886   0.777  15.006 -0.1295  0.2609  0.5295
 7481TIP3    H143858   0.831   0.809  14.935  0.7587 -1.1031 -0.8150
 7481TIP3    H243859   0.975   0.796  14.978  0.2879 -1.2385  0.7577
 7482TIP3   OH243860   4.707   5.722   1.851 -0.2601 -0.4323 -0.1932
 7482TIP3    H143861   4.653   5.801   1.845 -0.5180 -0.5726  0.3231
 7482TIP3    H243862   4.653   5.654   1.812  0.4527 -0.1060 -1.7927
 7483TIP3   OH243863   5.340   1.003   3.493 -0.6572 -0.4374 -0.1014
 7483TIP3    H143864   5.392   0.929   3.524 -1.2916 -1.2339 -0.8841
 7483TIP3    H243865   5.288   0.966   3.421 -3.4183 -0.0666  1.6194
 7484TIP3   OH243866   2.023   0.459  16.969 -0.3387  0.5107  0.9985
 7484TIP3    H143867   2.103   0.438  17.016  0.3840  0.1720 -0.3433
 7484TIP3    H243868   1.979   0.524  17.024 -0.0138 -0.5860  2.5935
 7485TIP3   OH243869   1.891   6.702   0.467 -0.0696  0.8581 -0.6811
 7485TIP3    H143870   1.916   6.794   0.473  0.4893  0.6055  1.2406
 7485TIP3    H243871   1.974   6.655   0.476 -0.6526  0.1184  0.9500
 7486TIP3   OH243872   2.421   0.819   1.337  0.5564  0.9322 -0.4507
 7486TIP3    H143873   2.397   0.761   1.264  1.4295  1.8183 -1.4755
 7486TIP3    H243874   2.345   0.877   1.347 -0.7777 -1.0568  1.3109
 7487TIP3   OH243875   3.895   4.239  11.741  0.9297  0.5019  0.7919
 7487TIP3    H143876   3.894   4.257  11.647 -1.2864 -0.7460  0.5372
 7487TIP3    H243877   3.949   4.308  11.778 -0.4043  2.6322 -1.0941
 7488TIP3   OH243878   0.505   3.365  11.201  0.3679 -0.5263  0.4612
 7488TIP3    H143879   0.420   3.363  11.157  1.2187 -0.4827 -1.2388
 7488TIP3    H243880   0.500   3.297  11.268 -0.1300 -2.2680 -1.2984
 7489TIP3   OH243881   3.781   0.214   0.205  0.5489  0.1488 -0.1240
 7489TIP3    H143882   3.815   0.286   0.258  1.9999 -0.2746 -0.4769
 7489TIP3    H243883   3.806   0.135   0.252  0.2479 -0.1778 -0.5096
 7490TIP3   OH243884   2.552   0.880  15.184  0.0296  0.3391  0.0588
 7490TIP3    H143885   2.630   0.842  15.143  1.9853  0.6333  3.3258
 7490TIP3    H243886   2.587   0.945  15.245 -2.6492 -1.0755  3.2115
 7491TIP3   OH243887   6.345   6.619   3.914  0.5187  0.1591  0.0121
 7491TIP3    H143888   6.319   6.702   3.955  0.5357  0.2499 -0.1567
 7491TIP3    H243889   6.383   6.567   3.985 -2.3338 -0.9428  0.7778
 7492TIP3   OH243890   2.425   2.223  15.870  0.3163 -1.0237 -0.0987
 7492TIP3    H143891   2.433   2.307  15.915 -0.3744 -0.9314 -0.1479
 7492TIP3    H243892   2.468   2.161  15.929  1.5874 -0.5003 -0.4605
 7493TIP3   OH243893   3.757   3.995  15.855  0.1868  0.3069  0.2941
 7493TIP3    H143894   3.773   4.068  15.795  0.6515  1.5376  1.8927
 7493TIP3    H243895   3.675   3.956  15.824 -0.5193  2.0443 -0.0368
 7494TIP3   OH243896   0.595   3.825   5.712  0.0272  0.5094  0.2233
 7494TIP3    H143897   0.556   3.789   5.632  0.5119 -0.6840  0.5152
 7494TIP3    H243898   0.666   3.765   5.734 -0.4489  0.5140  1.8647
 7495TIP3   OH243899   4.027   4.335   4.167 -0.4969  0.6420  0.3682
 7495TIP3    H143900   4.062   4.408   4.116  1.1153 -1.5568 -1.7903
 7495TIP3    H243901   4.018   4.370   4.256  0.0522  3.4959 -0.6483
 7496TIP3   OH243902   0.306   4.162  11.256 -0.5028  0.2698 -0.5983
 7496TIP3    H143903   0.375   4.142  11.193 -0.1983 -1.6504  0.3178
 7496TIP3    H243904   0.290   4.079  11.302 -2.7785  0.9134 -0.1715
 7497TIP3   OH243905   4.480   5.164   4.561  0.9628  0.3091 -0.0542
 7497TIP3    H143906   4.503   5.184   4.651  2.4563  0.2465 -0.4132
 7497TIP3    H243907   4.386   5.147   4.563  0.9875  0.3551  1.4765
 7498TIP3   OH243908   4.883   3.968   1.122 -0.0368 -0.1286  0.2246
 7498TIP3    H143909   4.837   3.918   1.054 -1.3182  1.4774 -0.1095
 7498TIP3    H243910   4.871   3.916   1.201 -1.4894 -0.3187 -0.0906
 7499TIP3   OH243911   3.952   5.706   5.679  0.3687  0.0289  0.2066
 7499TIP3    H143912   3.972   5.640   5.745  0.4979 -0.6998 -0.5400
 7499TIP3    H243913   4.021   5.694   5.613 -1.3097 -1.0896 -1.3793
 7500TIP3   OH243914   0.789   4.503  15.450 -0.0253  0.1239  0.4516
 7500TIP3    H143915   0.749   4.416  15.459  1.2544 -0.4069  1.0454
 7500TIP3    H243916   0.716   4.564  15.464 -0.8307 -0.8358  0.5410
 7501TIP3   OH243917   3.748   6.634   2.023  0.0359  0.0971  0.1889
 7501TIP3    H143918   3.815   6.699   2.006 -0.9708  1.0358 -0.2697
 7501TIP3    H243919   3.669   6.685   2.040 -0.4764 -0.9774  1.1283
 7502TIP3   OH243920   1.892   5.030  16.273 -0.2456 -0.1120 -0.5179
 7502TIP3    H143921   1.961   5.092  16.251 -0.7769  0.7176  0.1118
 7502TIP3    H243922   1.937   4.947  16.289  0.6115  0.4582  0.0113
 7503TIP3   OH243923   5.359   2.773   4.760  0.2399 -0.1641  0.3468
 7503TIP3    H143924   5.354   2.867   4.779 -0.7621 -0.4582  1.6535
 7503TIP3    H243925   5.424   2.766   4.691 -0.4896  1.6111 -0.5645
 7504TIP3   OH243926   3.303   1.307   5.064  0.4631  0.1720  0.3200
 7504TIP3    H143927   3.371   1.362   5.104  1.0569  0.7417 -1.4157
 7504TIP3    H243928   3.349   1.227   5.037 -0.0189 -0.3920  1.1533
 7505TIP3   OH243929   5.129   6.418   5.612 -0.5318 -0.9422 -0.1263
 7505TIP3    H143930   5.161   6.506   5.633  0.3259 -1.4395  0.7378
 7505TIP3    H243931   5.141   6.410   5.518  0.7593 -0.6544  0.0022
 7506TIP3   OH243932   0.961   5.790   1.755  0.5124  0.0264 -0.4344
 7506TIP3    H143933   0.866   5.799   1.755  0.4862 -0.0873  1.2639
 7506TIP3    H243934   0.993   5.875   1.724 -0.1053  0.6089  0.5151
 7507TIP3   OH243935   1.132   5.184  12.663 -0.2979  0.1886  0.0452
 7507TIP3    H143936   1.206   5.242  12.642 -0.8210  0.8932  0.1255
 7507TIP3    H243937   1.167   5.123  12.728  0.6451 -0.4661 -1.0663
 7508TIP3   OH243938   0.196   0.098  12.014 -0.1762  0.8561 -0.3299
 7508TIP3    H143939   0.269   0.096  11.951 -0.0560  0.9061 -0.1924
 7508TIP3    H243940   0.118   0.100  11.959 -0.0390  2.4293 -0.4757
 7509TIP3   OH243941   0.016   2.491   2.118  0.3229 -0.2227 -0.1954
 7509TIP3    H143942  -0.067   2.538   2.113  1.3136  1.6494  0.4543
 7509TIP3    H243943   0.034   2.485   2.212  0.4583 -1.4679 -0.2935
 7510TIP3   OH243944   6.247   5.711   3.494  0.2837 -0.4693 -0.3997
 7510TIP3    H143945   6.322   5.692   3.439  1.2621 -1.5779  1.2877
 7510TIP3    H243946   6.180   5.647   3.467  0.7715 -1.0348 -0.2686
 7511TIP3   OH243947   3.476   0.558   5.756  0.2646  0.1306  0.9178
 7511TIP3    H143948   3.387   0.574   5.787  0.5804  0.1293  1.8168
 7511TIP3    H243949   3.464   0.505   5.677 -0.4414 -2.0991  2.4670
 7512TIP3   OH243950   0.377   1.999   3.952  0.1450 -0.5046  0.2639
 7512TIP3    H143951   0.355   1.906   3.950 -1.7908 -0.0734  0.3436
 7512TIP3    H243952   0.340   2.035   3.872  1.7379  0.0328 -0.2454
 7513TIP3   OH243953   3.153   1.682  12.628 -0.1250  0.4804  0.9155
 7513TIP3    H143954   3.138   1.592  12.659 -2.0259  0.9732  1.4888
 7513TIP3    H243955   3.205   1.723  12.697 -2.0050  0.7523  2.2080
 7514TIP3   OH243956   3.704   0.428  16.577 -0.3256  0.6596 -0.0156
 7514TIP3    H143957   3.741   0.438  16.489  2.5753  0.0564  1.0694
 7514TIP3    H243958   3.709   0.333  16.594 -1.3720  0.7101  0.5917
 7515TIP3   OH243959   1.426   0.335   2.979 -0.4112 -0.1980 -0.3832
 7515TIP3    H143960   1.428   0.427   3.005  1.3740 -0.4076  0.3175
 7515TIP3    H243961   1.426   0.337   2.884 -1.8763  0.5377 -0.3767
 7516TIP3   OH243962   1.631   3.792  16.857  0.7099 -0.5765  0.2422
 7516TIP3    H143963   1.600   3.703  16.837 -0.3460  0.0711 -1.0411
 7516TIP3    H243964   1.576   3.821  16.929 -0.2854 -0.2339 -0.6397
 7517TIP3   OH243965   6.179   1.889  12.049  0.6878  0.3953 -0.0106
 7517TIP3    H143966   6.094   1.931  12.061  0.9129  1.2914 -1.4951
 7517TIP3    H243967   6.178   1.814  12.109 -2.2237 -1.2213 -1.9724
 7518TIP3   OH243968   6.341   1.493  11.525  0.4216 -0.1905 -0.1117
 7518TIP3    H143969   6.307   1.415  11.481 -1.5589 -0.1131  1.1960
 7518TIP3    H243970   6.435   1.480  11.528  0.1981 -2.1267 -0.6866
 7519TIP3   OH243971   5.261   2.448   4.977  0.1843  0.3405  0.3388
 7519TIP3    H143972   5.190   2.419   4.919  1.3279 -0.3176 -0.7420
 7519TIP3    H243973   5.247   2.399   5.058 -1.5722  1.4490  0.7285
 7520TIP3   OH243974   5.986   2.348   0.192 -0.4008 -0.1287  0.3554
 7520TIP3    H143975   5.919   2.368   0.258  0.5329 -0.0184  1.2975
 7520TIP3    H243976   5.949   2.379   0.110 -1.2403  0.5094  0.9581
 7521TIP3   OH243977   6.388   2.435  13.072 -0.0879 -0.1985  0.1327
 7521TIP3    H143978   6.469   2.389  13.050  0.5814  1.7506 -1.6725
 7521TIP3    H243979   6.319   2.380  13.037  0.3759 -2.1110  2.0842
 7522TIP3   OH243980   6.583   1.242  15.930  0.2273 -0.3265 -0.3299
 7522TIP3    H143981   6.653   1.238  15.995 -0.8088  1.0050  0.9072
 7522TIP3    H243982   6.525   1.169  15.951  0.0986 -0.1286  0.0004
 7523TIP3   OH243983   3.516   4.458  14.254 -0.6139 -0.3648  0.0703
 7523TIP3    H143984   3.452   4.512  14.302 -0.7067  1.0220 -1.5451
 7523TIP3    H243985   3.560   4.520  14.195 -0.0369 -1.8920 -1.1434
 7524TIP3   OH243986   4.903   0.863   6.011 -0.5878 -0.0014 -0.0585
 7524TIP3    H143987   4.984   0.868   6.060  0.5081  1.3745 -1.9467
 7524TIP3    H243988   4.874   0.954   6.001 -0.4354 -0.1891 -2.4788
 7525TIP3   OH243989   0.206   3.946  11.845  0.2846 -0.3589  0.1553
 7525TIP3    H143990   0.154   3.914  11.919  1.6642 -0.5372  1.0670
 7525TIP3    H243991   0.262   3.872  11.822  0.7841  0.1306 -0.2101
 7526TIP3   OH243992   1.813   0.824   2.613  0.2611 -0.4460  0.0227
 7526TIP3    H143993   1.851   0.747   2.655 -1.1642 -1.1930 -0.0212
 7526TIP3    H243994   1.795   0.796   2.523  0.6461  0.2459 -0.2758
 7527TIP3   OH243995   0.566   4.230   0.795  0.3842 -0.0651  0.2053
 7527TIP3    H143996   0.485   4.188   0.768  0.0843  1.3893 -1.2316
 7527TIP3    H243997   0.540   4.286   0.869  0.2280 -0.1520  0.2158
 7528TIP3   OH243998   1.190   2.782  16.519 -0.2666  0.0912 -0.1629
 7528TIP3    H143999   1.233   2.765  16.603 -1.8335  0.7162  0.7894
 7528TIP3    H244000   1.103   2.744  16.528  0.0892 -1.2821 -2.1289
 7529TIP3   OH244001   2.523   4.104   4.698 -0.1233 -0.1376  0.4893
 7529TIP3    H144002   2.582   4.102   4.774 -0.5379  0.0695  0.8190
 7529TIP3    H244003   2.436   4.113   4.736 -0.4293 -1.1347  0.0317
 7530TIP3   OH244004   2.502   6.723  13.327  0.2905  0.1094  0.5025
 7530TIP3    H144005   2.505   6.724  13.422 -1.2815  1.4665  0.5654
 7530TIP3    H244006   2.585   6.683  13.300  0.5039 -0.7939  2.4331
 7531TIP3   OH244007   1.502   3.378   6.185  0.2977 -0.2721 -0.2813
 7531TIP3    H144008   1.445   3.351   6.257  0.7070  1.0356  0.5375
 7531TIP3    H244009   1.449   3.365   6.107 -2.1471  3.4516  0.6404
 7532TIP3   OH244010   2.909   4.721  16.163  0.5028 -0.1372 -0.0760
 7532TIP3    H144011   2.966   4.692  16.235  0.1601 -0.2642  0.1478
 7532TIP3    H244012   2.963   4.714  16.085  1.3202  1.3195  0.3481
 7533TIP3   OH244013   3.090   4.458  12.612 -0.0569  0.2093 -0.2746
 7533TIP3    H144014   3.152   4.386  12.603  0.0749  0.3559 -0.5423
 7533TIP3    H244015   3.102   4.489  12.702  0.7319  0.6692 -0.5331
 7534TIP3   OH244016   2.906   4.694   1.539  0.2387 -0.0657  0.3190
 7534TIP3    H144017   2.990   4.673   1.498  0.1363 -0.9072  0.5206
 7534TIP3    H244018   2.922   4.774   1.588  0.7631  0.1079 -0.1331
 7535TIP3   OH244019   2.236   5.213   2.155  0.4196  0.3310  0.5052
 7535TIP3    H144020   2.292   5.205   2.232  0.5437  0.9422  0.4819
 7535TIP3    H244021   2.295   5.198   2.081  0.2821 -0.3491  0.5252
 7536TIP3   OH244022   4.830   0.277  11.820  0.1080 -0.4510 -0.0872
 7536TIP3    H144023   4.922   0.304  11.815  0.9671 -3.3561 -1.2408
 7536TIP3    H244024   4.796   0.292  11.732  0.0613 -1.2882 -0.2147
 7537TIP3   OH244025   2.349   3.274   0.209 -1.0043  0.0235  0.2189
 7537TIP3    H144026   2.355   3.183   0.238  0.3050  0.0803  0.1860
 7537TIP3    H244027   2.350   3.325   0.290  1.2247  0.1175  0.1791
 7538TIP3   OH244028   5.317   2.009  14.813 -0.1671 -0.2726  0.1427
 7538TIP3    H144029   5.321   1.914  14.818  0.2269 -0.2712 -0.0603
 7538TIP3    H244030   5.317   2.028  14.719  1.0191 -0.0343  0.1770
 7539TIP3   OH244031   0.200   1.920   4.363  0.4017  0.5879  0.5074
 7539TIP3    H144032   0.161   1.879   4.286 -0.9217 -0.2533  1.5849
 7539TIP3    H244033   0.130   1.974   4.399  1.3788  1.8912  0.4689
 7540TIP3   OH244034   5.793   3.000   0.850 -0.0919  0.1881 -0.2681
 7540TIP3    H144035   5.745   3.010   0.932  1.2623  1.5877  0.3835
 7540TIP3    H244036   5.779   3.083   0.804 -0.9836 -0.6525 -1.5418
 7541TIP3   OH244037   4.089   3.871   4.045  0.5731 -0.1080  0.8588
 7541TIP3    H144038   4.036   3.886   3.967  0.2318  1.7917  1.4364
 7541TIP3    H244039   4.156   3.808   4.017 -0.3257 -0.4352 -0.6027
 7542TIP3   OH244040   5.392   1.716   0.505  0.0111 -0.3497 -0.3476
 7542TIP3    H144041   5.351   1.758   0.581 -0.6552 -2.1927  0.3676
 7542TIP3    H244042   5.435   1.638   0.541 -1.4244 -1.9722 -2.0159
 7543TIP3   OH244043   3.715   5.420   4.239 -0.0048 -0.0636 -0.2568
 7543TIP3    H144044   3.767   5.416   4.319 -0.7482  1.1616  0.3131
 7543TIP3    H244045   3.669   5.336   4.236  0.5352 -0.3774  0.2546
 7544TIP3   OH244046   3.716   4.340  17.090  0.3717  0.5388  0.2655
 7544TIP3    H144047   3.688   4.415  17.036  1.5906 -0.5049 -1.8814
 7544TIP3    H244048   3.634   4.300  17.119 -0.3362  1.0448 -0.9593
 7545TIP3   OH244049   0.240   5.659   5.944  0.5995 -0.3401  0.4776
 7545TIP3    H144050   0.254   5.713   6.021  0.1059 -0.4964  0.6750
 7545TIP3    H244051   0.147   5.667   5.925  0.3420 -1.8675  1.0582
 7546TIP3   OH244052   0.435   3.760   4.706  0.3540  0.3543 -0.0545
 7546TIP3    H144053   0.523   3.790   4.683  0.0604  0.3985 -1.1688
 7546TIP3    H244054   0.382   3.839   4.704  0.4071  0.4189  1.2144
 7547TIP3   OH244055   0.015   4.245   0.297  0.7055  0.1112 -0.5318
 7547TIP3    H144056   0.065   4.313   0.252  0.1981  0.2545 -0.8834
 7547TIP3    H244057  -0.076   4.260   0.270  0.3346  0.4843  0.9215
 7548TIP3   OH244058   5.655   0.176  11.478 -0.0195 -0.1785  0.4464
 7548TIP3    H144059   5.746   0.194  11.456 -0.0476  1.6870  1.6672
 7548TIP3    H244060   5.604   0.221  11.410 -0.0409  0.0950  0.6422
 7549TIP3   OH244061   2.759   0.418  11.380  0.6854  0.0489  0.3809
 7549TIP3    H144062   2.723   0.351  11.438  0.4515 -1.6622 -1.6579
 7549TIP3    H244063   2.851   0.427  11.407  0.3303 -0.0274  1.6244
 7550TIP3   OH244064   0.776   6.583   5.443  0.0257 -0.7146 -0.3633
 7550TIP3    H144065   0.749   6.631   5.365  1.2272  0.1606 -0.2507
 7550TIP3    H244066   0.728   6.624   5.514  1.6339  0.8808 -0.1568
 7551TIP3   OH244067   6.635   2.382  11.754  0.2747 -0.0659 -0.1527
 7551TIP3    H144068   6.601   2.361  11.841  0.1732 -1.5894 -0.5556
 7551TIP3    H244069   6.721   2.420  11.771  0.3311 -0.5171  0.6006
 7552TIP3   OH244070   6.654   6.404   2.659 -0.1393 -0.1580 -0.4982
 7552TIP3    H144071   6.696   6.473   2.711 -0.1139 -2.4493  2.6456
 7552TIP3    H244072   6.682   6.421   2.569  0.3977  3.5137  0.2983
 7553TIP3   OH244073   5.347   0.085   5.427 -0.5764  0.6658 -0.0297
 7553TIP3    H144074   5.430   0.112   5.466 -0.3869 -0.8681  0.6675
 7553TIP3    H244075   5.371   0.020   5.361 -1.0066  2.2853 -1.8329
 7554TIP3   OH244076   3.454   0.873  11.392  0.2943 -0.6091  0.1314
 7554TIP3    H144077   3.455   0.810  11.320 -1.5030 -1.3707  0.7597
 7554TIP3    H244078   3.487   0.955  11.353 -0.7504 -0.9879 -1.5668
 7555TIP3   OH244079   3.972   4.646  15.592  0.6501  0.3111  0.2464
 7555TIP3    H144080   3.895   4.638  15.649  1.2717  0.0920  1.0640
 7555TIP3    H244081   3.956   4.726  15.541  0.9478  1.5867  2.0831
 7556TIP3   OH244082   1.563   4.320   1.589 -0.3127  0.0985  0.0633
 7556TIP3    H144083   1.645   4.311   1.637  0.2146 -0.0900 -0.8577
 7556TIP3    H244084   1.520   4.396   1.629 -0.4482 -0.7526  1.6077
 7557TIP3   OH244085   0.135   2.357  11.801  0.3358 -0.1300 -0.8505
 7557TIP3    H144086   0.112   2.286  11.861 -0.0960 -0.1475 -1.0331
 7557TIP3    H244087   0.191   2.315  11.735  0.6578 -0.1502 -0.5639
 7558TIP3   OH244088   1.780   1.978   5.054 -0.1793 -0.2159  0.1676
 7558TIP3    H144089   1.708   2.004   5.111  0.3579  0.3146  0.6162
 7558TIP3    H244090   1.834   1.921   5.109 -0.2799 -0.6359 -0.1748
 7559TIP3   OH244091   4.902   4.088   0.781  0.2244 -0.7914  0.3482
 7559TIP3    H144092   4.821   4.094   0.730 -0.7367 -2.9011  1.5493
 7559TIP3    H244093   4.928   3.996   0.774  1.1077 -0.6954  2.0991
 7560TIP3   OH244094   3.833   5.224  15.164 -0.3293  0.3856 -0.2446
 7560TIP3    H144095   3.845   5.295  15.101  1.6691  0.6052  0.3296
 7560TIP3    H244096   3.882   5.150  15.127 -1.6751 -0.4342 -0.4151
 7561TIP3   OH244097   2.419   1.602   2.518  0.3114 -0.1815 -0.4066
 7561TIP3    H144098   2.444   1.674   2.460  1.8439 -1.8366 -1.9025
 7561TIP3    H244099   2.366   1.643   2.587  0.9923  2.3141 -1.3082
 7562TIP3   OH244100   4.408   3.080  11.779 -0.2665 -0.7816 -0.3316
 7562TIP3    H144101   4.408   3.077  11.684 -1.5805  1.0900 -0.4315
 7562TIP3    H244102   4.352   3.006  11.806 -1.1344 -0.4068 -1.0829
 7563TIP3   OH244103   5.795   0.810  15.299  0.0384 -0.2105 -0.2883
 7563TIP3    H144104   5.720   0.751  15.293  0.3481 -0.7817  1.1825
 7563TIP3    H244105   5.771   0.872  15.368 -0.4605  1.6736 -2.0996
 7564TIP3   OH244106   3.479   0.203   2.263 -0.4744  1.0712 -0.6268
 7564TIP3    H144107   3.430   0.142   2.317 -0.8987  0.3483 -1.8185
 7564TIP3    H244108   3.432   0.286   2.272 -0.3169  1.0583  0.4072
 7565TIP3   OH244109   5.599   3.127  12.101 -0.4132  0.0063 -0.0628
 7565TIP3    H144110   5.661   3.060  12.073 -1.2224 -0.3834 -0.9501
 7565TIP3    H244111   5.635   3.160  12.183  0.7299 -0.5260 -0.3426
 7566TIP3   OH244112   0.342   2.506  11.176  0.2207 -0.1177 -0.4765
 7566TIP3    H144113   0.333   2.523  11.082 -0.1577  0.4127 -0.3462
 7566TIP3    H244114   0.428   2.540  11.198  0.3283 -0.2816 -0.6406
 7567TIP3   OH244115   0.692   3.893   1.099  0.2339  0.3087  0.4143
 7567TIP3    H144116   0.726   3.804   1.097  0.0292  0.2015  1.6048
 7567TIP3    H244117   0.710   3.928   1.011 -2.2099 -1.8504 -1.0445
 7568TIP3   OH244118   0.025   3.337  12.036  0.1359  0.5327 -0.4031
 7568TIP3    H144119  -0.003   3.426  12.015  1.7779  0.6607 -2.0942
 7568TIP3    H244120   0.005   3.286  11.958 -1.2365 -0.7228  0.7251
 7569TIP3   OH244121   1.751   4.687  11.693  0.1207  0.6953 -0.3672
 7569TIP3    H144122   1.736   4.644  11.609  1.0397 -1.1542  0.4108
 7569TIP3    H244123   1.758   4.616  11.756  2.3011  1.9385  0.8363
 7570TIP3   OH244124   2.884   4.221   3.703  0.3938 -0.2830  0.3463
 7570TIP3    H144125   2.927   4.306   3.711 -1.8973  0.7910  1.6532
 7570TIP3    H244126   2.888   4.201   3.610  0.2822  1.6368 -0.0953
 7571TIP3   OH244127   5.845   3.624   3.089  0.2172 -0.5087 -0.2643
 7571TIP3    H144128   5.876   3.657   3.004  0.5476 -5.1246 -2.0846
 7571TIP3    H244129   5.925   3.613   3.140  0.0612  1.7922  0.5548
 7572TIP3   OH244130   1.533   2.919  10.532 -0.0817 -0.2333 -0.0313
 7572TIP3    H144131   1.458   2.873  10.569 -0.0497  0.4057  0.8420
 7572TIP3    H244132   1.542   2.998  10.585  0.5781  0.2064 -0.7782
 7573TIP3   OH244133   5.774   3.297   4.743 -0.4081  0.3348 -0.4868
 7573TIP3    H144134   5.831   3.265   4.814  1.6082  1.7469 -1.4201
 7573TIP3    H244135   5.804   3.250   4.665 -0.7050  0.8949 -0.9418
 7574TIP3   OH244136   2.796   4.025  14.840 -0.0175 -0.0432  0.3513
 7574TIP3    H144137   2.758   4.032  14.927 -1.3157  0.3698 -0.2426
 7574TIP3    H244138   2.772   4.107  14.796 -1.0714 -1.0766 -1.0552
 7575TIP3   OH244139   6.726   5.678  14.111 -0.1133 -0.2158 -0.1177
 7575TIP3    H144140   6.772   5.605  14.070 -1.4076 -1.6710  0.9634
 7575TIP3    H244141   6.639   5.643  14.131 -0.0514  0.9483  2.3398
 7576TIP3   OH244142   3.061   4.514   2.102 -0.6217 -0.4757 -0.5209
 7576TIP3    H144143   3.090   4.528   2.012  0.7306 -2.5245 -0.4424
 7576TIP3    H244144   3.097   4.588   2.151  1.8939 -1.3110 -1.0059
 7577TIP3   OH244145   6.650   6.534  15.092  0.1251 -0.0961 -0.1394
 7577TIP3    H144146   6.604   6.515  15.174  3.4518 -0.7586  1.6626
 7577TIP3    H244147   6.667   6.628  15.095 -0.6967  0.0704 -0.5959
 7578TIP3   OH244148   0.028   4.507  16.932  0.1362  0.1642 -0.0527
 7578TIP3    H144149   0.086   4.539  16.863  2.6053  0.5311  2.1544
 7578TIP3    H244150   0.085   4.489  17.006 -2.4639 -0.1974  1.9414
 7579TIP3   OH244151   3.961   4.908  12.883 -0.1449  0.3991  0.2882
 7579TIP3    H144152   4.053   4.883  12.879  0.1505  1.3297  1.2133
 7579TIP3    H244153   3.959   5.001  12.862 -1.1899 -0.2027 -2.5227
 7580TIP3   OH244154   6.642   2.173  14.693 -0.9719 -0.1879  0.0142
 7580TIP3    H144155   6.685   2.181  14.609 -0.2994 -2.5614  0.0984
 7580TIP3    H244156   6.614   2.082  14.697 -1.3942  0.0101  2.1768
 7581TIP3   OH244157   0.706   3.899  12.606  0.6713 -0.6989 -0.3321
 7581TIP3    H144158   0.761   3.824  12.626 -0.3715 -1.2345  0.5331
 7581TIP3    H244159   0.618   3.864  12.599  0.1012  0.5162  0.5478
 7582TIP3   OH244160   5.642   1.044   2.868 -0.4681 -0.0936  0.4889
 7582TIP3    H144161   5.711   1.104   2.895 -0.2648  0.3396 -0.9917
 7582TIP3    H244162   5.652   0.968   2.927  0.2472  0.6437  1.3324
 7583TIP3   OH244163   4.463   4.899  14.932  0.6189 -0.2353  0.1157
 7583TIP3    H144164   4.450   4.846  15.011 -0.3211  0.5482  0.5088
 7583TIP3    H244165   4.379   4.894  14.885  0.3266  1.2864  0.4230
 7584TIP3   OH244166   3.109   2.428   4.386  0.0614 -0.3731  0.0458
 7584TIP3    H144167   3.042   2.434   4.455 -0.9424  0.6501 -0.9926
 7584TIP3    H244168   3.132   2.519   4.368  0.0571 -0.6248 -1.2302
 7585TIP3   OH244169   1.453   4.297   2.293 -0.0348  0.5407  0.3933
 7585TIP3    H144170   1.539   4.264   2.319  0.2110  0.5726 -0.3729
 7585TIP3    H244171   1.461   4.315   2.200 -0.9557  0.2886  0.2561
 7586TIP3   OH244172   0.250   6.155  12.682 -0.0519 -0.0937 -0.1563
 7586TIP3    H144173   0.206   6.115  12.607  0.6224 -1.4569  0.1494
 7586TIP3    H244174   0.341   6.166  12.654 -0.2103  1.1459 -0.1949
 7587TIP3   OH244175   0.721   1.065  10.716 -0.3675 -0.4568  0.1323
 7587TIP3    H144176   0.706   1.105  10.802 -0.0329  1.1365 -0.5319
 7587TIP3    H244177   0.795   1.114  10.680 -0.5933 -1.0189 -1.1179
 7588TIP3   OH244178   5.532   6.782  13.727  0.6549 -0.3658 -0.5092
 7588TIP3    H144179   5.585   6.778  13.647  0.5401 -0.2633 -0.5898
 7588TIP3    H244180   5.593   6.807  13.795  0.2190  2.3173 -1.0520
 7589TIP3   OH244181   0.110   5.549  13.612 -0.2795  0.2202  0.2685
 7589TIP3    H144182   0.033   5.603  13.593 -0.3716 -0.2132 -0.5730
 7589TIP3    H244183   0.078   5.459  13.608 -0.1731  0.0945  1.8961
 7590TIP3   OH244184   6.477   5.078  12.264 -0.2182  0.2055  0.5332
 7590TIP3    H144185   6.422   5.089  12.187  0.7009  0.3791 -0.1152
 7590TIP3    H244186   6.563   5.053  12.229 -0.3467 -1.8203  1.6189
 7591TIP3   OH244187   3.428   0.468   3.064 -0.1167  0.1047 -0.6817
 7591TIP3    H144188   3.337   0.450   3.090 -0.2517  0.2058 -1.0764
 7591TIP3    H244189   3.425   0.470   2.968  0.1120  1.0633 -0.6746
 7592TIP3   OH244190   5.595   1.086   1.239  0.1604 -0.5241  0.2182
 7592TIP3    H144191   5.662   1.036   1.285  0.5771 -0.5491 -0.4117
 7592TIP3    H244192   5.512   1.043   1.264  0.2437  0.3022  2.0170
 7593TIP3   OH244193   4.339   0.208  14.222 -0.1723  0.2685 -0.1399
 7593TIP3    H144194   4.348   0.267  14.147 -1.9416  1.5195  0.5797
 7593TIP3    H244195   4.408   0.236  14.283  2.0142 -1.5015 -1.7272
 7594TIP3   OH244196   5.978   0.766  11.193 -0.0858 -0.1289 -0.4242
 7594TIP3    H144197   5.965   0.843  11.250 -0.2895  1.7487 -2.9377
 7594TIP3    H244198   6.052   0.720  11.233  1.1445  2.2983  0.2032
 7595TIP3   OH244199   3.008   3.290   3.154  0.2691  0.4804 -0.0520
 7595TIP3    H144200   2.999   3.381   3.126  0.8799  0.3460 -0.7296
 7595TIP3    H244201   2.945   3.242   3.100  0.0002  0.4918  0.2522
 7596TIP3   OH244202   5.214   3.063  13.053  0.3686  0.0861  0.1105
 7596TIP3    H144203   5.153   3.112  12.998  1.4734  0.0789 -1.1526
 7596TIP3    H244204   5.186   2.972  13.047  1.2455 -0.0966 -1.4951
 7597TIP3   OH244205   4.284   1.477   0.760 -0.1784 -0.6888  0.2694
 7597TIP3    H144206   4.371   1.494   0.796 -0.3490  0.1926  0.2776
 7597TIP3    H244207   4.234   1.439   0.832  0.0008 -0.5680  0.4554
 7598TIP3   OH244208   3.466   2.745  14.387 -0.3602  0.0020  0.4964
 7598TIP3    H144209   3.551   2.772  14.424  0.0996 -1.5284  0.5773
 7598TIP3    H244210   3.473   2.768  14.294 -0.3212  0.9925  0.7413
 7599TIP3   OH244211   5.400   3.974  17.212 -0.1828 -0.0365  0.4486
 7599TIP3    H144212   5.436   3.897  17.257  0.2465  1.3956  2.6355
 7599TIP3    H244213   5.395   4.041  17.280 -1.2310  1.6629 -1.2616
 7600TIP3   OH244214   3.966   1.384  16.726  0.5479 -0.1132  0.0206
 7600TIP3    H144215   3.988   1.406  16.635  0.2832  0.6668  0.1370
 7600TIP3    H244216   4.012   1.302  16.743  0.2397 -0.4896 -0.9606
 7601TIP3   OH244217   6.021   3.242   5.995 -0.2967 -0.1381  0.1947
 7601TIP3    H144218   6.093   3.292   5.956  0.3302  0.4076  2.0128
 7601TIP3    H244219   5.942   3.285   5.962  0.2291  1.2833  0.7514
 7602TIP3   OH244220   1.830   5.228   6.424 -0.3581 -0.0431 -0.3727
 7602TIP3    H144221   1.739   5.202   6.415 -0.8372  2.0404 -1.9645
 7602TIP3    H244222   1.849   5.215   6.517 -2.3184 -0.3727  0.0098
 7603TIP3   OH244223   2.622   2.029   0.141 -0.1819  0.3765  0.1580
 7603TIP3    H144224   2.541   1.980   0.155  1.0445 -2.2520 -1.4370
 7603TIP3    H244225   2.595   2.121   0.137 -3.0365 -0.4394 -0.0394
 7604TIP3   OH244226   1.033   2.799  15.073 -0.0897 -0.1847  0.1248
 7604TIP3    H144227   0.982   2.718  15.064  0.3954 -0.6536  1.3887
 7604TIP3    H244228   1.119   2.777  15.038 -0.7586  0.6206 -2.0518
 7605TIP3   OH244229   2.259   4.123   4.777  0.0689 -0.0709 -0.3452
 7605TIP3    H144230   2.267   4.163   4.864  0.8855 -0.9312 -0.0095
 7605TIP3    H244231   2.172   4.083   4.778 -0.9867  2.1334 -0.8922
 7606TIP3   OH244232   2.190   0.534  16.125 -0.2076 -0.6153  0.2684
 7606TIP3    H144233   2.192   0.529  16.221 -1.9434  1.2952  0.4323
 7606TIP3    H244234   2.280   0.555  16.101  0.5203 -2.3198  1.3913
 7607TIP3   OH244235   0.026   4.361   4.151  0.4510 -0.3588  0.0378
 7607TIP3    H144236   0.021   4.332   4.242 -1.5111 -1.0064 -0.2573
 7607TIP3    H244237  -0.065   4.375   4.125  0.8664 -1.7425 -2.3088
 7608TIP3   OH244238   1.405   4.561   3.477 -0.3596 -0.0102 -0.0603
 7608TIP3    H144239   1.448   4.507   3.410 -2.4079  2.2025 -3.3055
 7608TIP3    H244240   1.316   4.526   3.483 -0.4729  0.4211  0.8138
 7609TIP3   OH244241   6.156   2.489  14.801  0.2483 -0.6551 -0.1182
 7609TIP3    H144242   6.087   2.523  14.744  0.2905 -0.4575 -0.0489
 7609TIP3    H244243   6.211   2.564  14.822  0.2876 -0.7440  0.1066
 7610TIP3   OH244244   2.306   4.673  11.792 -0.0054  0.1535 -0.0710
 7610TIP3    H144245   2.297   4.764  11.820 -1.2253  0.4270 -1.3232
 7610TIP3    H244246   2.379   4.639  11.845  1.4181  2.2487 -0.6275
 7611TIP3   OH244247   5.056   1.585   5.415  0.5436 -0.4874  0.2341
 7611TIP3    H144248   5.041   1.672   5.453  0.5771  0.2408 -1.3483
 7611TIP3    H244249   5.150   1.570   5.424  0.6855  0.0507 -0.3150
 7612TIP3   OH244250   2.031   6.724   5.433  0.2178  0.0309 -0.2512
 7612TIP3    H144251   1.954   6.780   5.427  0.3446  0.3792  1.1298
 7612TIP3    H244252   2.062   6.736   5.523  2.4521  0.6496 -1.0733
 7613TIP3   OH244253   0.723   3.871  16.755 -0.2686  0.3289  0.4826
 7613TIP3    H144254   0.697   3.960  16.780  0.9395  0.8725 -0.1796
 7613TIP3    H244255   0.781   3.842  16.825 -2.3486 -0.7664  1.8017
 7614TIP3   OH244256   6.279   6.068   6.142  0.0263  0.2609 -0.3875
 7614TIP3    H144257   6.248   6.093   6.229 -0.5575 -0.5017 -0.3726
 7614TIP3    H244258   6.236   5.984   6.124  3.3004 -1.6794  0.3386
 7615TIP3   OH244259   2.312   5.466   1.653  0.1918  0.2136 -0.1942
 7615TIP3    H144260   2.292   5.495   1.564  0.0737  1.0402  0.1012
 7615TIP3    H244261   2.293   5.541   1.708 -0.0356 -0.3961  0.5713
 7616TIP3   OH244262   2.587   6.337  14.018 -0.4003  0.7311 -0.0504
 7616TIP3    H144263   2.647   6.397  14.062  0.5547  0.0119 -0.3594
 7616TIP3    H244264   2.625   6.250  14.032 -0.2596  0.4544 -1.9882
 7617TIP3   OH244265   3.946   3.353   6.063  0.3067 -0.3931 -0.8451
 7617TIP3    H144266   3.936   3.403   5.982  1.6834  3.6869  1.3976
 7617TIP3    H244267   4.041   3.344   6.074  0.1287 -0.8018  0.4190
 7618TIP3   OH244268   5.138   0.676  13.781 -0.1802 -0.4601  0.0296
 7618TIP3    H144269   5.187   0.613  13.835  0.4516 -0.2066 -0.2457
 7618TIP3    H244270   5.185   0.759  13.793 -2.2902  0.4770  2.1590
 7619TIP3   OH244271   3.800   3.840  15.182  0.7688 -0.3144 -0.4559
 7619TIP3    H144272   3.829   3.918  15.228 -2.3661 -1.2526  3.3880
 7619TIP3    H244273   3.869   3.776  15.197  0.6559 -0.0300  1.3878
 7620TIP3   OH244274   2.297   6.443  16.994 -0.0597  0.0687  0.3132
 7620TIP3    H144275   2.253   6.492  16.925 -0.7271 -0.7900  0.1192
 7620TIP3    H244276   2.373   6.404  16.951  0.0884  0.3744  0.3008
 7621TIP3   OH244277   6.109   6.226  15.929 -0.0878  0.0552  0.1414
 7621TIP3    H144278   6.149   6.308  15.957  0.3869 -0.4691  1.0432
 7621TIP3    H244279   6.063   6.248  15.849 -0.5760  1.3587  0.7612
 7622TIP3   OH244280   3.650   5.923  16.884 -0.2726  0.4289  0.5225
 7622TIP3    H144281   3.684   6.000  16.839  1.3354  0.2194  1.3381
 7622TIP3    H244282   3.576   5.955  16.934  0.3870  1.4509  0.8540
 7623TIP3   OH244283   4.536   2.553  16.773  0.7213 -0.5430 -0.5440
 7623TIP3    H144284   4.465   2.528  16.833  0.3970  0.1691 -0.6348
 7623TIP3    H244285   4.515   2.642  16.746  1.9855 -0.0915 -0.0834
 7624TIP3   OH244286   6.014   3.532  11.637 -0.1124  0.4564  0.0163
 7624TIP3    H144287   5.990   3.559  11.726  3.3772 -1.3723  1.6187
 7624TIP3    H244288   6.100   3.570  11.622 -0.0274 -0.4618 -2.0091
 7625TIP3   OH244289   5.888   2.535  11.517 -0.4001 -0.3142  0.1917
 7625TIP3    H144290   5.955   2.467  11.508 -1.6324 -1.3954 -1.0259
 7625TIP3    H244291   5.864   2.533  11.610 -0.6433 -1.7455  0.1014
 7626TIP3   OH244292   5.596   4.410   6.739  0.0501 -0.2124 -0.2499
 7626TIP3    H144293   5.502   4.402   6.720 -0.0428  1.6202 -0.6889
 7626TIP3    H244294   5.638   4.405   6.653  0.2397  0.3488 -0.1927
 7627TIP3   OH244295   5.746   0.123   4.162 -0.4797  0.0993 -0.8649
 7627TIP3    H144296   5.839   0.133   4.144  0.0499 -0.8539  1.1664
 7627TIP3    H244297   5.727   0.031   4.142 -0.6416 -0.0888  0.1315
 7628TIP3   OH244298   3.291   2.579   1.530 -0.6714 -0.2288 -0.0441
 7628TIP3    H144299   3.282   2.674   1.519 -1.2739 -0.3711 -0.7820
 7628TIP3    H244300   3.356   2.553   1.465  0.0527 -0.2195  0.6631
 7629TIP3   OH244301   0.125   0.193  12.277  0.1391 -0.2907 -0.1463
 7629TIP3    H144302   0.035   0.225  12.265 -0.3384 -0.8931  1.6808
 7629TIP3    H244303   0.148   0.154  12.193 -1.1838  0.2109 -0.7460
 7630TIP3   OH244304   0.886   0.481  16.831  0.3738  0.0217  0.0347
 7630TIP3    H144305   0.852   0.565  16.861 -1.3358 -0.5023 -0.3482
 7630TIP3    H244306   0.843   0.466  16.747  1.9306 -0.4769 -0.6913
 7631TIP3   OH244307   5.754   5.281   0.455 -0.2854  0.0548  0.4128
 7631TIP3    H144308   5.804   5.348   0.408 -1.0792 -0.0251 -0.5555
 7631TIP3    H244309   5.711   5.328   0.526 -1.2447  0.6722 -0.5645
 7632TIP3   OH244310   6.279   3.874   2.288  0.5123  0.1761 -0.5483
 7632TIP3    H144311   6.270   3.936   2.215  0.3225  3.0962  1.8414
 7632TIP3    H244312   6.197   3.883   2.337 -0.2852 -3.3552 -1.0741
 7633TIP3   OH244313   0.507   3.501   1.060 -0.1941 -0.1031  0.0839
 7633TIP3    H144314   0.586   3.449   1.074 -0.3175 -0.3620 -0.1954
 7633TIP3    H244315   0.448   3.475   1.131 -0.0708  0.0109  0.2287
 7634TIP3   OH244316   0.207   3.737  13.272 -0.3769 -0.0853 -0.3585
 7634TIP3    H144317   0.112   3.730  13.273 -0.6120  2.4769 -2.1287
 7634TIP3    H244318   0.236   3.661  13.221 -1.3830 -1.3404  0.8960
 7635TIP3   OH244319   6.659   2.414   6.188 -0.4533 -0.3851  0.2572
 7635TIP3    H144320   6.733   2.358   6.211  1.1658  0.8696 -1.8030
 7635TIP3    H244321   6.695   2.479   6.128 -3.0274  0.8349 -0.0379
 7636TIP3   OH244322   5.946   3.044   3.596 -0.2728 -0.4896  0.1628
 7636TIP3    H144323   5.992   2.998   3.667  0.5230  0.9961  0.6455
 7636TIP3    H244324   6.014   3.099   3.556 -1.1343  0.0340 -0.5791
 7637TIP3   OH244325   5.784   0.085   5.238  0.0146  0.4137  0.1894
 7637TIP3    H144326   5.707   0.085   5.181 -0.5058  1.4298  0.8769
 7637TIP3    H244327   5.812   0.176   5.240  2.3452 -0.2339 -1.4992
 7638TIP3   OH244328   5.745   4.638  11.743 -0.4896  0.3237 -0.2882
 7638TIP3    H144329   5.781   4.712  11.696  0.6633  0.8081  1.3191
 7638TIP3    H244330   5.669   4.673  11.789 -1.2147  0.0029 -1.2150
 7639TIP3   OH244331   4.079   1.916  12.426  0.1003 -0.0239 -0.4400
 7639TIP3    H144332   4.069   1.828  12.389 -1.8138  0.1458 -0.3721
 7639TIP3    H244333   4.079   1.902  12.521 -2.0780  0.1907 -0.3752
 7640TIP3   OH244334   5.125   3.653  13.149  1.0922 -0.4728 -0.0311
 7640TIP3    H144335   5.030   3.653  13.166  0.9706 -0.4278 -0.6987
 7640TIP3    H244336   5.152   3.743  13.162  0.7511 -0.1542 -1.4194
 7641TIP3   OH244337   1.084   1.900  12.852  0.1790  0.1805 -0.0473
 7641TIP3    H144338   1.041   1.814  12.857  0.0945  0.1628 -1.1452
 7641TIP3    H244339   1.025   1.954  12.800  0.8668  0.5354 -0.4637
 7642TIP3   OH244340   1.164   0.752  12.187 -0.0619 -0.0330  0.3165
 7642TIP3    H144341   1.227   0.701  12.137 -1.5571 -0.5089 -1.1179
 7642TIP3    H244342   1.095   0.774  12.124 -1.0651  0.9263  1.7186
 7643TIP3   OH244343   4.141   5.560   6.138 -0.2066 -0.5888 -0.1407
 7643TIP3    H144344   4.232   5.589   6.146 -0.5534  0.5349 -0.1214
 7643TIP3    H244345   4.140   5.471   6.174  0.6815 -0.2137  0.8248
 7644TIP3   OH244346   5.575   3.244   4.372 -0.2604 -0.0264 -0.3968
 7644TIP3    H144347   5.617   3.310   4.316 -0.3672 -0.2397 -0.7262
 7644TIP3    H244348   5.501   3.212   4.321 -0.4195 -0.1505 -0.0932
 7645TIP3   OH244349   1.079   3.738  13.284 -0.2123  0.1719 -0.1727
 7645TIP3    H144350   0.985   3.722  13.293 -0.1445 -0.3757 -0.4286
 7645TIP3    H244351   1.088   3.783  13.200 -0.0718 -1.2928 -0.9549
 7646TIP3   OH244352   3.815   2.314  12.878 -0.5271 -0.0754 -0.4685
 7646TIP3    H144353   3.743   2.259  12.908 -0.4551  0.4588  0.7055
 7646TIP3    H244354   3.893   2.271  12.914 -0.2825 -0.4607 -1.4481
 7647TIP3   OH244355   6.628   0.115   5.166 -0.0241  0.4099 -0.2412
 7647TIP3    H144356   6.625   0.179   5.237 -0.6969 -2.0362  2.0139
 7647TIP3    H244357   6.539   0.115   5.130 -0.5135 -0.5480  0.9527
 7648TIP3   OH244358   5.351   2.783   5.530 -0.0152 -0.4596 -0.0964
 7648TIP3    H144359   5.403   2.843   5.477 -1.5080  1.8369  0.9333
 7648TIP3    H244360   5.363   2.815   5.620 -1.4765 -1.2096  0.3806
 7649TIP3   OH244361   2.418   1.267   2.542 -0.0394 -0.6262 -0.1160
 7649TIP3    H144362   2.503   1.227   2.558 -0.6688 -2.0628 -0.3149
 7649TIP3    H244363   2.356   1.194   2.544 -1.4236  0.5428  1.2330
 7650TIP3   OH244364   3.426   3.902   4.732 -0.0336 -0.1985 -0.0272
 7650TIP3    H144365   3.360   3.898   4.663 -1.9513  0.2734  1.7425
 7650TIP3    H244366   3.507   3.875   4.688 -1.9505 -3.9153 -1.5242
 7651TIP3   OH244367   3.483   6.140   6.047 -0.2260 -0.0377 -0.7082
 7651TIP3    H144368   3.422   6.093   6.104  1.1913  1.4633  2.2162
 7651TIP3    H244369   3.439   6.224   6.030 -0.9827 -0.7917 -2.4904
 7652TIP3   OH244370   3.897   4.107   6.072  0.2415  0.7715  0.3529
 7652TIP3    H144371   3.915   4.153   5.990  2.6552  0.0675  0.4512
 7652TIP3    H244372   3.829   4.044   6.050  0.5387  0.9146 -0.9768
 7653TIP3   OH244373   6.783   6.329   2.211  0.1295  0.8937  0.1874
 7653TIP3    H144374   6.861   6.292   2.168  0.2141 -0.7316  1.7049
 7653TIP3    H244375   6.742   6.383   2.143  2.3576  1.4751 -0.7568
 7654TIP3   OH244376   1.368   0.917  16.945 -0.4373  0.6926 -0.2185
 7654TIP3    H144377   1.328   0.968  16.874 -1.5390 -1.1753 -0.9717
 7654TIP3    H244378   1.449   0.884  16.908 -0.3114  0.8979 -0.1282
 7655TIP3   OH244379   5.494   1.175  16.889  0.3058  0.3045 -0.2387
 7655TIP3    H144380   5.402   1.149  16.885  0.8282 -1.5761 -0.3588
 7655TIP3    H244381   5.515   1.200  16.798  0.1550 -0.0988 -0.3833
 7656TIP3   OH244382   0.805   3.921   1.926  0.2058  0.4756 -0.1064
 7656TIP3    H144383   0.752   3.998   1.947  2.1688  1.0524  3.1228
 7656TIP3    H244384   0.754   3.847   1.959 -0.4108  0.6660 -0.6377
 7657TIP3   OH244385   2.302   1.137  16.559 -0.4130 -0.0122 -0.1005
 7657TIP3    H144386   2.375   1.199  16.554 -1.6264  1.3702 -0.9030
 7657TIP3    H244387   2.290   1.122  16.653 -0.2044  1.0937  0.1136
 7658TIP3   OH244388   4.502   0.721   1.659 -0.3694  0.1283 -0.5535
 7658TIP3    H144389   4.530   0.645   1.710 -0.5827  1.4078  1.5307
 7658TIP3    H244390   4.418   0.695   1.621  0.1276 -1.0951 -0.8142
 7659TIP3   OH244391   4.790   0.502  13.857 -0.0733 -0.3869 -0.2578
 7659TIP3    H144392   4.843   0.575  13.889  0.0115 -0.9314  0.8801
 7659TIP3    H244393   4.722   0.491  13.924 -1.8745  0.5478 -1.8746
 7660TIP3   OH244394   4.484   3.166   2.680 -0.4791  0.6679  0.1453
 7660TIP3    H144395   4.452   3.184   2.768 -0.1973 -0.6003  0.5181
 7660TIP3    H244396   4.546   3.237   2.661 -1.0529  1.3209  0.6905
 7661TIP3   OH244397   4.930   6.557  16.706  0.3394 -0.2726 -0.3920
 7661TIP3    H144398   4.983   6.625  16.666  0.6506 -0.4379 -0.2614
 7661TIP3    H244399   4.957   6.557  16.798  0.2366 -0.4729 -0.3608
 7662TIP3   OH244400   2.468   3.098  12.392 -0.4401 -0.0715 -0.0265
 7662TIP3    H144401   2.508   3.078  12.308  0.7371  1.0642  0.2554
 7662TIP3    H244402   2.423   3.017  12.417  0.5621 -0.9261 -0.9670
 7663TIP3   OH244403   0.107   2.006  14.873 -0.2358 -0.0796  0.2366
 7663TIP3    H144404   0.183   2.041  14.919  0.0395 -0.2132 -0.1120
 7663TIP3    H244405   0.039   2.001  14.940 -0.4476  1.6347  0.1625
 7664TIP3   OH244406   0.725   1.677  13.002  0.3340 -0.3555 -0.0039
 7664TIP3    H144407   0.637   1.642  12.985 -0.1645  0.8316  0.0418
 7664TIP3    H244408   0.715   1.772  12.989  1.5923 -0.2113  0.0862
 7665TIP3   OH244409   5.359   5.234  17.176  0.1826  0.2140  0.3895
 7665TIP3    H144410   5.355   5.301  17.245  2.0720  0.2570  0.4823
 7665TIP3    H244411   5.286   5.256  17.118 -0.0001  1.5987  1.1064
 7666TIP3   OH244412   3.859   5.638   5.308  0.2028  0.7349 -0.0585
 7666TIP3    H144413   3.902   5.691   5.241  1.9956 -0.7356 -0.1397
 7666TIP3    H244414   3.785   5.598   5.263 -0.9731  2.8967 -0.0749
 7667TIP3   OH244415   6.510   0.765  15.999 -0.0536  0.0209 -0.5648
 7667TIP3    H144416   6.545   0.677  15.986  0.6267  0.1971  0.0862
 7667TIP3    H244417   6.421   0.751  16.032 -1.6184 -0.4594 -4.6431
 7668TIP3   OH244418   5.732   2.738  15.868  0.3711 -0.0590  0.0402
 7668TIP3    H144419   5.816   2.731  15.821  0.2315 -3.6441  0.1914
 7668TIP3    H244420   5.757   2.766  15.956  1.2584  0.3086 -0.3099
 7669TIP3   OH244421   3.033   5.734   4.945 -0.0810  0.5685  0.1092
 7669TIP3    H144422   2.978   5.752   5.020 -1.0888 -1.2704 -0.1647
 7669TIP3    H244423   2.979   5.756   4.869  1.3286  3.5532 -0.1371
 7670TIP3   OH244424   4.056   2.112   0.868  0.2245  0.3245 -0.3129
 7670TIP3    H144425   3.961   2.126   0.861  0.4637  1.2428 -2.1186
 7670TIP3    H244426   4.064   2.027   0.910 -1.4101  0.1627 -0.2687
 7671TIP3   OH244427   4.695   2.530   3.835 -0.3862  0.2081  0.1803
 7671TIP3    H144428   4.642   2.458   3.870 -1.0631 -0.1866 -1.5933
 7671TIP3    H244429   4.782   2.494   3.824 -0.8698 -0.5592 -1.2940
 7672TIP3   OH244430   1.809   1.087  11.336 -0.2383 -0.2486  0.5601
 7672TIP3    H144431   1.750   1.156  11.367  0.5632  0.2667  0.9494
 7672TIP3    H244432   1.772   1.061  11.251 -0.7836  0.3616  0.6051
 7673TIP3   OH244433   3.934   0.837   4.644 -0.0209  0.1540  0.0307
 7673TIP3    H144434   4.010   0.894   4.634  0.7671 -0.5458  1.7978
 7673TIP3    H244435   3.909   0.846   4.736 -0.5050 -1.5614  0.0856
 7674TIP3   OH244436   5.785   5.395   2.564 -0.0896  0.4679 -0.0941
 7674TIP3    H144437   5.842   5.428   2.494 -2.0637  1.7420 -1.1347
 7674TIP3    H244438   5.803   5.454   2.637 -0.0836  0.8713 -0.4176
 7675TIP3   OH244439   1.005   0.832  16.721  0.1472 -0.1280 -0.0606
 7675TIP3    H144440   0.938   0.876  16.669 -0.6432 -1.4692 -0.1831
 7675TIP3    H244441   1.055   0.780  16.658 -0.0202 -0.7712  0.3308
 7676TIP3   OH244442   3.481   0.291  14.604  0.2342  0.0672 -0.1874
 7676TIP3    H144443   3.564   0.338  14.613  0.4158 -0.2670 -0.1050
 7676TIP3    H244444   3.506   0.198  14.599 -0.2216 -0.1524  1.3032
 7677TIP3   OH244445   1.342   2.551   2.872 -0.3657 -0.0909 -0.1827
 7677TIP3    H144446   1.418   2.507   2.832  0.2871 -0.5554  1.5356
 7677TIP3    H244447   1.277   2.554   2.802  0.0284 -2.7022 -0.7325
 7678TIP3   OH244448   5.939   5.975  15.025  0.1453  0.1850  0.3128
 7678TIP3    H144449   5.915   6.006  14.938  0.8223  1.0106  0.4074
 7678TIP3    H244450   5.869   5.915  15.050 -0.1192  0.0444 -0.7424
 7679TIP3   OH244451   1.205   0.896   4.146  0.3295  0.0617  0.3961
 7679TIP3    H144452   1.295   0.916   4.174  0.2810  1.4018 -0.3629
 7679TIP3    H244453   1.196   0.941   4.062 -1.5071  1.0788  1.1183
 7680TIP3   OH244454   1.696   0.039  12.607  0.4969 -0.3775  0.1009
 7680TIP3    H144455   1.714   0.058  12.515  0.1946 -0.7770 -0.0413
 7680TIP3    H244456   1.766  -0.020  12.634  0.4747 -0.4155  0.0743
 7681TIP3   OH244457   2.388   3.194   5.519  1.0117  0.2126  0.5630
 7681TIP3    H144458   2.298   3.224   5.501  1.3031 -0.1489 -1.6645
 7681TIP3    H244459   2.443   3.269   5.498  1.3943 -0.3531 -0.5333
 7682TIP3   OH244460   6.736   6.402  11.624  0.4376  0.1227 -0.2647
 7682TIP3    H144461   6.665   6.354  11.581  0.3887 -0.2637  0.2453
 7682TIP3    H244462   6.732   6.374  11.715  0.2483  1.2865  0.0905
 7683TIP3   OH244463   3.744   3.392  14.733 -0.1978  0.1232  0.4232
 7683TIP3    H144464   3.706   3.480  14.740 -0.1555  0.1703  0.0239
 7683TIP3    H244465   3.755   3.377  14.639 -0.2524 -0.3308  0.4872
 7684TIP3   OH244466   4.512   3.458   4.256  0.0146  0.1638 -0.0361
 7684TIP3    H144467   4.568   3.519   4.304 -1.5591  0.7235  1.1355
 7684TIP3    H244468   4.499   3.500   4.171  0.7212  0.4133 -0.0242
 7685TIP3   OH244469   3.365   4.501  14.881  0.1003 -0.2815  0.0760
 7685TIP3    H144470   3.278   4.466  14.860 -1.0064  2.2023  0.3928
 7685TIP3    H244471   3.371   4.495  14.976  1.0964 -2.2839 -0.0958
 7686TIP3   OH244472   3.644   2.084   3.344  0.0858  0.5638 -0.1564
 7686TIP3    H144473   3.667   1.997   3.378  0.6028  1.1479  1.0016
 7686TIP3    H244474   3.605   2.129   3.419 -0.0487  1.3863 -0.7193
 7687TIP3   OH244475   1.339   0.107   1.456 -0.5649 -0.2250  0.5083
 7687TIP3    H144476   1.275   0.175   1.478  1.3285  1.7697  0.0683
 7687TIP3    H244477   1.397   0.105   1.532 -0.3331 -1.0375  0.3095
 7688TIP3   OH244478   5.470   3.730   2.768  0.6118 -0.1746  0.8861
 7688TIP3    H144479   5.536   3.666   2.742 -0.5382 -1.3695  0.8611
 7688TIP3    H244480   5.503   3.765   2.851  2.7056  1.3690 -0.5493
 7689TIP3   OH244481   5.184   3.026  14.793  0.3010 -0.8570  0.0360
 7689TIP3    H144482   5.273   3.059  14.804  0.9761 -2.1658 -1.3302
 7689TIP3    H244483   5.169   2.972  14.871 -0.1091  1.1104  1.3344
 7690TIP3   OH244484   6.660   6.620  13.416 -0.4709  0.7174 -0.2408
 7690TIP3    H144485   6.652   6.623  13.321 -0.1626 -1.0049 -0.3351
 7690TIP3    H244486   6.706   6.701  13.439  1.9113 -0.1536 -1.8236
 7691TIP3   OH244487   4.210   3.599   2.979 -0.2048  0.2033  0.5580
 7691TIP3    H144488   4.245   3.641   3.058  0.3576 -0.5358  0.7024
 7691TIP3    H244489   4.277   3.615   2.913 -0.2232 -0.0425  0.4828
 7692TIP3   OH244490   5.524   5.010  15.945  0.2801  0.3789 -0.4092
 7692TIP3    H144491   5.454   5.062  15.905  0.9023  0.6659 -1.1318
 7692TIP3    H244492   5.572   4.973  15.870  0.7586 -0.0106  0.0844
 7693TIP3   OH244493   3.902   5.853  12.389 -0.0266  0.6820  0.5437
 7693TIP3    H144494   3.836   5.896  12.334 -0.8314  1.8452  2.3729
 7693TIP3    H244495   3.983   5.900  12.370 -0.3922  1.3718  0.6699
 7694TIP3   OH244496   3.025   0.370   1.624  0.2331 -0.1356  0.0417
 7694TIP3    H144497   3.043   0.462   1.642 -2.7474  0.5395 -0.2382
 7694TIP3    H244498   3.026   0.364   1.528 -2.7492  0.3350 -0.0636
 7695TIP3   OH244499   4.137   4.248  12.304 -0.5023  0.3924  0.5281
 7695TIP3    H144500   4.052   4.203  12.303  0.2415 -1.0303  0.2154
 7695TIP3    H244501   4.199   4.181  12.332  1.1417  0.3296 -3.0017
 7696TIP3   OH244502   1.383   6.013  11.609 -0.1995 -0.2490  0.0309
 7696TIP3    H144503   1.467   6.028  11.565  0.0375 -2.5119 -0.3340
 7696TIP3    H244504   1.363   5.921  11.592 -1.6665 -0.3234  2.0127
 7697TIP3   OH244505   5.863   4.021   2.852 -0.1645  0.5114  1.1940
 7697TIP3    H144506   5.773   4.048   2.838 -0.2866  0.1219  1.2111
 7697TIP3    H244507   5.916   4.091   2.813 -0.5096 -0.4562 -1.0716
 7698TIP3   OH244508   2.864   0.018  16.786  0.1014  0.6280  0.3652
 7698TIP3    H144509   2.917  -0.019  16.716  0.8900 -2.0412  2.2789
 7698TIP3    H244510   2.836   0.104  16.753  2.7192  0.6142 -2.0565
 7699TIP3   OH244511   1.296   2.979   0.425  0.6267 -0.0757  0.1350
 7699TIP3    H144512   1.377   2.928   0.414 -0.5129 -1.2322 -3.9131
 7699TIP3    H244513   1.321   3.068   0.402  0.7954 -0.4243 -1.0757
 7700TIP3   OH244514   3.975   4.730   5.779 -0.5903  0.2796 -0.1766
 7700TIP3    H144515   4.040   4.777   5.831  0.3197  0.2688 -1.2614
 7700TIP3    H244516   3.922   4.683   5.842  1.9353 -1.6022  0.6331
 7701TIP3   OH244517   0.374   1.732  13.519 -0.7241 -0.2061  0.8522
 7701TIP3    H144518   0.378   1.738  13.424  0.0041  1.0297  0.9426
 7701TIP3    H244519   0.384   1.638  13.538  0.7030 -0.2844 -0.2265
 7702TIP3   OH244520   0.276   6.648  13.496 -0.0510 -0.4190  0.1213
 7702TIP3    H144521   0.213   6.624  13.429 -0.3930 -1.5499  0.8424
 7702TIP3    H244522   0.355   6.598  13.474  0.0183 -0.3640  0.2439
 7703TIP3   OH244523   5.995   6.437   5.809 -0.0980  0.5515 -0.0783
 7703TIP3    H144524   5.950   6.516   5.838 -1.1604 -0.7781  2.0958
 7703TIP3    H244525   6.041   6.405   5.888  0.5561 -0.8192 -0.9875
 7704TIP3   OH244526   4.875   5.600  15.022 -0.5568 -0.2749  0.3432
 7704TIP3    H144527   4.953   5.592  15.077  0.8095  3.3631 -0.9128
 7704TIP3    H244528   4.886   5.533  14.955  1.3990  0.0940  0.2830
 7705TIP3   OH244529   2.494   1.937  13.749  0.6378 -0.3899  0.0289
 7705TIP3    H144530   2.519   1.846  13.766 -1.3939 -0.8758  0.5235
 7705TIP3    H244531   2.496   1.946  13.654  1.7276 -0.6695  0.0120
 7706TIP3   OH244532   3.568   3.453  13.129  0.1990  0.4544 -0.2977
 7706TIP3    H144533   3.531   3.452  13.217 -1.9447  1.9745 -1.1539
 7706TIP3    H244534   3.536   3.373  13.088  1.5462 -0.4734  0.3968
 7707TIP3   OH244535   2.135   6.665  14.398 -0.9339 -0.5302 -0.3280
 7707TIP3    H144536   2.222   6.625  14.393 -0.3511  0.6210  0.3741
 7707TIP3    H244537   2.087   6.610  14.459 -0.8209 -1.3777 -0.9870
 7708TIP3   OH244538   6.035   0.411   4.054 -0.1132 -0.1764 -0.1756
 7708TIP3    H144539   6.091   0.391   4.129 -0.5729 -0.5646  0.0638
 7708TIP3    H244540   6.019   0.326   4.013 -0.1298 -0.0057 -0.5219
 7709TIP3   OH244541   4.068   1.600   1.340 -0.2122  0.2036 -0.3241
 7709TIP3    H144542   4.044   1.522   1.389 -1.3049 -0.4434 -1.8477
 7709TIP3    H244543   4.114   1.655   1.403  0.2977 -1.5329  0.8503
 7710TIP3   OH244544   3.364   2.941   4.965 -0.3636  0.1566 -0.1753
 7710TIP3    H144545   3.305   2.880   4.920 -1.2315  2.1933 -1.9018
 7710TIP3    H244546   3.306   2.994   5.021  0.4529 -0.9435  1.7745
 7711TIP3   OH244547   3.628   5.231  12.521  0.1610  0.6210  0.4603
 7711TIP3    H144548   3.664   5.176  12.452  0.2433  1.7451 -0.4130
 7711TIP3    H244549   3.574   5.172  12.574 -1.5106  0.1325 -1.7266
 7712TIP3   OH244550   5.873   3.425  11.117  0.5557  0.2945  0.3823
 7712TIP3    H144551   5.940   3.479  11.159  1.8841 -0.8200 -0.2279
 7712TIP3    H244552   5.871   3.454  11.026  1.0454 -0.4350  0.1274
 7713TIP3   OH244553   4.702   3.203   0.852 -0.1408 -0.8063  0.8699
 7713TIP3    H144554   4.721   3.279   0.797 -0.2570 -0.7014  0.9732
 7713TIP3    H244555   4.724   3.127   0.798  1.3155 -0.6734  1.2466
 7714TIP3   OH244556   6.530   1.625  15.759 -0.1133 -0.1791  0.5217
 7714TIP3    H144557   6.465   1.556  15.750 -0.2236 -0.0933  0.6505
 7714TIP3    H244558   6.541   1.660  15.671 -0.6485  0.1761  0.5919
 7715TIP3   OH244559   4.060   3.862   0.601  0.4214  0.0882 -0.2805
 7715TIP3    H144560   4.060   3.867   0.506  0.4425 -1.1688 -0.3503
 7715TIP3    H244561   3.974   3.894   0.627 -1.0405 -3.1219 -0.9397
 7716TIP3   OH244562   2.936   0.649  16.792 -0.0357  0.0071 -0.2169
 7716TIP3    H144563   3.018   0.618  16.755  0.5397  0.1450  0.9044
 7716TIP3    H244564   2.951   0.647  16.887 -1.2016  0.3699 -0.0181
 7717TIP3   OH244565   4.271   3.018   4.460 -0.0829  0.4752 -0.2011
 7717TIP3    H144566   4.298   2.940   4.411 -0.7185  0.2889 -0.2622
 7717TIP3    H244567   4.175   3.017   4.455 -0.1001  1.1241  0.0141
 7718TIP3   OH244568   1.277   1.362   3.642  0.2320 -0.1419 -0.7343
 7718TIP3    H144569   1.195   1.394   3.605  0.2687  0.7831 -0.0053
 7718TIP3    H244570   1.344   1.386   3.577 -0.0155 -0.6026 -1.1678
 7719TIP3   OH244571   2.767   6.413   6.948 -0.6173  0.1725 -0.1154
 7719TIP3    H144572   2.819   6.416   6.868  0.0169  1.7610  0.3408
 7719TIP3    H244573   2.777   6.324   6.980  4.2273  1.1957  1.5282
 7720TIP3   OH244574   5.965   5.113  12.848  0.0560 -0.2164  0.2090
 7720TIP3    H144575   5.975   5.020  12.870  0.3731 -0.2780 -0.1786
 7720TIP3    H244576   5.897   5.145  12.908 -0.2451 -0.7622  0.1633
 7721TIP3   OH244577   5.643   3.384  14.179 -0.1542 -0.2456 -0.4717
 7721TIP3    H144578   5.628   3.366  14.272  0.1441  0.0148 -0.3738
 7721TIP3    H244579   5.685   3.305  14.146  1.2926  0.3267 -0.0089
 7722TIP3   OH244580   5.246   4.610   3.598  0.2348 -0.3428 -0.0825
 7722TIP3    H144581   5.278   4.697   3.577 -0.1616 -0.1185  0.2324
 7722TIP3    H244582   5.282   4.553   3.530  1.6363 -0.1632  0.5118
 7723TIP3   OH244583   0.166   2.495   0.332 -0.6387 -0.2611 -0.2782
 7723TIP3    H144584   0.082   2.509   0.375 -0.6474 -0.7627 -0.1283
 7723TIP3    H244585   0.167   2.401   0.310 -0.1487 -0.2446 -0.3353
 7724TIP3   OH244586   4.926   0.073   4.830 -0.1584 -0.3985  0.0054
 7724TIP3    H144587   4.910   0.041   4.741 -2.7973  0.2389  0.2105
 7724TIP3    H244588   4.843   0.112   4.857  1.6660  2.7417  1.3786
 7725TIP3   OH244589   4.358   2.609   5.642 -0.4983 -0.1790  0.5146
 7725TIP3    H144590   4.435   2.641   5.690  0.9731 -2.3534 -0.3060
 7725TIP3    H244591   4.369   2.514   5.640 -3.9032 -0.6743  1.5119
 7726TIP3   OH244592   0.633   0.613   4.564 -0.0822  0.1606  0.2623
 7726TIP3    H144593   0.607   0.612   4.472  1.6899  1.1753 -0.2791
 7726TIP3    H244594   0.724   0.582   4.564 -0.4525 -0.9692  1.8091
 7727TIP3   OH244595   6.702   4.230  13.220 -0.1130  0.7701  0.2587
 7727TIP3    H144596   6.614   4.204  13.191 -0.3279  1.6698  0.0996
 7727TIP3    H244597   6.687   4.289  13.293  0.3992 -0.1998  1.1513
 7728TIP3   OH244598   4.887   1.187   2.849 -0.4714 -0.3531  0.1369
 7728TIP3    H144599   4.834   1.231   2.915  0.2315 -1.0662  1.2082
 7728TIP3    H244600   4.977   1.198   2.880 -0.1046 -0.3833 -0.9022
 7729TIP3   OH244601   0.152   1.835  11.662  0.3521 -0.0611  0.2762
 7729TIP3    H144602   0.230   1.824  11.716 -0.1384  0.9258  1.2106
 7729TIP3    H244603   0.094   1.889  11.715 -0.1845  0.8301 -1.2006
 7730TIP3   OH244604   1.107   3.770  16.961 -0.2331  0.5550  0.0820
 7730TIP3    H144605   1.024   3.721  16.965  0.4196 -0.4299  2.8640
 7730TIP3    H244606   1.146   3.758  17.048  3.1532  0.4376 -1.3825
 7731TIP3   OH244607   6.337   2.226   5.972 -0.4304  0.6301  0.3803
 7731TIP3    H144608   6.389   2.301   5.943 -0.7667  1.1668  1.1322
 7731TIP3    H244609   6.294   2.257   6.051 -2.5563  0.4854 -0.6832
 7732TIP3   OH244610   6.131   6.216  16.778  0.0135  0.2392 -0.0850
 7732TIP3    H144611   6.146   6.128  16.813  2.1436  0.7820  0.4164
 7732TIP3    H244612   6.069   6.203  16.706 -1.5617 -1.3521  1.4947
 7733TIP3   OH244613   3.567   5.385  16.426 -0.0686 -0.2362  0.3214
 7733TIP3    H144614   3.577   5.407  16.334 -0.0958  0.5956  0.5123
 7733TIP3    H244615   3.653   5.352  16.452  0.8659  2.3585  0.7364
 7734TIP3   OH244616   6.065   3.379  14.841  0.4682 -0.2197  0.6446
 7734TIP3    H144617   6.124   3.429  14.898  1.2124 -2.0139  1.5048
 7734TIP3    H244618   6.020   3.320  14.901 -1.6570  0.5810 -0.1233
 7735TIP3   OH244619   2.311   3.190   1.795 -0.4707 -0.0964  0.1066
 7735TIP3    H144620   2.364   3.136   1.736 -1.2773 -0.7529 -0.0313
 7735TIP3    H244621   2.221   3.161   1.779 -0.5764 -1.3123  2.7020
 7736TIP3   OH244622   0.040   5.227  14.156  0.5501  0.7959  0.4606
 7736TIP3    H144623   0.101   5.154  14.169  0.3279  0.1513 -1.9581
 7736TIP3    H244624  -0.045   5.191  14.181  0.5644  0.4752  0.0497
 7737TIP3   OH244625   2.752   0.633  17.094 -0.1420 -0.5852 -0.6071
 7737TIP3    H144626   2.776   0.549  17.056 -1.3824 -0.9894 -0.5389
 7737TIP3    H244627   2.699   0.610  17.171 -0.7834  0.2486 -0.7932
 7738TIP3   OH244628   5.654   1.301  13.912 -0.0722 -0.3217 -0.0822
 7738TIP3    H144629   5.630   1.290  13.820 -0.4683 -0.2045  0.0046
 7738TIP3    H244630   5.641   1.215  13.951  2.9645 -1.1565 -0.7693
 7739TIP3   OH244631   4.749   4.241  14.213  0.1397  0.2026  0.1437
 7739TIP3    H144632   4.809   4.178  14.173  0.9010  0.5925  0.6553
 7739TIP3    H244633   4.682   4.257  14.146  0.9121  0.1883 -0.6393
 7740TIP3   OH244634   3.188   3.909  16.458  0.2750  0.3667  0.1439
 7740TIP3    H144635   3.254   3.971  16.488 -1.7651  1.7304  1.9328
 7740TIP3    H244636   3.211   3.826  16.500  1.0125  0.7627  0.5157
 7741TIP3   OH244637   5.353   4.085  14.912 -0.5098 -1.0247  0.1570
 7741TIP3    H144638   5.430   4.122  14.954 -1.4718 -0.1520  1.2028
 7741TIP3    H244639   5.297   4.058  14.985 -0.9860 -2.0937 -0.5861
 7742TIP3   OH244640   5.421   0.885   5.503 -0.1756 -0.8967  0.3333
 7742TIP3    H144641   5.406   0.925   5.418  1.6670 -1.4794 -0.3030
 7742TIP3    H244642   5.417   0.958   5.565  0.1667 -0.1881 -0.4616
 7743TIP3   OH244643   0.129   1.872  14.399  0.3997 -0.1226 -0.0847
 7743TIP3    H144644   0.044   1.836  14.373  0.6845 -0.7504 -0.1701
 7743TIP3    H244645   0.176   1.797  14.437 -0.2584  0.9308  2.8980
 7744TIP3   OH244646   4.865   1.155   2.159 -0.4182 -0.0934  0.0287
 7744TIP3    H144647   4.869   1.074   2.108 -0.9273 -0.3577  0.4011
 7744TIP3    H244648   4.822   1.218   2.101  2.8330  0.8336 -1.4548
 7745TIP3   OH244649   3.154   0.704   2.890  0.5027  0.2522  0.3198
 7745TIP3    H144650   3.060   0.691   2.896  0.3614  0.9484 -0.2622
 7745TIP3    H244651   3.174   0.693   2.797  1.1564 -0.9317  0.5970
 7746TIP3   OH244652   3.848   4.844   3.064  0.3120  0.2260 -0.0577
 7746TIP3    H144653   3.915   4.796   3.014 -0.5070  0.1174 -1.0701
 7746TIP3    H244654   3.779   4.780   3.079  0.6526  0.1972  1.4399
 7747TIP3   OH244655   0.802   1.603   5.701  0.3811  0.5572  0.0608
 7747TIP3    H144656   0.877   1.615   5.643 -0.5163 -0.4510 -1.3324
 7747TIP3    H244657   0.758   1.688   5.700  0.2325  0.4762 -0.9465
 7748TIP3   OH244658   2.323   6.282   1.544 -0.0802 -0.2019  0.1321
 7748TIP3    H144659   2.291   6.257   1.457 -0.6028  1.7415 -0.2568
 7748TIP3    H244660   2.255   6.253   1.604 -0.0181 -0.9799 -0.1659
 7749TIP3   OH244661   5.896   4.426  14.863 -0.4302 -0.2128  0.1060
 7749TIP3    H144662   5.866   4.381  14.784 -2.4027 -0.0834  0.7522
 7749TIP3    H244663   5.922   4.513  14.833 -1.5333 -0.0317 -0.3653
 7750TIP3   OH244664   0.233   0.428  14.955  0.7895  0.7419  0.2116
 7750TIP3    H144665   0.314   0.416  14.907 -0.3033 -2.6880 -0.9102
 7750TIP3    H244666   0.259   0.425  15.047  2.1763  1.6940 -0.1438
 7751TIP3   OH244667   1.141   2.951  14.282 -0.1931  0.0541  0.0887
 7751TIP3    H144668   1.096   2.962  14.365 -0.7170  0.4580 -0.2491
 7751TIP3    H244669   1.083   2.896  14.230  0.8785 -1.5824  0.5644
 7752TIP3   OH244670   6.186   3.173   3.518 -0.3175  0.5443  0.4358
 7752TIP3    H144671   6.279   3.185   3.539 -0.2085  2.0549 -0.8073
 7752TIP3    H244672   6.187   3.115   3.441 -0.3087  2.0343 -0.6985
 7753TIP3   OH244673   5.182   1.896  10.825 -0.6089  0.0449  0.0672
 7753TIP3    H144674   5.105   1.948  10.804 -0.4202  0.1506 -0.3866
 7753TIP3    H244675   5.246   1.921  10.758 -0.0929  0.1555  0.6003
 7754TIP3   OH244676   2.542   4.037   0.809 -0.1321  0.0637  0.1466
 7754TIP3    H144677   2.483   3.973   0.850  0.7926 -0.5343  0.5748
 7754TIP3    H244678   2.630   4.010   0.838  0.4705  0.1656 -1.5147
 7755TIP3   OH244679   3.949   3.799  14.783  0.2400 -0.2329  0.5478
 7755TIP3    H144680   4.001   3.738  14.730 -0.1683  0.4630 -0.6852
 7755TIP3    H244681   3.997   3.808  14.865  0.9361 -1.2600  0.2609
 7756TIP3   OH244682   5.325   0.953   2.982  0.2972  0.6649 -0.2451
 7756TIP3    H144683   5.366   0.899   3.050  0.1735 -0.6884 -1.2229
 7756TIP3    H244684   5.364   0.922   2.901  0.1183  1.9796 -0.8440
 7757TIP3   OH244685   6.017   0.247   0.937  0.6713 -0.0690 -0.3808
 7757TIP3    H144686   5.999   0.336   0.905  0.6387  0.4594  1.0909
 7757TIP3    H244687   5.999   0.251   1.031 -0.5353 -1.9628 -0.5015
 7758TIP3   OH244688   4.472   6.030  10.889 -0.1492  0.0440 -0.4503
 7758TIP3    H144689   4.527   6.012  10.813  0.3456 -1.4932  0.2642
 7758TIP3    H244690   4.524   6.089  10.944  0.0571  0.0118 -0.6155
 7759TIP3   OH244691   6.504   2.362   3.843 -0.0204 -0.3763 -0.2086
 7759TIP3    H144692   6.574   2.413   3.883  0.9229 -0.4991 -1.6658
 7759TIP3    H244693   6.442   2.346   3.914 -0.1368  2.4292  0.3832
 7760TIP3   OH244694   0.137   2.580   4.069  0.4214  0.5265  0.1565
 7760TIP3    H144695   0.217   2.531   4.056  0.7950  0.4548  2.5412
 7760TIP3    H244696   0.161   2.671   4.050  1.1718  0.5532  1.1987
 7761TIP3   OH244697   1.333   5.906   0.753  0.4754 -0.1274  0.3118
 7761TIP3    H144698   1.289   5.918   0.669  1.3225  1.2622  0.0445
 7761TIP3    H244699   1.283   5.959   0.815  0.2422 -0.6205  0.5449
 7762TIP3   OH244700   1.636   0.159   0.876 -0.2429 -0.2795 -0.6893
 7762TIP3    H144701   1.686   0.239   0.860  0.0093 -0.2876  0.0676
 7762TIP3    H244702   1.673   0.095   0.814 -0.5723  0.2321 -1.4258
 7763TIP3   OH244703   3.284   1.859   6.239 -0.1285  0.9467 -0.8743
 7763TIP3    H144704   3.244   1.932   6.287  0.4492  1.1143 -0.6402
 7763TIP3    H244705   3.213   1.821   6.188 -0.5066  1.4612 -0.7262
 7764TIP3   OH244706   1.624   0.143  14.127  0.1735  0.4221  0.1762
 7764TIP3    H144707   1.625   0.229  14.169 -1.3315 -0.5537  2.3354
 7764TIP3    H244708   1.540   0.138  14.082 -0.2161 -0.2880  0.9524
 7765TIP3   OH244709   1.362   4.113  16.084 -0.2347  0.1378 -0.0717
 7765TIP3    H144710   1.417   4.057  16.138  0.0632 -0.0952 -0.6048
 7765TIP3    H244711   1.332   4.182  16.142 -0.4279 -0.4589  0.5396
 7766TIP3   OH244712   3.258   5.405  11.378 -0.3661 -0.0379  0.1708
 7766TIP3    H144713   3.296   5.441  11.459 -0.1562  3.0172 -1.1833
 7766TIP3    H244714   3.297   5.459  11.309 -2.5553 -0.8575 -1.7444
 7767TIP3   OH244715   1.035   4.113  11.167  0.4644 -0.1210 -0.2039
 7767TIP3    H144716   1.131   4.111  11.165  0.4727 -2.1205  0.4973
 7767TIP3    H244717   1.009   4.103  11.075  0.9238  0.1916 -0.3714
 7768TIP3   OH244718   3.080   1.242  12.343  0.3713  0.2074 -0.4118
 7768TIP3    H144719   3.171   1.267  12.362  0.2575 -1.2001  2.1062
 7768TIP3    H244720   3.033   1.254  12.425 -1.1678 -1.5245 -0.9914
 7769TIP3   OH244721   2.191   4.454   4.685 -0.4511  0.1611  0.1520
 7769TIP3    H144722   2.266   4.438   4.627  0.2096  0.8228  0.8108
 7769TIP3    H244723   2.231   4.473   4.770 -1.4012 -0.3459  0.7125
 7770TIP3   OH244724   4.555   3.015  11.992 -0.0463 -0.5972 -0.2689
 7770TIP3    H144725   4.489   3.040  11.928 -0.1129 -0.2623 -0.0671
 7770TIP3    H244726   4.638   3.047  11.955 -0.5202  3.2282  1.6733
 7771TIP3   OH244727   6.641   4.436   6.738  0.2946  0.1816  0.1682
 7771TIP3    H144728   6.729   4.407   6.716  1.2092  1.5424  1.9299
 7771TIP3    H244729   6.645   4.532   6.734 -1.4095  0.2412 -0.8386
 7772TIP3   OH244730   0.715   5.201  14.102  0.6258  0.4620  0.1938
 7772TIP3    H144731   0.782   5.134  14.115 -0.1739 -0.7213 -1.5519
 7772TIP3    H244732   0.634   5.151  14.090 -0.2316  1.8033  0.3516
 7773TIP3   OH244733   6.163   2.058  12.736  0.5470 -0.6291  0.5329
 7773TIP3    H144734   6.184   1.966  12.754  0.8562 -0.7382 -0.3224
 7773TIP3    H244735   6.089   2.078  12.793  0.7308 -1.2940  1.0110
 7774TIP3   OH244736   3.705   5.788   6.982  0.1610  0.3031  0.1028
 7774TIP3    H144737   3.694   5.726   6.911 -0.8261  0.0881  0.4303
 7774TIP3    H244738   3.678   5.872   6.945  2.7015  0.8088 -0.7237
 7775TIP3   OH244739   5.142   4.500  14.566  0.3470  0.0158 -0.3110
 7775TIP3    H144740   5.171   4.426  14.512  0.9985 -0.5585  0.7973
 7775TIP3    H244741   5.107   4.564  14.503  2.0271 -0.2007 -1.5099
 7776TIP3   OH244742   4.138   4.495  12.397  0.4342 -0.0756 -0.2042
 7776TIP3    H144743   4.144   4.411  12.353 -0.5693  0.5665 -1.5901
 7776TIP3    H244744   4.112   4.474  12.487  1.6421 -1.3265 -0.1419
 7777TIP3   OH244745   1.694   5.623   0.645  0.3981  0.6172 -0.1039
 7777TIP3    H144746   1.683   5.630   0.551 -1.8095 -0.8731  0.0154
 7777TIP3    H244747   1.730   5.536   0.659  1.6464  1.1984  0.3771
 7778TIP3   OH244748   3.810   1.024  15.286  0.1829  0.0392 -0.3799
 7778TIP3    H144749   3.791   0.972  15.208 -1.1738  1.7655 -1.2347
 7778TIP3    H244750   3.894   1.066  15.267 -0.0410  0.2896 -0.8136
 7779TIP3   OH244751   5.048   4.703   2.784  0.3522 -0.1985 -0.0076
 7779TIP3    H144752   5.136   4.717   2.750 -0.1369  0.7088 -0.9497
 7779TIP3    H244753   4.993   4.698   2.706 -0.4967 -0.2054  0.5880
 7780TIP3   OH244754   6.123   6.748   5.926  0.0968  0.3521 -0.3333
 7780TIP3    H144755   6.089   6.795   6.002  0.2546  1.6860 -1.0608
 7780TIP3    H244756   6.189   6.688   5.961  1.8611  2.6207  0.3505
 7781TIP3   OH244757   6.415   2.511   0.344  0.1884 -0.1487 -0.2046
 7781TIP3    H144758   6.344   2.531   0.405  1.0029  0.8136  0.4510
 7781TIP3    H244759   6.371   2.479   0.266 -0.9464 -0.0311  0.3794
 7782TIP3   OH244760   0.572   0.142   2.607 -0.0255 -0.3968  0.7052
 7782TIP3    H144761   0.526   0.135   2.523  0.8460  1.3902  0.0340
 7782TIP3    H244762   0.654   0.187   2.585  0.4682 -0.4326  2.4245
 7783TIP3   OH244763   1.410   5.839   5.031 -0.5973 -0.2494  0.7278
 7783TIP3    H144764   1.478   5.884   4.980  0.6622 -3.0674 -0.1875
 7783TIP3    H244765   1.333   5.841   4.975 -0.1100 -0.5545  0.0402
 7784TIP3   OH244766   5.282   5.678  14.935  0.1282  0.3778 -0.0703
 7784TIP3    H144767   5.265   5.669  14.841 -0.9365 -4.5099  0.4726
 7784TIP3    H244768   5.204   5.722  14.969 -1.5418 -1.8470 -0.8915
 7785TIP3   OH244769   3.925   4.091  15.296 -0.5367 -0.5322 -0.5209
 7785TIP3    H144770   3.860   4.133  15.239  1.0524  0.4974 -1.6049
 7785TIP3    H244771   3.958   4.162  15.351 -0.9720 -1.2366  0.6675
 7786TIP3   OH244772   2.220   0.967   4.080  0.0417 -0.1879  0.4353
 7786TIP3    H144773   2.297   0.939   4.030 -0.7253  0.2098 -1.0181
 7786TIP3    H244774   2.204   0.896   4.142  1.2506 -0.5249  0.3666
 7787TIP3   OH244775   4.367   0.046  13.111  0.0234  0.0282 -0.5482
 7787TIP3    H144776   4.439  -0.016  13.113 -1.0236 -1.2069 -0.6078
 7787TIP3    H244777   4.408   0.132  13.124  1.4482 -0.6920 -0.2830
 7788TIP3   OH244778   1.679   0.429   4.520  0.1950 -0.2076  0.2766
 7788TIP3    H144779   1.723   0.437   4.605 -0.3378  1.1545  0.4264
 7788TIP3    H244780   1.689   0.514   4.479 -2.0573  0.0491  0.2033
 7789TIP3   OH244781   2.744   4.771  11.875 -0.4930  0.6673 -0.0626
 7789TIP3    H144782   2.733   4.852  11.923 -0.7230  1.1908 -0.9727
 7789TIP3    H244783   2.837   4.768  11.852 -0.4814  0.6715 -0.0151
 7790TIP3   OH244784   0.235   6.472   0.158 -0.4977  1.0198  0.0115
 7790TIP3    H144785   0.261   6.474   0.250  1.5922 -1.3699 -0.4522
 7790TIP3    H244786   0.161   6.412   0.155  0.9634 -0.8322 -0.1469
 7791TIP3   OH244787   2.819   4.693   2.140 -0.5185  0.3709 -0.1984
 7791TIP3    H144788   2.842   4.600   2.150 -1.2176  0.2423  0.2579
 7791TIP3    H244789   2.758   4.710   2.212 -0.6401  1.1046 -0.4769
 7792TIP3   OH244790   6.489   6.133  11.804  0.0070  0.2042  0.3342
 7792TIP3    H144791   6.502   6.058  11.863 -1.6319 -0.1241  0.3222
 7792TIP3    H244792   6.568   6.136  11.750 -0.8365 -2.9149 -1.1909
 7793TIP3   OH244793   6.774   3.907   3.492 -0.0877 -0.6653 -0.2657
 7793TIP3    H144794   6.784   4.002   3.488 -1.5155 -0.4486  0.7260
 7793TIP3    H244795   6.790   3.877   3.403  0.1998  0.5345 -0.6205
 7794TIP3   OH244796   5.945   3.772  14.253  0.2356 -0.2427  0.4619
 7794TIP3    H144797   5.897   3.692  14.272  1.5532 -0.7035  1.9834
 7794TIP3    H244798   6.032   3.758  14.291  0.8425  1.4717 -0.2076
 7795TIP3   OH244799   2.164   3.168  15.819 -0.2451 -0.2181  0.1686
 7795TIP3    H144800   2.171   3.090  15.874  1.3596 -0.2248 -0.0134
 7795TIP3    H244801   2.151   3.134  15.730  0.5493 -0.2934  0.0756
 7796TIP3   OH244802   5.127   3.331   5.240  0.7936  0.2678  0.0015
 7796TIP3    H144803   5.103   3.256   5.187 -0.8273 -2.3266  4.1738
 7796TIP3    H244804   5.044   3.371   5.265  1.5302  1.5345  0.4918
 7797TIP3   OH244805   5.349   0.831   5.906 -0.2615 -0.4860 -0.2852
 7797TIP3    H144806   5.365   0.916   5.864  0.1337 -0.9024 -0.9927
 7797TIP3    H244807   5.433   0.805   5.942 -0.4836 -0.3707  0.3141
 7798TIP3   OH244808   5.364   4.208  15.822 -0.6413 -0.0283 -0.1462
 7798TIP3    H144809   5.285   4.232  15.872 -1.2011 -0.9908 -0.5508
 7798TIP3    H244810   5.349   4.118  15.796  1.1704 -0.6375  0.8416
 7799TIP3   OH244811   0.018   3.307   4.001  0.4028  0.0599  0.6252
 7799TIP3    H144812  -0.071   3.335   4.020  1.1217  2.1863  0.9209
 7799TIP3    H244813   0.070   3.340   4.073  1.7325  0.4688 -0.4965
 7800TIP3   OH244814   4.692   2.783  11.284  0.7725  0.1612 -0.0294
 7800TIP3    H144815   4.783   2.756  11.302  0.4466 -0.7953  0.1941
 7800TIP3    H244816   4.662   2.820  11.366  0.7364 -0.1400  0.0916
 7801TIP3   OH244817   6.212   5.538   3.735 -0.1092 -0.1517 -0.2573
 7801TIP3    H144818   6.118   5.527   3.751 -0.2455  0.5825 -0.5023
 7801TIP3    H244819   6.216   5.601   3.663  0.4775 -2.8944 -2.7029
 7802TIP3   OH244820   5.083   6.520   4.525  0.3365 -0.4350 -0.3994
 7802TIP3    H144821   5.119   6.576   4.456  0.7408  1.0228  0.9536
 7802TIP3    H244822   5.149   6.522   4.594 -0.9003 -0.3075  0.8079
 7803TIP3   OH244823   5.590   3.448  13.883  0.5192  0.0669  0.4412
 7803TIP3    H144824   5.606   3.451  13.978  0.3584  0.4643  0.4600
 7803TIP3    H244825   5.503   3.489  13.873  0.9640  0.9292  0.0317
 7804TIP3   OH244826   4.179   4.962   1.888 -0.2750  0.6113  0.2810
 7804TIP3    H144827   4.248   4.932   1.948  0.4732  3.3521  0.8429
 7804TIP3    H244828   4.104   4.905   1.907  1.2546 -1.2826  0.8596
 7805TIP3   OH244829   0.371   3.174  14.306 -0.3139  0.1676 -0.1620
 7805TIP3    H144830   0.433   3.204  14.372  0.2787  1.6281 -1.3476
 7805TIP3    H244831   0.425   3.138  14.236 -0.8460  0.5713 -0.7869
 7806TIP3   OH244832   6.707   5.111   4.310 -0.1858  0.0388  0.6847
 7806TIP3    H144833   6.783   5.169   4.309  0.3384 -0.6006  2.3261
 7806TIP3    H244834   6.720   5.054   4.386 -1.9765 -0.5055  0.6248
 7807TIP3   OH244835   1.362   1.006  12.260 -0.0186  0.6854  0.3391
 7807TIP3    H144836   1.345   0.961  12.343 -0.1298 -1.6029 -0.8796
 7807TIP3    H244837   1.425   0.950  12.215  0.5971  2.2800 -0.8266
 7808TIP3   OH244838   1.830   4.374   4.595 -0.2035 -0.2938 -0.1017
 7808TIP3    H144839   1.867   4.460   4.576 -2.0980  0.1649 -1.8918
 7808TIP3    H244840   1.781   4.386   4.677  1.4672 -0.2915  0.9256
 7809TIP3   OH244841   6.067   6.478  14.839  0.5785  0.3948 -0.5364
 7809TIP3    H144842   6.094   6.406  14.897  0.0262  0.2674 -0.4350
 7809TIP3    H244843   6.086   6.445  14.751  0.9516  0.3893 -0.4540
 7810TIP3   OH244844   1.017   0.974  12.656  0.2299  0.0913 -0.2215
 7810TIP3    H144845   0.995   0.896  12.707 -0.1928  0.6913  0.5262
 7810TIP3    H244846   1.044   0.940  12.570  1.0945 -0.9362  0.4405
 7811TIP3   OH244847   2.025   4.944   3.681  0.2110  0.5546 -0.0422
 7811TIP3    H144848   1.973   4.961   3.603  2.7988  0.6769 -1.8221
 7811TIP3    H244849   2.070   5.027   3.699  2.0302 -0.3341 -0.3308
 7812TIP3   OH244850   3.033   2.100   0.785  0.0355 -0.2149 -0.1268
 7812TIP3    H144851   2.960   2.064   0.734  0.8299 -2.1417  0.0649
 7812TIP3    H244852   3.020   2.067   0.873  1.2612 -0.7837 -0.1442
 7813TIP3   OH244853   1.170   3.891  12.725 -0.1546 -0.6085  0.0081
 7813TIP3    H144854   1.150   3.837  12.649 -0.0981  0.5128 -0.8158
 7813TIP3    H244855   1.173   3.981  12.691  0.7069 -0.1832  1.1744
 7814TIP3   OH244856   1.775   3.353  11.598 -0.7059  0.3232 -0.2195
 7814TIP3    H144857   1.724   3.405  11.535 -0.3950 -1.6728 -2.1768
 7814TIP3    H244858   1.836   3.416  11.637 -2.0811  1.9613 -0.6306
 7815TIP3   OH244859   0.777   2.273   4.900  0.6199 -0.6679  0.2949
 7815TIP3    H144860   0.709   2.252   4.837 -0.1472  0.5069  0.7076
 7815TIP3    H244861   0.787   2.193   4.952 -1.1235 -0.5608  0.8403
 7816TIP3   OH244862   0.277   5.136   3.469  0.5391  0.5360 -0.8466
 7816TIP3    H144863   0.283   5.190   3.390  2.2417  0.6158 -0.6950
 7816TIP3    H244864   0.335   5.179   3.531 -1.0084  0.6314  0.5598
 7817TIP3   OH244865   4.137   2.334   0.725  0.1107 -0.8457  0.1488
 7817TIP3    H144866   4.144   2.267   0.792  1.8625 -0.8296  0.0086
 7817TIP3    H244867   4.213   2.320   0.668  0.6196  1.3534  0.2288
 7818TIP3   OH244868   5.969   5.754  13.349  0.2799 -0.1039 -0.0859
 7818TIP3    H144869   6.042   5.736  13.289  0.6946 -0.4994  0.5322
 7818TIP3    H244870   5.907   5.804  13.296  0.8002 -0.1429 -0.7475
 7819TIP3   OH244871   0.686   2.948   4.527 -0.1977 -0.1237 -0.5854
 7819TIP3    H144872   0.757   2.884   4.533  0.8013  0.9547 -0.5415
 7819TIP3    H244873   0.684   2.989   4.614 -1.5871 -0.8787 -0.2576
 7820TIP3   OH244874   5.216   4.945  12.122  0.0944  0.3568 -0.4417
 7820TIP3    H144875   5.263   5.011  12.171 -2.0292  0.6911  1.2423
 7820TIP3    H244876   5.262   4.939  12.038  2.8405  0.8990  0.9766
 7821TIP3   OH244877   0.909   3.356  14.897 -0.3328  0.0333  0.5068
 7821TIP3    H144878   0.914   3.380  14.990  0.1580  2.0471  0.0008
 7821TIP3    H244879   1.000   3.353  14.868 -0.5565  2.0116 -0.5012
 7822TIP3   OH244880   2.968   6.626   1.189  0.6229 -0.4736  0.2829
 7822TIP3    H144881   3.063   6.618   1.181  0.4916 -1.5019 -0.3652
 7822TIP3    H244882   2.933   6.553   1.137 -0.4556 -1.9392  2.9590
 7823TIP3   OH244883   5.044   5.700  17.199 -0.0215 -0.5086  0.3055
 7823TIP3    H144884   4.960   5.711  17.243  0.7278  0.5321  1.5327
 7823TIP3    H244885   5.107   5.692  17.271  1.2631  1.5449 -0.5419
 7824TIP3   OH244886   6.471   4.503   1.891 -0.3694 -0.1258  0.0236
 7824TIP3    H144887   6.379   4.483   1.872  0.1559 -1.9211 -0.7880
 7824TIP3    H244888   6.519   4.463   1.819  1.1852 -0.9488  1.4822
 7825TIP3   OH244889   6.732   2.452   3.581  0.3761 -0.1994 -0.0988
 7825TIP3    H144890   6.685   2.534   3.567 -0.5149 -0.9531 -1.5797
 7825TIP3    H244891   6.726   2.437   3.675  0.2239  1.2298  0.1325
 7826TIP3   OH244892   0.178   6.186   5.832  0.2107  0.1354 -0.1410
 7826TIP3    H144893   0.082   6.192   5.833  0.0772 -1.4603 -1.0624
 7826TIP3    H244894   0.199   6.147   5.918 -0.1451 -1.4144 -0.7303
 7827TIP3   OH244895   4.300   3.765  11.067 -0.3833 -0.0605  0.0076
 7827TIP3    H144896   4.277   3.676  11.040 -1.1726  0.1112  0.1070
 7827TIP3    H244897   4.248   3.780  11.146  1.2554 -0.2478  1.1465
 7828TIP3   OH244898   4.036   4.622   0.519 -0.3354  0.4301 -0.2971
 7828TIP3    H144899   3.962   4.579   0.562 -0.0129  1.5921  1.5119
 7828TIP3    H244900   4.096   4.550   0.496 -1.7787 -0.4635 -1.3299
 7829TIP3   OH244901   4.273   3.693   2.079  0.5847 -0.1408  0.1877
 7829TIP3    H144902   4.195   3.655   2.038  1.3505 -2.0392  0.4294
 7829TIP3    H244903   4.335   3.620   2.084  1.8709  1.0028  1.2657
 7830TIP3   OH244904   1.227   2.024   2.380  0.3650  0.2600  0.2711
 7830TIP3    H144905   1.150   2.037   2.436 -0.8324 -1.9399 -0.8008
 7830TIP3    H244906   1.298   2.008   2.441 -0.8805 -1.8606  1.2509
 7831TIP3   OH244907   0.785   0.690  17.083 -0.1931 -0.0227  0.0052
 7831TIP3    H144908   0.742   0.774  17.070  0.9057  0.2757 -1.9326
 7831TIP3    H244909   0.874   0.703  17.050 -0.5960 -2.5197 -2.2386
 7832TIP3   OH244910   4.529   3.763  14.146  0.2464 -0.2757 -0.2475
 7832TIP3    H144911   4.451   3.726  14.187 -0.5396  0.5136 -1.0060
 7832TIP3    H244912   4.603   3.721  14.191 -0.6105 -0.4626  0.9948
 7833TIP3   OH244913   4.515   5.102  14.625 -0.4608  0.3537  0.1286
 7833TIP3    H144914   4.467   5.171  14.669 -0.2371  1.7957 -1.8476
 7833TIP3    H244915   4.553   5.144  14.548  1.2694 -1.5118 -0.0836
 7834TIP3   OH244916   2.875   6.035   2.738  0.1901  0.1259 -0.3968
 7834TIP3    H144917   2.802   5.983   2.703 -1.3257  1.8361  0.1527
 7834TIP3    H244918   2.936   6.043   2.664  0.7861 -2.9608 -0.3002
 7835TIP3   OH244919   6.004   4.622  13.272 -0.0493 -0.1541 -0.2318
 7835TIP3    H144920   6.064   4.697  13.275 -0.0775 -0.1812  1.9806
 7835TIP3    H244921   6.036   4.569  13.200  1.0016  1.1539 -0.7565
 7836TIP3   OH244922   2.954   3.730  12.248  0.4931 -0.2136  0.0789
 7836TIP3    H144923   3.022   3.714  12.314  0.2643 -1.1980  0.0768
 7836TIP3    H244924   2.981   3.812  12.205  1.3921 -0.3186  0.4394
 7837TIP3   OH244925   3.810   6.656   4.512 -0.1130 -0.2141  0.1321
 7837TIP3    H144926   3.777   6.705   4.588  0.1244 -1.0152  0.7575
 7837TIP3    H244927   3.742   6.667   4.445 -0.9961 -0.7075  0.9429
 7838TIP3   OH244928   6.406   6.611   2.182 -0.0873  0.4601 -0.4038
 7838TIP3    H144929   6.362   6.630   2.265 -0.7648  1.8547 -1.0635
 7838TIP3    H244930   6.417   6.516   2.181  0.9127  0.5162  1.7745
 7839TIP3   OH244931   3.389   2.412  11.228 -0.3312  0.6425 -0.3682
 7839TIP3    H144932   3.410   2.428  11.136 -0.0412  0.9781 -0.2439
 7839TIP3    H244933   3.448   2.470  11.277  0.4207 -0.4875  0.0763
 7840TIP3   OH244934   2.824   1.623   1.462 -0.4678 -0.0749 -0.0921
 7840TIP3    H144935   2.914   1.630   1.432 -0.4198  0.3122  0.1286
 7840TIP3    H244936   2.779   1.575   1.393  0.3380 -2.0277  0.7169
 7841TIP3   OH244937   1.774   5.917   2.813 -0.1232 -0.3841  0.6092
 7841TIP3    H144938   1.811   6.006   2.809 -0.6092 -0.1946  0.2651
 7841TIP3    H244939   1.684   5.929   2.843  0.6167 -1.0096  3.2110
 7842TIP3   OH244940   6.236   6.511  12.093 -0.3736 -0.2303  0.2452
 7842TIP3    H144941   6.306   6.469  12.144 -0.6870  0.2721  1.1005
 7842TIP3    H244942   6.209   6.444  12.031 -0.0627 -0.8977  0.8142
 7843TIP3   OH244943   5.674   0.241  16.672  0.2179  0.2297  0.1108
 7843TIP3    H144944   5.750   0.235  16.731 -0.2213 -1.1699  0.5489
 7843TIP3    H244945   5.622   0.164  16.692 -0.1581 -0.0389 -1.8237
 7844TIP3   OH244946   0.996   6.270  11.843  0.3176  0.2033  0.3049
 7844TIP3    H144947   0.997   6.231  11.756 -0.3737 -0.0417  0.4028
 7844TIP3    H244948   1.048   6.211  11.897  2.0453  1.1588 -0.2711
 7845TIP3   OH244949   1.704   5.888  11.249 -0.2765  0.2528 -0.0504
 7845TIP3    H144950   1.778   5.844  11.207  0.5796  1.7930 -0.1755
 7845TIP3    H244951   1.702   5.975  11.209 -1.6310  0.5226  0.5784
 7846TIP3   OH244952   5.880   2.880  14.648 -0.0663  0.1378 -0.6187
 7846TIP3    H144953   5.879   2.785  14.657  0.9881 -0.2494 -3.8534
 7846TIP3    H244954   5.970   2.906  14.667 -0.6334  0.6404  1.4287
 7847TIP3   OH244955   3.255   4.391  14.045 -0.2994  0.1365 -0.0690
 7847TIP3    H144956   3.259   4.297  14.027  0.5967  0.0176  0.7579
 7847TIP3    H244957   3.344   4.415  14.070 -0.4811  1.2457 -0.4338
 7848TIP3   OH244958   2.687   1.830  12.470 -0.3165  0.3397 -0.2149
 7848TIP3    H144959   2.667   1.828  12.564  2.5612 -0.5493  0.4271
 7848TIP3    H244960   2.739   1.751  12.455  0.9197  1.4955 -2.1506
 7849TIP3   OH244961   4.181   4.194  13.043 -0.0046 -0.5320  0.1627
 7849TIP3    H144962   4.148   4.178  13.131 -0.9901  0.9724  0.0924
 7849TIP3    H244963   4.274   4.210  13.055 -0.4336  1.3826  1.1714
 7850TIP3   OH244964   0.074   3.208  15.053 -0.8803 -0.1719  0.3555
 7850TIP3    H144965   0.022   3.191  14.975 -1.6986 -0.6156  0.9834
 7850TIP3    H244966   0.016   3.186  15.126 -0.8484  2.1741  1.1507
 7851TIP3   OH244967   4.263   2.846   1.785  0.0640 -0.0281  0.1273
 7851TIP3    H144968   4.303   2.862   1.871  1.1976 -2.6515  0.1363
 7851TIP3    H244969   4.175   2.815   1.805  0.3565 -0.7192  0.3661
 7852TIP3   OH244970   6.622   4.253   4.581  0.4458 -0.0043  0.4299
 7852TIP3    H144971   6.619   4.209   4.667 -0.7691 -0.8237 -0.0174
 7852TIP3    H244972   6.615   4.346   4.602 -0.3887 -0.2285  1.1976
 7853TIP3   OH244973   2.894   6.426  16.082  0.1296  0.3100  0.7534
 7853TIP3    H144974   2.936   6.466  16.006  0.7246 -0.9754  0.3790
 7853TIP3    H244975   2.801   6.430  16.063  0.2647  0.1957  0.0430
 7854TIP3   OH244976   0.491   5.065   1.337  0.3308 -0.3114 -0.1204
 7854TIP3    H144977   0.548   4.989   1.348  2.0595  0.9332 -0.2327
 7854TIP3    H244978   0.532   5.116   1.267 -0.9938  0.5640 -0.2912
 7855TIP3   OH244979   2.438   4.590   1.028 -0.1805  0.8996 -0.0680
 7855TIP3    H144980   2.432   4.494   1.024  2.3600  0.6061  1.6842
 7855TIP3    H244981   2.440   4.617   0.936 -0.7801 -0.7352 -0.5913
 7856TIP3   OH244982   3.022   1.282  11.873 -0.6331  0.1109  0.3213
 7856TIP3    H144983   3.026   1.355  11.934 -1.6114  1.2530 -0.9525
 7856TIP3    H244984   2.928   1.268  11.859 -0.4286 -0.4884 -0.4889
 7857TIP3   OH244985   3.657   4.996  16.514 -0.1616  0.9149  0.3738
 7857TIP3    H144986   3.631   4.908  16.541 -1.0177  1.2853  0.7809
 7857TIP3    H244987   3.575   5.038  16.487  0.3682  1.2957 -0.6683
 7858TIP3   OH244988   0.033   6.342   3.823 -0.1555 -0.3935 -0.5524
 7858TIP3    H144989   0.078   6.280   3.881 -0.1737 -1.0317 -1.2177
 7858TIP3    H244990   0.088   6.347   3.745 -1.0857 -0.9900 -1.2698
 7859TIP3   OH244991   5.305   4.502  16.116  0.3321  0.3913  0.2550
 7859TIP3    H144992   5.232   4.562  16.132  0.0397  0.3347 -0.7994
 7859TIP3    H244993   5.376   4.559  16.087  0.8076  0.4784  1.5666
 7860TIP3   OH244994   6.441   0.680  14.275  0.0158  0.1812  0.0248
 7860TIP3    H144995   6.409   0.596  14.307  0.7933  0.0950  0.6130
 7860TIP3    H244996   6.532   0.684  14.305  0.5348  0.4484 -1.5329
 7861TIP3   OH244997   5.758   5.437  12.284  0.7236  0.3860  0.2411
 7861TIP3    H144998   5.760   5.363  12.223 -1.9708 -1.8295  2.6939
 7861TIP3    H244999   5.671   5.476  12.270  0.8616  1.0618  1.2419
 7862TIP3   OH245000   2.502   1.346   6.338 -0.0403 -0.2056 -0.1609
 7862TIP3    H145001   2.440   1.408   6.301 -0.5204  0.6062  1.9265
 7862TIP3    H245002   2.580   1.398   6.359  0.5664 -0.8234 -0.8625
 7863TIP3   OH245003   1.206   3.222  15.218 -0.0792  0.1263  0.1162
 7863TIP3    H145004   1.127   3.187  15.178  0.7075 -0.5732 -0.8448
 7863TIP3    H245005   1.230   3.159  15.286  1.1298 -1.0487 -1.3678
 7864TIP3   OH245006   6.338   5.802  11.841 -0.1525  0.0011  0.3232
 7864TIP3    H145007   6.416   5.753  11.817 -0.5221  0.5243 -2.0823
 7864TIP3    H245008   6.371   5.872  11.898  1.4690  1.4459 -2.2913
 7865TIP3   OH245009   1.389   0.336   4.602 -0.8700  0.1077 -0.0778
 7865TIP3    H145010   1.439   0.314   4.523  0.1229 -0.3739  0.6605
 7865TIP3    H245011   1.334   0.410   4.576 -0.0284  0.4207 -1.0256
 7866TIP3   OH245012   1.012   5.224  17.193 -0.1190  0.1316 -0.2807
 7866TIP3    H145013   0.946   5.156  17.177  0.0481  0.1606 -1.0992
 7866TIP3    H245014   1.094   5.185  17.163  0.1317  0.3571  0.1083
 7867TIP3   OH245015   0.186   3.336   5.488  0.3748  0.3147 -0.1616
 7867TIP3    H145016   0.196   3.261   5.429 -0.2209 -0.9441  1.3090
 7867TIP3    H245017   0.269   3.383   5.480  0.6243 -0.2894 -1.3671
 7868TIP3   OH245018   4.164   0.979   5.619  0.3303  0.1788  0.1690
 7868TIP3    H145019   4.128   1.062   5.588  2.3172  1.1473  0.3522
 7868TIP3    H245020   4.172   0.990   5.713 -0.0446 -0.4907  0.2836
 7869TIP3   OH245021   4.278   3.715   0.750 -0.6421  0.1163 -0.3625
 7869TIP3    H145022   4.229   3.772   0.690  0.3792  0.8245 -0.5330
 7869TIP3    H245023   4.237   3.731   0.835 -1.6965 -0.4346 -0.7601
 7870TIP3   OH245024   0.343   5.952  11.684 -0.0991  0.1351  0.1164
 7870TIP3    H145025   0.428   5.987  11.710  0.0804  0.3210 -0.7158
 7870TIP3    H245026   0.364   5.882  11.621 -0.5036 -0.6831  0.8808
 7871TIP3   OH245027   1.180   3.070   4.853  0.0897  0.2665 -0.0263
 7871TIP3    H145028   1.120   3.088   4.781 -0.0696 -1.2874 -0.2911
 7871TIP3    H245029   1.264   3.108   4.824 -0.1361  0.2321 -0.7321
 7872TIP3   OH245030   4.866   1.771  10.836  0.0485 -0.3466  0.2368
 7872TIP3    H145031   4.904   1.801  10.753  2.3617  0.4928  1.5387
 7872TIP3    H245032   4.914   1.691  10.857  0.6812  0.3789  1.6089
 7873TIP3   OH245033   1.727   2.460  14.586  0.1946  0.0291 -0.8231
 7873TIP3    H145034   1.725   2.555  14.584  1.3989  0.0202 -4.5165
 7873TIP3    H245035   1.635   2.434  14.591 -0.1414  1.3336  0.1173
 7874TIP3   OH245036   0.715   2.791  15.411  0.3124  0.0784  1.0643
 7874TIP3    H145037   0.715   2.727  15.340  1.1708  1.5316 -0.2807
 7874TIP3    H245038   0.662   2.751  15.480 -1.6686 -0.7911 -0.9037
 7875TIP3   OH245039   1.567   4.508  10.816  0.0896 -0.3670  0.0206
 7875TIP3    H145040   1.496   4.471  10.764 -0.5554  1.3295 -0.3270
 7875TIP3    H245041   1.645   4.460  10.786 -1.0149 -2.9951  1.1756
 7876TIP3   OH245042   1.764   6.141  14.442  0.0450  0.1456 -0.0013
 7876TIP3    H145043   1.722   6.123  14.358  0.6234 -0.0538 -0.2557
 7876TIP3    H245044   1.703   6.198  14.488 -0.0376  0.6868 -0.7693
 7877TIP3   OH245045   0.637   5.416   3.858 -0.5169 -0.3535  0.1771
 7877TIP3    H145046   0.562   5.357   3.859 -1.3281  0.6568  2.0111
 7877TIP3    H245047   0.620   5.476   3.785 -1.9346  0.4052  1.1162
 7878TIP3   OH245048   4.993   0.703   2.205  0.3577 -0.1185 -0.7497
 7878TIP3    H145049   4.913   0.716   2.257 -0.4800  0.6343 -2.1831
 7878TIP3    H245050   5.015   0.611   2.218  0.4525  0.1711  1.3200
 7879TIP3   OH245051   3.957   4.562   2.513  0.4326  0.4920 -0.1167
 7879TIP3    H145052   3.962   4.551   2.608 -0.3001  2.6286  0.1784
 7879TIP3    H245053   3.867   4.588   2.496  1.0274  1.9363 -1.2044
 7880TIP3   OH245054   4.461   4.924  11.749  0.0535 -0.2282  0.2633
 7880TIP3    H145055   4.429   4.834  11.758 -0.6706 -0.0540 -0.4831
 7880TIP3    H245056   4.538   4.916  11.692 -0.3365 -0.3172 -0.2579
 7881TIP3   OH245057   1.404   6.238  11.033  0.4688 -1.0347  0.1265
 7881TIP3    H145058   1.318   6.278  11.045  0.6002 -1.2242  1.8189
 7881TIP3    H245059   1.440   6.283  10.957  0.2187  1.4555  1.3964
 7882TIP3   OH245060   4.178   5.266  11.004  0.1612  0.3076 -0.6655
 7882TIP3    H145061   4.141   5.180  11.024 -0.5168  0.4672 -1.2353
 7882TIP3    H245062   4.181   5.311  11.089  0.1882 -0.1484 -0.4243
 7883TIP3   OH245063   4.495   3.001  15.512 -0.2458 -0.8005  0.0766
 7883TIP3    H145064   4.569   3.019  15.571  1.2312 -0.5948 -1.8158
 7883TIP3    H245065   4.491   3.078  15.455 -0.1979 -2.0402 -1.6082
 7884TIP3   OH245066   5.305   2.601  13.549 -0.0557 -0.2233  0.4294
 7884TIP3    H145067   5.212   2.579  13.542 -0.6296  1.7227  1.8159
 7884TIP3    H245068   5.310   2.664  13.621  2.2250  0.3519 -0.2000
 7885TIP3   OH245069   4.787   5.776   0.779  0.7072  0.3135  0.3923
 7885TIP3    H145070   4.794   5.692   0.825 -2.1718  0.1838  0.6937
 7885TIP3    H245071   4.792   5.842   0.848  2.0074  0.3737  0.2555
 7886TIP3   OH245072   6.207   2.426   4.409 -0.0037 -1.4604  0.0292
 7886TIP3    H145073   6.217   2.330   4.409 -0.1286 -1.4778 -2.0283
 7886TIP3    H245074   6.179   2.447   4.321  0.3454  0.5331  0.3864
 7887TIP3   OH245075   5.927   2.599  10.575  0.2140  0.2405 -0.0853
 7887TIP3    H145076   5.893   2.565  10.658 -1.0555 -0.2807 -0.8114
 7887TIP3    H245077   5.943   2.522  10.521  2.7561  0.4629  0.2950
 7888TIP3   OH245078   1.814   3.658   3.445 -0.6317  0.1581  0.0485
 7888TIP3    H145079   1.885   3.679   3.505 -1.3933  1.1743  0.6133
 7888TIP3    H245080   1.762   3.592   3.492 -0.0528 -0.6145 -0.3809
 7889TIP3   OH245081   5.265   0.557  11.012 -0.0946  0.2878  0.3973
 7889TIP3    H145082   5.282   0.463  11.010 -0.5745  0.2040  0.0861
 7889TIP3    H245083   5.228   0.573  11.099 -0.5613  0.0873  0.2387
 7890TIP3   OH245084   2.316   6.216  13.138  0.4792 -0.0946 -0.4823
 7890TIP3    H145085   2.300   6.249  13.049  1.8998  1.3934 -0.2014
 7890TIP3    H245086   2.299   6.291  13.195  0.8117 -0.6912  0.4122
 7891TIP3   OH245087   1.036   2.732  15.766  0.2567  0.1290  0.1163
 7891TIP3    H145088   1.082   2.688  15.695 -0.4553 -0.3629 -0.0473
 7891TIP3    H245089   1.050   2.825  15.750  1.1000 -0.0134  0.0082
 7892TIP3   OH245090   3.901   5.511  16.120  0.2419  0.4932  0.3222
 7892TIP3    H145091   3.918   5.538  16.210 -0.5437  1.4982  0.1709
 7892TIP3    H245092   3.808   5.527  16.106 -0.0896 -1.5985 -0.0222
 7893TIP3   OH245093   3.664   6.440  15.744 -0.9013  0.3581 -0.4265
 7893TIP3    H145094   3.674   6.496  15.821 -1.5959  0.3578 -0.3370
 7893TIP3    H245095   3.642   6.354  15.780  0.8561 -0.1454 -0.5297
 7894TIP3   OH245096   4.163   3.659   2.688 -0.5442 -0.5960 -0.4886
 7894TIP3    H145097   4.129   3.672   2.600 -0.1746  2.8399 -0.2098
 7894TIP3    H245098   4.097   3.606   2.733 -1.1183 -1.6723 -2.5535
 7895TIP3   OH245099   0.361   3.674   5.274 -0.1674  0.3500  0.3645
 7895TIP3    H145100   0.269   3.679   5.298 -0.2911  2.6041 -0.4777
 7895TIP3    H245101   0.368   3.594   5.222 -1.5231 -0.1342  0.9068
 7896TIP3   OH245102   1.672   1.288   0.298  0.7344 -0.2406  0.1885
 7896TIP3    H145103   1.616   1.277   0.375  0.5123 -0.1603  0.0406
 7896TIP3    H245104   1.734   1.357   0.323  0.3400  0.1409  0.1154
 7897TIP3   OH245105   3.383   3.884   1.191 -0.4206  0.1338 -0.3708
 7897TIP3    H145106   3.461   3.934   1.213 -1.1722  0.5371  1.5281
 7897TIP3    H245107   3.338   3.937   1.124  0.0113  0.8114 -0.1289
 7898TIP3   OH245108   3.681   4.727   1.893 -0.4147  0.3821 -0.3154
 7898TIP3    H145109   3.632   4.711   1.812 -0.8152  0.0702 -0.0122
 7898TIP3    H245110   3.750   4.660   1.893 -0.9834 -0.2097  0.0570
 7899TIP3   OH245111   1.123   3.464  13.245  0.5119 -1.0521 -0.1831
 7899TIP3    H145112   1.093   3.551  13.271 -0.1300 -1.6028  0.9877
 7899TIP3    H245113   1.214   3.476  13.220  0.0801  0.1728 -1.2158
 7900TIP3   OH245114   2.191   3.819  14.607 -0.1177 -0.2370 -0.5652
 7900TIP3    H145115   2.214   3.803  14.699  0.1957 -0.7073 -0.7268
 7900TIP3    H245116   2.151   3.906  14.608 -0.5026 -0.4115  0.0869
 7901TIP3   OH245117   2.711   4.808   1.009  0.1280  0.0356  0.1465
 7901TIP3    H145118   2.715   4.729   1.063  1.7410  1.1668  1.7591
 7901TIP3    H245119   2.794   4.808   0.962 -0.1229  0.4707 -0.2919
 7902TIP3   OH245120   4.422   2.650   4.735 -0.6042  0.0699 -0.2590
 7902TIP3    H145121   4.443   2.673   4.825  0.4683 -0.5456 -0.3459
 7902TIP3    H245122   4.326   2.649   4.732 -0.6667  2.3629  0.2792
 7903TIP3   OH245123   4.436   5.879  15.182  0.6978 -0.2292 -0.2469
 7903TIP3    H145124   4.474   5.793  15.168  1.6798  0.2940 -0.8701
 7903TIP3    H245125   4.509   5.934  15.211 -0.2314  0.0356  1.6595
 7904TIP3   OH245126   1.274   6.354   0.611 -0.5952 -0.3867 -0.4895
 7904TIP3    H145127   1.243   6.422   0.552 -0.0724  0.4494  0.1938
 7904TIP3    H245128   1.195   6.311   0.643 -1.0365  1.3272  0.7752
 7905TIP3   OH245129   1.566   2.882   1.185 -0.5369 -0.1857  0.1411
 7905TIP3    H145130   1.484   2.886   1.135  0.2495 -0.7288 -1.2028
 7905TIP3    H245131   1.570   2.966   1.231 -1.8794 -0.1846  0.2740
 7906TIP3   OH245132   6.545   1.015  12.943 -0.0134 -0.0278  0.0327
 7906TIP3    H145133   6.478   1.005  12.875 -0.9117 -1.0399  1.0291
 7906TIP3    H245134   6.604   0.942  12.929  0.7077  0.6790 -0.6417
 7907TIP3   OH245135   4.990   0.818   3.448 -0.1887  0.6055  0.2038
 7907TIP3    H145136   4.980   0.798   3.541 -0.5590  0.8154  0.2104
 7907TIP3    H245137   4.936   0.896   3.434 -1.4689 -0.3931 -0.5376
 7908TIP3   OH245138   3.479   5.717   0.808  0.1305  0.0083  0.2626
 7908TIP3    H145139   3.465   5.650   0.875 -0.4254 -1.5640 -1.3833
 7908TIP3    H245140   3.570   5.745   0.819 -0.0300 -0.0510  1.8101
 7909TIP3   OH245141   5.581   4.908  15.419 -0.5028 -0.2309 -0.3101
 7909TIP3    H145142   5.537   4.846  15.477 -0.1053 -0.8869 -0.6962
 7909TIP3    H245143   5.650   4.856  15.377 -0.0682  0.5140 -0.5197
 7910TIP3   OH245144   5.265   5.715   1.403 -0.0797 -0.3081 -1.0223
 7910TIP3    H145145   5.215   5.647   1.446  0.0964  0.1483 -0.0982
 7910TIP3    H245146   5.324   5.749   1.471  0.4592  0.1536 -1.7076
 7911TIP3   OH245147   5.986   3.665  11.875 -0.3135 -0.3877  0.1341
 7911TIP3    H145148   5.975   3.715  11.956  0.6630  0.8661 -0.5010
 7911TIP3    H245149   5.967   3.574  11.901 -1.1639  0.1564  1.4975
 7912TIP3   OH245150   4.756   4.370   6.065  0.8297  0.0824 -0.5072
 7912TIP3    H145151   4.705   4.363   6.146  0.7840 -2.0498 -0.7016
 7912TIP3    H245152   4.829   4.427   6.087  0.5782 -0.1380  0.9247
 7913TIP3   OH245153   2.293   1.383   5.347 -0.4819 -0.5965  0.4356
 7913TIP3    H145154   2.362   1.449   5.337 -0.7137 -0.0046  2.5729
 7913TIP3    H245155   2.338   1.307   5.384 -0.7941 -0.5672  0.8742
 7914TIP3   OH245156   3.655   0.559   1.833  0.1765  0.1813 -0.8811
 7914TIP3    H145157   3.695   0.484   1.790  1.4875 -0.8178  1.9206
 7914TIP3    H245158   3.621   0.613   1.762 -0.7062 -2.9887 -2.9511
 7915TIP3   OH245159   5.737   0.752   0.220 -0.6865  0.2060 -0.1629
 7915TIP3    H145160   5.826   0.726   0.241 -1.0914 -1.0728  0.0000
 7915TIP3    H245161   5.742   0.789   0.132 -0.0209  0.0156 -0.2026
 7916TIP3   OH245162   2.700   4.109  12.780 -0.0454  0.1021  0.3694
 7916TIP3    H145163   2.627   4.047  12.779 -0.9761  1.2008  0.6744
 7916TIP3    H245164   2.698   4.151  12.694  1.7778 -1.6528 -0.5786
 7917TIP3   OH245165   0.029   2.101  16.291  0.2742  0.3751  0.6813
 7917TIP3    H145166  -0.007   2.013  16.302 -1.0541  0.6755 -0.9838
 7917TIP3    H245167  -0.039   2.160  16.324  0.3545  0.8579 -0.0038
 7918TIP3   OH245168   4.055   3.918  11.949  0.2972 -0.1160  0.3292
 7918TIP3    H145169   4.125   3.866  11.989 -0.0524 -1.0136 -0.1882
 7918TIP3    H245170   3.989   3.853  11.925 -0.2987  0.6207 -0.0218
 7919TIP3   OH245171   3.768   2.368  11.411  0.1193 -0.2580 -0.0014
 7919TIP3    H145172   3.720   2.319  11.344  0.1579  0.4184 -0.5257
 7919TIP3    H245173   3.860   2.342  11.399  0.0220 -0.7798  0.3460
 7920TIP3   OH245174   4.546   4.393  11.791  0.1786 -0.0344  0.7564
 7920TIP3    H145175   4.534   4.478  11.832 -1.2485 -0.2011  0.7161
 7920TIP3    H245176   4.513   4.330  11.855  0.1021 -0.4642  0.2988
 7921TIP3   OH245177   2.271   0.289   1.051  0.4279  0.4376  0.2931
 7921TIP3    H145178   2.341   0.347   1.022  0.5403  1.0437  1.7244
 7921TIP3    H245179   2.287   0.278   1.145 -1.2794  0.4135  0.5906
 7922TIP3   OH245180   1.030   2.789   1.631  0.0513  0.1985 -0.4604
 7922TIP3    H145181   0.971   2.826   1.565  0.2145 -0.0307 -0.7364
 7922TIP3    H245182   1.060   2.865   1.681  0.0719  0.3924 -0.7677
 7923TIP3   OH245183   3.179   6.039   4.841  0.2906  0.1369 -0.1381
 7923TIP3    H145184   3.224   6.110   4.888 -0.1653 -0.7870  1.7255
 7923TIP3    H245185   3.244   5.969   4.836 -0.4979 -0.7267  1.4318
 7924TIP3   OH245186   1.659   3.670  16.373 -0.1005 -0.1428 -0.0579
 7924TIP3    H145187   1.576   3.717  16.380  0.1519  0.4346 -0.8751
 7924TIP3    H245188   1.718   3.731  16.328  0.5501 -0.8222 -0.1362
 7925TIP3   OH245189   2.271   5.043   4.999 -0.0222 -0.2571  0.6123
 7925TIP3    H145190   2.348   5.086   5.034 -0.7263  1.4728  0.0870
 7925TIP3    H245191   2.232   4.999   5.074  1.6598 -1.4665  0.8082
 7926TIP3   OH245192   5.056   2.380  14.777 -0.3383 -0.2729  0.0952
 7926TIP3    H145193   4.964   2.404  14.789 -0.2032 -0.9283  3.0474
 7926TIP3    H245194   5.056   2.285  14.775  0.3655 -0.3378  1.6336
 7927TIP3   OH245195   4.286   2.279  17.060 -0.1615  0.4320 -0.5511
 7927TIP3    H145196   4.233   2.351  17.092  0.0111 -0.1803  1.2334
 7927TIP3    H245197   4.321   2.308  16.976 -0.6922  2.1062 -0.1914
 7928TIP3   OH245198   4.322   4.246  13.365 -0.5831 -0.3099  0.0781
 7928TIP3    H145199   4.373   4.165  13.362 -1.0906 -0.6337  0.2050
 7928TIP3    H245200   4.384   4.311  13.398 -0.0334 -0.5384 -0.4798
 7929TIP3   OH245201   0.226   2.469  16.678  0.4482  0.4531 -0.2784
 7929TIP3    H145202   0.156   2.426  16.627  2.7453 -0.4380 -2.7794
 7929TIP3    H245203   0.279   2.396  16.710  0.7397  1.1767  0.8856
 7930TIP3   OH245204   0.466   0.985  11.783 -0.1998  0.1440  0.1450
 7930TIP3    H145205   0.505   0.983  11.871  0.4541  0.0462 -0.1401
 7930TIP3    H245206   0.525   0.932  11.730 -1.6286 -1.3697  0.0538
 7931TIP3   OH245207   4.250   5.635   3.437 -0.1755 -0.3370  0.6046
 7931TIP3    H145208   4.334   5.589   3.435  0.3137  0.5802 -0.1287
 7931TIP3    H245209   4.218   5.631   3.347  0.6022  2.0514  0.1747
 7932TIP3   OH245210   5.651   6.729   1.842 -0.6846 -0.2212  0.1510
 7932TIP3    H145211   5.576   6.780   1.873 -0.0825  1.3238 -0.8671
 7932TIP3    H245212   5.718   6.742   1.908 -0.4463  0.5251 -0.2346
 7933TIP3   OH245213   5.697   4.035   1.172 -0.0467  1.0394 -0.1585
 7933TIP3    H145214   5.683   4.101   1.104 -0.1068  0.6229 -0.5562
 7933TIP3    H245215   5.728   3.958   1.125 -0.1425  0.7262  0.2813
 7934TIP3   OH245216   0.687   1.351   5.694 -0.5345 -0.1041  0.0234
 7934TIP3    H145217   0.721   1.432   5.733  0.2574  0.0098 -0.8771
 7934TIP3    H245218   0.758   1.287   5.706 -0.7836 -0.4055 -0.0979
 7935TIP3   OH245219   2.975   3.083   2.755  0.2067  0.3183 -0.1368
 7935TIP3    H145220   3.031   3.085   2.833  0.3012  0.7505 -0.2180
 7935TIP3    H245221   2.940   2.994   2.754  0.7763  0.0902 -0.0044
 7936TIP3   OH245222   3.121   6.496  15.327  0.0004 -0.1795 -0.9498
 7936TIP3    H145223   3.121   6.488  15.422  0.7259  0.2412 -0.9105
 7936TIP3    H245224   3.120   6.406  15.295 -1.0352 -0.3191 -0.5514
 7937TIP3   OH245225   0.456   2.690  13.017 -0.3128  0.1811  0.2841
 7937TIP3    H145226   0.365   2.706  13.042 -0.2918  0.7199  0.0184
 7937TIP3    H245227   0.456   2.697  12.922 -0.5513 -2.6791  0.0371
 7938TIP3   OH245228   1.284   3.084   1.156  0.3628 -0.2119 -0.3932
 7938TIP3    H145229   1.195   3.118   1.148  0.2593 -0.9460 -2.7839
 7938TIP3    H245230   1.339   3.153   1.119  0.7164 -0.1496  0.2397
 7939TIP3   OH245231   5.622   1.753   2.432 -0.6819  0.3172 -0.0462
 7939TIP3    H145232   5.573   1.785   2.356 -0.4254 -2.0909 -1.2930
 7939TIP3    H245233   5.663   1.830   2.469 -2.5916  1.8668 -1.0560
 7940TIP3   OH245234   4.422   2.417  15.345  0.2323 -0.0900 -0.0577
 7940TIP3    H145235   4.336   2.415  15.302  0.8685 -3.4053 -1.3365
 7940TIP3    H245236   4.402   2.426  15.438 -1.4465  0.1814 -0.4329
 7941TIP3   OH245237   1.554   2.420   2.683  0.9407  0.2719  0.1271
 7941TIP3    H145238   1.578   2.462   2.600 -0.3067 -0.8960 -0.8437
 7941TIP3    H245239   1.630   2.366   2.705 -0.0269 -2.0538 -2.0336
 7942TIP3   OH245240   3.125   4.225  13.731 -0.7507 -0.3432  0.1377
 7942TIP3    H145241   3.193   4.157  13.729 -1.0458 -0.5862 -3.2204
 7942TIP3    H245242   3.173   4.305  13.754  0.9723 -0.2625 -3.4184
 7943TIP3   OH245243   1.915   1.701  16.235  0.0142 -0.0931  0.7243
 7943TIP3    H145244   1.915   1.623  16.290 -1.3512 -1.2497 -0.8509
 7943TIP3    H245245   1.852   1.760  16.276 -0.4756 -0.6701  0.8081
 7944TIP3   OH245246   5.985   1.615   3.696  0.2234  0.3452  0.6952
 7944TIP3    H145247   6.015   1.534   3.655 -1.5405 -0.7416  1.5491
 7944TIP3    H245248   6.015   1.684   3.636  0.9354 -0.9769 -0.4993
 7945TIP3   OH245249   4.050   4.635   1.683  0.9282  0.0433 -0.2480
 7945TIP3    H145250   4.068   4.636   1.777 -0.4314 -1.7694  0.0673
 7945TIP3    H245251   4.067   4.725   1.654 -0.6863  1.1631  2.1408
 7946TIP3   OH245252   4.267   5.545  15.978 -0.5106 -0.4220  0.5580
 7946TIP3    H145253   4.214   5.621  16.001 -0.7603 -0.4388  0.0362
 7946TIP3    H245254   4.282   5.500  16.062 -1.4444 -0.4995  0.6864
 7947TIP3   OH245255   5.688   6.158  12.164 -0.3512  0.1303 -0.1050
 7947TIP3    H145256   5.619   6.104  12.204 -2.0793  1.8988 -0.6579
 7947TIP3    H245257   5.747   6.094  12.124 -1.2653 -1.4523  0.9875
 7948TIP3   OH245258   3.731   6.008  10.665 -0.2140  0.0220  0.2269
 7948TIP3    H145259   3.678   5.965  10.597 -1.8668 -0.0491  1.5594
 7948TIP3    H245260   3.709   6.101  10.658 -0.2314  0.0404  0.5296
 7949TIP3   OH245261   5.690   3.220  14.749 -0.3076  0.0820 -0.0874
 7949TIP3    H145262   5.743   3.260  14.680 -0.1023  0.8613  0.5181
 7949TIP3    H245263   5.736   3.241  14.830 -0.1437 -1.4561  0.2394
 7950TIP3   OH245264   0.863   3.012  16.084 -0.1191  0.3845  0.0852
 7950TIP3    H145265   0.840   2.922  16.061  2.0293 -0.6217  1.7380
 7950TIP3    H245266   0.957   3.019  16.066  0.2758  1.5047  2.3316
 7951TIP3   OH245267   2.207   0.364   2.429  0.8130 -0.0582  0.1881
 7951TIP3    H145268   2.224   0.291   2.488  1.8333  1.2913  1.6038
 7951TIP3    H245269   2.263   0.435   2.461  0.1602  1.2192 -1.4086
 7952TIP3   OH245270   5.674   6.384   4.928 -0.0881  0.1423 -0.2423
 7952TIP3    H145271   5.757   6.356   4.966  0.9113  0.9353 -1.7922
 7952TIP3    H245272   5.608   6.361   4.994  1.5734  1.4057  1.9319
 7953TIP3   OH245273   6.515   4.291  15.786 -0.2386 -0.6350 -0.0547
 7953TIP3    H145274   6.490   4.384  15.781  0.0602 -0.5819 -0.6887
 7953TIP3    H245275   6.601   4.288  15.743  0.3607 -0.9872  1.1378
 7954TIP3   OH245276   4.364   6.164   0.372  0.1530  0.5806  0.3974
 7954TIP3    H145277   4.392   6.250   0.339 -0.4186  0.5256 -0.2373
 7954TIP3    H245278   4.402   6.159   0.460 -1.3042  2.2706  1.1563
 7955TIP3   OH245279   5.008   5.762  11.284 -0.7054 -1.2138 -0.2443
 7955TIP3    H145280   5.061   5.746  11.205  1.0863 -0.3953  0.7582
 7955TIP3    H245281   5.069   5.802  11.346 -2.5770  0.0043  0.8670
 7956TIP3   OH245282   6.513   0.110   3.085  0.5131  0.0862 -0.1995
 7956TIP3    H145283   6.489   0.097   2.993 -2.4720 -0.2456  0.5806
 7956TIP3    H245284   6.557   0.196   3.086 -1.4148  1.1316 -1.6193
 7957TIP3   OH245285   2.654   1.457   4.411 -0.0332  0.1777 -0.2173
 7957TIP3    H145286   2.578   1.514   4.424 -0.2779 -0.4226  1.0070
 7957TIP3    H245287   2.729   1.515   4.422 -0.2978  0.6401 -0.7881
 7958TIP3   OH245288   2.208   4.509   1.626 -0.2235 -0.7118  0.0838
 7958TIP3    H145289   2.220   4.418   1.596  1.2766 -0.1723 -1.0080
 7958TIP3    H245290   2.190   4.558   1.547  0.6662  0.2168  0.4472
 7959TIP3   OH245291   0.071   3.412   0.308 -0.1080 -0.1303  0.3822
 7959TIP3    H145292   0.012   3.337   0.324 -0.4428  0.1034  0.2350
 7959TIP3    H245293   0.146   3.374   0.263 -0.0685 -0.4592  0.7154
 7960TIP3   OH245294   1.645   3.750  13.413  0.5203 -0.1406  0.4651
 7960TIP3    H145295   1.723   3.803  13.429 -0.2907  0.6118  2.0225
 7960TIP3    H245296   1.608   3.735  13.499 -0.9608 -0.6495 -0.2451
 7961TIP3   OH245297   1.126   6.259  15.767 -0.4295  0.1367  0.0105
 7961TIP3    H145298   1.210   6.214  15.763  0.0928  1.2504 -2.0525
 7961TIP3    H245299   1.099   6.268  15.676 -2.3166  0.6913  0.5953
 7962TIP3   OH245300   0.562   2.951   1.874 -0.0979  0.9890  0.2818
 7962TIP3    H145301   0.590   2.908   1.955  0.4478  0.9267  0.0587
 7962TIP3    H245302   0.560   2.882   1.809 -0.9409  0.9602  0.3344
 7963TIP3   OH245303   4.333   2.337  12.433 -0.0318 -0.1643  0.0289
 7963TIP3    H145304   4.313   2.392  12.357 -0.4432  2.5460  2.0092
 7963TIP3    H245305   4.424   2.359  12.455 -0.2789 -0.0354  0.9783
 7964TIP3   OH245306   5.116   0.795  14.921 -0.6059  0.7530  0.3670
 7964TIP3    H145307   5.135   0.858  14.990 -1.2124  2.1250 -0.6928
 7964TIP3    H245308   5.078   0.720  14.966 -2.6508  2.3268  1.3536
 7965TIP3   OH245309   0.314   6.783  14.699  0.0753 -0.3090  0.8583
 7965TIP3    H145310   0.275   6.696  14.699 -0.4747 -0.0664  0.5868
 7965TIP3    H245311   0.240   6.843  14.703  0.3972  0.1653  0.0203
 7966TIP3   OH245312   2.310   6.597  16.432 -0.2662 -0.2590 -0.1385
 7966TIP3    H145313   2.364   6.532  16.388 -1.1503  0.3770 -2.2487
 7966TIP3    H245314   2.372   6.664  16.462  0.1383  0.7213 -3.0004
 7967TIP3   OH245315   2.494   3.528   3.565 -0.5762 -0.2413 -0.0708
 7967TIP3    H145316   2.586   3.554   3.558 -0.2104 -1.9938 -2.6735
 7967TIP3    H245317   2.446   3.611   3.564  0.9189  0.6683  0.5885
 7968TIP3   OH245318   1.011   2.763   0.785  0.1143  0.1014  0.4569
 7968TIP3    H145319   0.948   2.801   0.724  1.4288  0.4364 -0.7319
 7968TIP3    H245320   1.068   2.836   0.808  1.9431 -0.8386 -0.9251
 7969TIP3   OH245321   2.600   2.066  11.381  0.1069  0.7643 -0.3408
 7969TIP3    H145322   2.630   2.157  11.384  2.3336  0.1947 -3.4005
 7969TIP3    H245323   2.679   2.015  11.364 -1.3405 -1.6155 -0.1201
 7970TIP3   OH245324   2.741   2.218  14.518  0.4668  0.7236  0.0990
 7970TIP3    H145325   2.675   2.288  14.525 -0.5974 -0.2053 -0.4177
 7970TIP3    H245326   2.823   2.264  14.504 -0.3272  1.8674 -0.9598
 7971TIP3   OH245327   0.361   0.589  11.820  0.0974  0.2325 -0.2865
 7971TIP3    H145328   0.318   0.535  11.754  0.4087 -0.0047 -0.2944
 7971TIP3    H245329   0.449   0.604  11.786 -0.1261  1.1159 -0.4927
 7972TIP3   OH245330   2.748   6.331   4.349  0.3519  0.2669  0.4371
 7972TIP3    H145331   2.786   6.386   4.281 -1.3608  0.6907 -0.2016
 7972TIP3    H245332   2.761   6.380   4.430  1.8825  0.0265  0.3460
 7973TIP3   OH245333   1.058   1.364  14.854 -0.4152  0.7952 -0.4161
 7973TIP3    H145334   1.076   1.286  14.802 -0.1225  0.7626 -0.2708
 7973TIP3    H245335   1.139   1.378  14.904  0.2655  2.3353 -1.9042
 7974TIP3   OH245336   1.533   0.229  12.290  0.3378 -0.0633  0.1353
 7974TIP3    H145337   1.491   0.208  12.374 -0.3645 -0.6760 -0.3703
 7974TIP3    H245338   1.603   0.165  12.282  1.5976  1.1539  1.1281
 7975TIP3   OH245339   4.307   4.062  15.822  0.2453  1.3740  0.3787
 7975TIP3    H145340   4.352   4.047  15.738 -0.4246 -1.2807  0.4683
 7975TIP3    H245341   4.376   4.052  15.888 -0.3652 -2.6363  0.5097
 7976TIP3   OH245342   1.019   1.444   0.574  1.1932  0.4373  0.1798
 7976TIP3    H145343   1.080   1.507   0.612  1.9575 -0.4869  0.5102
 7976TIP3    H245344   1.039   1.444   0.481 -0.1721  2.1480 -0.1459
 7977TIP3   OH245345   3.181   2.849   1.477  0.5203 -0.0920  0.4092
 7977TIP3    H145346   3.152   2.909   1.546  0.2432  2.2561 -1.6968
 7977TIP3    H245347   3.101   2.818   1.436  0.7136 -0.8256  0.5801
 7978TIP3   OH245348   3.842   5.720  13.680 -0.3472 -0.3662 -0.0158
 7978TIP3    H145349   3.777   5.677  13.736  1.5982 -0.7924  2.0265
 7978TIP3    H245350   3.834   5.813  13.701 -0.2099 -0.4353  0.3565
 7979TIP3   OH245351   2.718   3.673   5.659 -0.4071 -0.3547  0.8654
 7979TIP3    H145352   2.645   3.620   5.691 -1.2389 -0.1354 -0.5904
 7979TIP3    H245353   2.693   3.763   5.679 -1.0230 -0.2022 -0.5338
 7980TIP3   OH245354   0.122   4.388  12.577 -0.3315 -0.3943 -0.2011
 7980TIP3    H145355   0.212   4.398  12.544 -0.4344 -2.5900 -1.1866
 7980TIP3    H245356   0.133   4.361  12.668  0.0076 -1.5290 -0.5796
 7981TIP3   OH245357   5.801   5.834   1.128 -0.0676 -0.6022 -0.1510
 7981TIP3    H145358   5.795   5.929   1.143  0.6682 -0.4383 -0.8754
 7981TIP3    H245359   5.759   5.795   1.204 -1.2205  0.3340 -0.2918
 7982TIP3   OH245360   1.622   3.779  12.203 -0.4065 -0.0053  0.5734
 7982TIP3    H145361   1.589   3.811  12.286 -1.5596 -1.2575  0.6249
 7982TIP3    H245362   1.546   3.777  12.145  0.5589  1.7467 -0.8147
 7983TIP3   OH245363   4.580   0.173   0.257  0.0111 -0.0533 -0.2555
 7983TIP3    H145364   4.527   0.096   0.240 -1.7506  0.9647  0.5495
 7983TIP3    H245365   4.593   0.173   0.352 -1.9286  1.8637  0.0456
 7984TIP3   OH245366   2.501   6.387   0.878  0.3461  0.8643  0.1367
 7984TIP3    H145367   2.484   6.351   0.965  1.0514 -0.0451 -0.0968
 7984TIP3    H245368   2.452   6.469   0.876  1.1579  1.4181  1.7861
 7985TIP3   OH245369   5.745   4.895   4.071  0.0658 -0.1162  0.2107
 7985TIP3    H145370   5.680   4.855   4.130 -0.8702  0.5895 -0.3267
 7985TIP3    H245371   5.829   4.879   4.114 -0.4312 -1.2932  0.7786
 7986TIP3   OH245372   5.651   6.772  10.821 -0.3977  0.1629  0.1040
 7986TIP3    H145373   5.578   6.796  10.879  1.4272  2.9028  1.3752
 7986TIP3    H245374   5.685   6.691  10.858 -0.7805  0.5962  1.4554
 7987TIP3   OH245375   2.164   5.468  15.883  0.5319  0.0151  0.5538
 7987TIP3    H145376   2.134   5.499  15.797  1.9946 -1.5741 -0.5679
 7987TIP3    H245377   2.140   5.376  15.885  0.5091  0.0455  1.8674
 7988TIP3   OH245378   1.857   0.208  13.056 -0.4974  0.1941 -0.0528
 7988TIP3    H145379   1.852   0.220  12.961 -1.1233  0.7033  0.0389
 7988TIP3    H245380   1.903   0.286  13.087 -1.4558  0.6603  0.1933
 7989TIP3   OH245381   6.699   5.018   1.567 -0.1235  0.1628  0.4543
 7989TIP3    H145382   6.782   4.982   1.598 -0.0199  0.9349  1.1045
 7989TIP3    H245383   6.680   5.089   1.629  0.0824  1.7415 -1.2391
 7990TIP3   OH245384   1.869   0.610  14.729  0.8727 -0.1801 -0.3584
 7990TIP3    H145385   1.859   0.565  14.813  0.6882  1.8070  0.6887
 7990TIP3    H245386   1.817   0.556  14.668 -1.9360  0.2893  1.5021
 7991TIP3   OH245387   3.012   0.051   2.467 -0.0132  0.3066  0.5221
 7991TIP3    H145388   2.963   0.085   2.542 -1.9868  0.9717 -1.0170
 7991TIP3    H245389   3.076   0.120   2.447  0.8858 -0.1063  1.8905
 7992TIP3   OH245390   2.616   3.918   5.694 -0.0948  0.0339  0.4884
 7992TIP3    H145391   2.609   3.973   5.615  1.5243 -0.6096 -0.1314
 7992TIP3    H245392   2.653   3.976   5.760  1.2717 -0.1929 -0.0633
 7993TIP3   OH245393   1.506   4.821   2.522 -0.3329 -0.4197  0.2214
 7993TIP3    H145394   1.589   4.850   2.485 -0.2227  1.0463  1.5683
 7993TIP3    H245395   1.442   4.886   2.493 -0.8084 -0.9306  0.1037
 7994TIP3   OH245396   3.070   2.828  16.081  0.1876  0.4747  0.2593
 7994TIP3    H145397   3.121   2.784  16.149 -2.1372 -1.4403  0.8213
 7994TIP3    H245398   3.091   2.781  16.001  1.0991  1.2111  0.0549
 7995TIP3   OH245399   3.409   3.788  16.658 -0.3195 -0.2940 -0.2795
 7995TIP3    H145400   3.419   3.875  16.620 -0.0177  0.0607  0.5862
 7995TIP3    H245401   3.406   3.804  16.753 -2.5184 -1.0112 -0.2040
 7996TIP3   OH245402   4.532   6.721   6.552  0.0094 -0.0584 -0.4449
 7996TIP3    H145403   4.582   6.644   6.577 -0.1078  0.0220  0.0290
 7996TIP3    H245404   4.586   6.795   6.580 -1.2161  0.0346  1.7497
 7997TIP3   OH245405   3.935   2.367  16.336  0.3001  0.2689 -0.0397
 7997TIP3    H145406   4.028   2.346  16.341  0.1592 -0.6465 -0.9924
 7997TIP3    H245407   3.891   2.285  16.360 -0.2615 -0.0352 -2.0008
 7998TIP3   OH245408   5.488   4.451  12.839 -0.1119 -0.5588  0.0897
 7998TIP3    H145409   5.520   4.501  12.763 -0.4234  0.8182  0.8479
 7998TIP3    H245410   5.538   4.485  12.913 -2.3253  0.6455  1.0721
 7999TIP3   OH245411   3.017   2.719   3.182  0.5227  0.2922  0.3133
 7999TIP3    H145412   3.003   2.784   3.251  0.2126  0.3720  0.1790
 7999TIP3    H245413   2.958   2.747   3.111 -0.3417 -0.6846  0.6348
 8000TIP3   OH245414   5.364   0.518   1.277 -0.2753 -0.5288 -0.1480
 8000TIP3    H145415   5.276   0.517   1.239 -0.3737 -0.8620  0.0904
 8000TIP3    H245416   5.356   0.574   1.355  0.2808  1.4785 -1.4701
 8001TIP3   OH245417   0.652   0.531  14.289 -0.0938  0.2501 -0.1552
 8001TIP3    H145418   0.596   0.478  14.232 -1.0475  2.0662 -0.9477
 8001TIP3    H245419   0.606   0.532  14.373  1.2058 -2.2496  0.6376
 8002TIP3   OH245420   4.556   5.452  16.296 -0.4833 -0.2815 -0.0698
 8002TIP3    H145421   4.579   5.544  16.281  2.1215 -0.9808 -0.5725
 8002TIP3    H245422   4.574   5.437  16.389  1.3911 -0.8844 -0.5103
 8003TIP3   OH245423   4.218   0.385  12.674 -0.0456 -0.5532  0.3289
 8003TIP3    H145424   4.215   0.476  12.645 -1.3990 -0.9105 -0.7156
 8003TIP3    H245425   4.264   0.388  12.758 -2.3000  1.4587  1.5794
 8004TIP3   OH245426   1.512   5.135   0.272  0.4303  0.2825 -0.4640
 8004TIP3    H145427   1.556   5.218   0.259  1.1037 -0.0280 -0.2072
 8004TIP3    H245428   1.486   5.106   0.184 -0.2882  1.0159 -0.4989
 8005TIP3   OH245429   3.488   5.030  11.180  0.2694 -0.0115  0.0796
 8005TIP3    H145430   3.480   5.072  11.266  0.2899 -0.0130  0.0811
 8005TIP3    H245431   3.409   5.057  11.133  0.8987  1.0538 -0.3673
 8006TIP3   OH245432   5.935   6.104   0.011  0.2569 -0.3387 -0.1388
 8006TIP3    H145433   6.025   6.085   0.036  0.5395  0.6866 -0.3530
 8006TIP3    H245434   5.907   6.172   0.073 -0.5884 -1.1236  0.3546
 8007TIP3   OH245435   3.458   0.665  14.203 -0.5848 -0.1170 -0.8601
 8007TIP3    H145436   3.476   0.700  14.117 -1.8540 -0.6490 -1.3537
 8007TIP3    H245437   3.527   0.700  14.259  0.1879  0.2931 -2.0707
 8008TIP3   OH245438   5.398   2.711  10.677 -0.1993 -0.4755  0.4129
 8008TIP3    H145439   5.442   2.796  10.669 -1.2837  0.1362  0.9186
 8008TIP3    H245440   5.377   2.686  10.587  0.1338 -0.2174  0.2646
 8009TIP3   OH245441   1.506   4.978   3.347  0.3148 -0.3851 -0.5075
 8009TIP3    H145442   1.562   5.046   3.310  2.3476 -1.5636  0.3163
 8009TIP3    H245443   1.493   5.005   3.438  2.2112 -1.7047  0.1974
 8010TIP3   OH245444   0.933   2.102   2.154  0.3241 -0.0540 -0.4083
 8010TIP3    H145445   0.896   2.189   2.138  0.4225 -0.2436 -1.7595
 8010TIP3    H245446   1.026   2.111   2.133  0.2369 -0.6024 -1.0708
 8011TIP3   OH245447   6.301   1.183   5.828 -0.3010 -0.4329 -0.1899
 8011TIP3    H145448   6.335   1.197   5.916  0.8386 -0.8726 -0.5468
 8011TIP3    H245449   6.251   1.262   5.808  0.0563 -0.0170  0.5590
 8012TIP3   OH245450   1.695   1.209   5.278 -0.4499  0.2017 -0.3495
 8012TIP3    H145451   1.650   1.201   5.194 -1.1477 -1.1963  0.1390
 8012TIP3    H245452   1.631   1.251   5.335 -0.9620 -1.2956  0.1990
 8013TIP3   OH245453   0.227   4.251   4.586  0.1544  0.8381 -0.1003
 8013TIP3    H145454   0.294   4.319   4.582  0.3318  0.6707  0.0377
 8013TIP3    H245455   0.189   4.250   4.498  2.7256 -1.4757 -1.2678
 8014TIP3   OH245456   0.440   3.927   1.206 -0.1937 -0.2660 -0.4103
 8014TIP3    H145457   0.529   3.913   1.174 -0.2413 -1.2481 -0.1409
 8014TIP3    H245458   0.394   3.969   1.134  0.3246 -0.3337 -0.7795
 8015TIP3   OH245459   4.906   1.390   0.381  0.0937  0.5000  0.0749
 8015TIP3    H145460   4.855   1.311   0.398  0.5709  0.1840  0.0424
 8015TIP3    H245461   4.973   1.391   0.449 -0.7437  1.6066  0.9151
 8016TIP3   OH245462   0.828   2.238   0.296  0.1558  0.1051  0.2958
 8016TIP3    H145463   0.918   2.261   0.274  0.3674 -1.7392 -0.8666
 8016TIP3    H245464   0.834   2.191   0.379  0.3959 -0.8890 -0.2751
 8017TIP3   OH245465   1.133   3.411  10.795  0.1052 -0.3776 -0.6502
 8017TIP3    H145466   1.203   3.473  10.774  1.2517 -1.9897 -1.6918
 8017TIP3    H245467   1.059   3.440  10.742  0.5861  0.1942 -1.0185
 8018TIP3   OH245468   1.192   1.971  14.791 -0.6386 -0.3002 -0.4964
 8018TIP3    H145469   1.262   1.919  14.830 -0.5394 -0.9645 -1.5261
 8018TIP3    H245470   1.112   1.922  14.812 -0.7868  0.3811  0.5542
 8019TIP3   OH245471   6.539   5.213  16.160 -0.5872 -0.2506  0.0368
 8019TIP3    H145472   6.504   5.142  16.215 -1.3824 -0.1615 -0.3491
 8019TIP3    H245473   6.461   5.255  16.123 -0.0295 -1.2792 -2.3678
 8020TIP3   OH245474   5.405   5.655  11.193  0.5102 -0.3055  0.0521
 8020TIP3    H145475   5.403   5.743  11.229 -1.0754  0.4175 -1.7167
 8020TIP3    H245476   5.384   5.598  11.267 -0.6631  0.9845  0.7342
 8021TIP3   OH245477   0.236   3.857  14.967  0.4949 -0.7016  0.8018
 8021TIP3    H145478   0.151   3.859  14.922 -1.0326 -1.0598  3.5431
 8021TIP3    H245479   0.231   3.928  15.030  3.3047  0.9308 -0.7371
 8022TIP3   OH245480   1.020   2.918  11.909 -0.1863  0.3970 -0.2639
 8022TIP3    H145481   1.094   2.923  11.970 -1.1189 -3.2028  1.3127
 8022TIP3    H245482   0.944   2.943  11.962 -0.3667  2.0734 -1.3086
 8023TIP3   OH245483   4.628   6.741  16.696 -0.2102 -0.3787  1.0588
 8023TIP3    H145484   4.695   6.707  16.636 -2.2210 -1.1956 -0.7783
 8023TIP3    H245485   4.673   6.746  16.781  2.7151  0.8700 -0.4739
 8024TIP3   OH245486   2.455   0.201  15.245  0.1968 -0.3128 -0.1600
 8024TIP3    H145487   2.522   0.263  15.274  1.4005 -0.7423 -1.9033
 8024TIP3    H245488   2.374   0.230  15.287  1.1138  1.3598  0.4700
 8025TIP3   OH245489   0.396   5.538  16.166 -0.5346  0.1281  0.2937
 8025TIP3    H145490   0.391   5.444  16.179 -0.2318  0.1597  0.6265
 8025TIP3    H245491   0.410   5.574  16.254 -2.6136  0.6208  0.4443
 8026TIP3   OH245492   5.696   3.728   3.480 -0.5516 -0.2804  0.1950
 8026TIP3    H145493   5.668   3.636   3.487 -2.3268  0.1994 -0.2727
 8026TIP3    H245494   5.789   3.723   3.457 -0.1713 -1.9408  1.9931
 8027TIP3   OH245495   2.947   3.528  12.757  0.2410  0.0579 -0.3464
 8027TIP3    H145496   2.910   3.564  12.676  0.7203 -0.9347 -1.0121
 8027TIP3    H245497   3.036   3.561  12.759  0.7245 -1.1977 -1.0283
 8028TIP3   OH245498   3.057   3.119  13.850 -0.0196 -0.2526  0.9922
 8028TIP3    H145499   3.137   3.115  13.901 -0.3550 -0.9160  1.4814
 8028TIP3    H245500   3.086   3.112  13.759  0.7388  2.9844  0.9460
 8029TIP3   OH245501   4.049   6.683   1.830  0.2439 -0.0495  0.3631
 8029TIP3    H145502   3.987   6.754   1.849  0.6420  0.5709 -0.6413
 8029TIP3    H245503   4.132   6.728   1.811  0.1654 -0.7080 -1.6065
 8030TIP3   OH245504   5.391   4.424   0.386  0.2721  0.1116 -0.4942
 8030TIP3    H145505   5.445   4.423   0.465  0.8144 -2.1786 -0.8496
 8030TIP3    H245506   5.326   4.354   0.401 -1.1000  1.2421 -1.0769
 8031TIP3   OH245507   3.955   6.293  16.484  0.5591 -0.9438 -0.0745
 8031TIP3    H145508   4.050   6.289  16.473  0.4084  0.3393 -1.9009
 8031TIP3    H245509   3.919   6.268  16.399 -0.7225  0.6691 -0.0226
 8032TIP3   OH245510   0.887   1.257   2.242  0.8444 -0.2117  0.7658
 8032TIP3    H145511   0.933   1.217   2.168 -0.1978 -2.4499  1.2742
 8032TIP3    H245512   0.870   1.347   2.214  0.8290 -0.8920 -1.5517
 8033TIP3   OH245513   4.873   4.887   3.920  0.1634  0.0298 -0.0993
 8033TIP3    H145514   4.849   4.980   3.927  0.9727  0.3592 -1.4698
 8033TIP3    H245515   4.886   4.873   3.826  0.3391 -1.4001  0.1322
 8034TIP3   OH245516   4.371   6.058  12.384  0.6667  0.2688 -0.1979
 8034TIP3    H145517   4.362   5.967  12.356 -0.1395  0.8613 -1.9527
 8034TIP3    H245518   4.463   6.067  12.409  0.6271 -1.1572  0.5383
 8035TIP3   OH245519   0.585   5.713  11.808  0.4540  0.5341  0.1332
 8035TIP3    H145520   0.675   5.746  11.803  0.9515 -0.8053  0.1120
 8035TIP3    H245521   0.543   5.748  11.729  1.3082  0.1186 -0.5133
 8036TIP3   OH245522   6.004   2.748  10.983 -0.1759 -0.0541 -0.2179
 8036TIP3    H145523   6.068   2.789  10.926  0.3108  1.1563  1.1647
 8036TIP3    H245524   5.920   2.760  10.938  0.5721 -2.1657 -2.3207
 8037TIP3   OH245525   0.268   2.412  14.090 -0.3087  0.0645  0.2058
 8037TIP3    H145526   0.180   2.441  14.113  0.2939  3.0478 -1.0745
 8037TIP3    H245527   0.312   2.490  14.056  1.9009 -1.9996 -1.9378
 8038TIP3   OH245528   5.940   1.488  10.292  0.0724 -0.3350 -0.0742
 8038TIP3    H145529   5.995   1.551  10.245 -0.1074 -0.5771 -0.6167
 8038TIP3    H245530   5.850   1.521  10.280 -0.0100 -0.6226 -0.2493
 8039TIP3   OH245531   0.330   3.786  12.174 -0.2843 -0.1475  0.7800
 8039TIP3    H145532   0.240   3.807  12.148 -0.5748 -0.1273  1.7648
 8039TIP3    H245533   0.359   3.722  12.109 -1.6430 -1.4834  1.4322
 8040TIP3   OH245534   3.745   0.482  16.304 -0.1096 -0.1171  0.1239
 8040TIP3    H145535   3.811   0.438  16.250 -0.4176  0.3053 -0.5857
 8040TIP3    H245536   3.674   0.419  16.311 -0.7205  0.4072 -1.2185
 8041TIP3   OH245537   4.412   3.723  15.930 -0.4134 -0.3321 -0.6480
 8041TIP3    H145538   4.447   3.808  15.958  0.8304 -0.8088 -0.6964
 8041TIP3    H245539   4.427   3.721  15.835 -1.1861 -0.2699 -0.7742
 8042TIP3   OH245540   0.046   4.268  11.545 -0.0039  0.2161  0.4843
 8042TIP3    H145541  -0.037   4.280  11.591  0.9356  0.5930  2.1128
 8042TIP3    H245542   0.042   4.178  11.511 -1.6956  0.7395 -0.7639
 8043TIP3   OH245543   1.480   5.385   4.013 -0.1133 -0.6423  0.1793
 8043TIP3    H145544   1.548   5.328   3.980  1.2720  0.9683  0.1866
 8043TIP3    H245545   1.493   5.385   4.108 -0.5933 -0.9167  0.2460
 8044TIP3   OH245546   6.586   0.359   2.994 -0.0687 -0.2906  0.1723
 8044TIP3    H145547   6.626   0.310   2.923 -0.8338 -0.7574  0.0597
 8044TIP3    H245548   6.543   0.433   2.951  0.6107  0.1695  0.2855
 8045TIP3   OH245549   5.870   0.457   3.433  0.3990  0.2678 -0.3172
 8045TIP3    H145550   5.886   0.371   3.471  0.4687  0.0310 -0.8852
 8045TIP3    H245551   5.940   0.512   3.467  0.3651  0.0968  0.0307
 8046TIP3   OH245552   5.378   1.105   4.206  0.2684  0.4465  0.2414
 8046TIP3    H145553   5.293   1.146   4.192 -0.0023 -0.2421 -0.1044
 8046TIP3    H245554   5.399   1.126   4.297  0.0138  1.1368  0.1463
 8047TIP3   OH245555   2.408   4.377  13.364  0.4751  0.1821 -0.3984
 8047TIP3    H145556   2.336   4.437  13.345  0.2553  0.0012 -0.1406
 8047TIP3    H245557   2.459   4.374  13.282  0.0273  0.0891 -0.6763
 8048TIP3   OH245558   1.838   4.878  11.302  0.6250  0.1115 -0.1505
 8048TIP3    H145559   1.921   4.923  11.289  1.4182 -0.8499  1.4802
 8048TIP3    H245560   1.862   4.794  11.341 -0.8276 -1.7330 -3.0335
 8049TIP3   OH245561   5.399   6.515  13.812 -0.2616  0.5105 -0.2561
 8049TIP3    H145562   5.442   6.596  13.782 -2.1655  1.2896 -1.0091
 8049TIP3    H245563   5.414   6.513  13.906  2.4993  0.0727 -0.6592
 8050TIP3   OH245564   2.223   4.890  12.585 -0.6669  0.4442 -0.2983
 8050TIP3    H145565   2.261   4.888  12.673  0.9305 -1.2580 -0.9800
 8050TIP3    H245566   2.131   4.867  12.598 -0.4283  0.1127  0.9041
 8051TIP3   OH245567   2.771   4.008   0.448 -0.0338 -0.3843 -0.4620
 8051TIP3    H145568   2.734   4.083   0.402 -0.0720  1.0975  1.9203
 8051TIP3    H245569   2.695   3.959   0.480 -0.0051 -1.3742 -1.8374
 8052TIP3   OH245570   0.820   2.104  13.192 -0.5146 -0.0781  0.2148
 8052TIP3    H145571   0.730   2.072  13.185 -0.0001 -1.4229 -0.3417
 8052TIP3    H245572   0.874   2.031  13.163  0.7865  0.5579  0.9952
 8053TIP3   OH245573   1.948   0.214  16.919  0.2938 -0.3738 -0.4111
 8053TIP3    H145574   1.950   0.308  16.933 -0.3726 -0.1472 -1.7452
 8053TIP3    H245575   1.966   0.176  17.005  1.9130  0.9726 -0.1176
 8054TIP3   OH245576   5.166   5.505   2.350  0.5487 -0.0304 -0.3451
 8054TIP3    H145577   5.202   5.527   2.264 -0.1536  0.6759 -0.4644
 8054TIP3    H245578   5.240   5.512   2.410  0.3785  2.5868 -0.3999
 8055TIP3   OH245579   2.083   5.013   0.029 -0.4268 -0.6222  0.3379
 8055TIP3    H145580   2.090   4.938  -0.029 -1.4862 -1.0227  0.7058
 8055TIP3    H245581   2.173   5.030   0.058 -0.2246 -2.0268  0.5920
 8056TIP3   OH245582   6.519   0.069  15.875 -0.2056 -0.5444 -0.2260
 8056TIP3    H145583   6.542   0.041  15.787  0.8229  0.4589 -0.2860
 8056TIP3    H245584   6.485   0.158  15.864 -1.2781 -0.8813  0.2429
 8057TIP3   OH245585   4.404   0.934   4.065 -0.0409 -0.0188  0.1794
 8057TIP3    H145586   4.384   0.935   4.159  0.3318 -0.2402  0.2619
 8057TIP3    H245587   4.484   0.987   4.058  0.6964 -1.1257  0.1635
 8058TIP3   OH245588   0.121   2.782   1.860 -0.2283 -0.0556  0.3970
 8058TIP3    H145589   0.183   2.780   1.787 -0.7606 -0.8884 -0.0467
 8058TIP3    H245590   0.176   2.786   1.938  0.5656 -4.0017  0.1715
 8059TIP3   OH245591   3.592   4.690   2.170  0.3520  0.2122 -0.8858
 8059TIP3    H145592   3.650   4.675   2.095  1.2558  3.3666 -0.9026
 8059TIP3    H245593   3.649   4.726   2.238 -0.6002 -1.8978  1.0893
 8060TIP3   OH245594   2.312   6.409  15.096 -0.2257  0.1043 -0.4335
 8060TIP3    H145595   2.259   6.478  15.054 -0.2409 -0.7872 -1.9216
 8060TIP3    H245596   2.398   6.417  15.055 -0.4655 -1.3011 -1.2155
 8061TIP3   OH245597   0.961   3.630   0.841 -0.2939  0.2058  0.0350
 8061TIP3    H145598   1.009   3.685   0.902 -1.0269  1.8473 -0.8412
 8061TIP3    H245599   0.958   3.544   0.883  1.9918  0.4938  0.8217
 8062TIP3   OH245600   1.509   4.369   0.985 -0.4316 -0.1199 -0.8640
 8062TIP3    H145601   1.434   4.315   1.009 -0.6052 -0.7831 -2.7710
 8062TIP3    H245602   1.473   4.457   0.975 -0.8873 -0.3566 -1.3626
 8063TIP3   OH245603   3.358   3.640  17.108 -0.1374  0.1569  0.4289
 8063TIP3    H145604   3.371   3.554  17.147  1.5761 -0.6298 -1.7927
 8063TIP3    H245605   3.281   3.629  17.052 -1.2653  0.6904  1.8544
 8064TIP3   OH245606   5.479   2.175   4.554  0.2210  0.0224  0.0695
 8064TIP3    H145607   5.571   2.185   4.576 -0.0533  0.1144  1.1808
 8064TIP3    H245608   5.432   2.222   4.623 -0.7610 -2.1207  0.9150
 8065TIP3   OH245609   3.876   0.636   1.948 -0.1048  0.1023  0.6125
 8065TIP3    H145610   3.786   0.622   1.918  0.0399  0.4535  0.0095
 8065TIP3    H245611   3.896   0.726   1.924  0.1061  0.3148  1.5456
 8066TIP3   OH245612   2.760   0.203   5.163 -0.7219 -0.1715 -0.3229
 8066TIP3    H145613   2.758   0.291   5.199  1.4746 -1.0167  1.9696
 8066TIP3    H245614   2.727   0.146   5.233 -0.6257 -1.3474 -1.2017
 8067TIP3   OH245615   0.622   5.810  14.643 -0.2398 -0.0451 -0.2035
 8067TIP3    H145616   0.606   5.716  14.651  1.4164 -0.2886  0.3739
 8067TIP3    H245617   0.650   5.822  14.552 -2.3673  0.2044 -0.8590
 8068TIP3   OH245618   6.492   3.979   5.605  0.1205 -0.0117 -0.6104
 8068TIP3    H145619   6.417   4.028   5.639  0.5448 -0.7829  1.5261
 8068TIP3    H245620   6.454   3.911   5.550 -0.6185  0.9262 -1.2795
 8069TIP3   OH245621   6.650   3.149   4.813  0.3128  0.1581 -0.1337
 8069TIP3    H145622   6.612   3.094   4.881 -1.3764 -0.0285 -1.1854
 8069TIP3    H245623   6.597   3.229   4.815 -0.2199 -0.1242 -1.6502
 8070TIP3   OH245624   1.598   2.194  16.120 -0.9516 -0.1816  0.6254
 8070TIP3    H145625   1.693   2.178  16.119 -0.8647  0.3495  0.3039
 8070TIP3    H245626   1.578   2.222  16.031 -1.3314  0.1714  0.8244
 8071TIP3   OH245627   4.378   6.430   5.201 -0.2381 -0.0378 -0.6012
 8071TIP3    H145628   4.380   6.493   5.129  2.1381 -0.7582 -1.1995
 8071TIP3    H245629   4.458   6.378   5.191 -0.5059 -1.0114  1.7989
 8072TIP3   OH245630   2.263   4.006  14.918  0.1962 -0.1255 -0.1389
 8072TIP3    H145631   2.257   3.913  14.895 -1.2591 -0.0151 -0.3070
 8072TIP3    H245632   2.323   4.043  14.854  2.1587 -1.2702  1.0053
 8073TIP3   OH245633   2.631   0.104  14.509 -0.1803 -0.4918 -0.1465
 8073TIP3    H145634   2.703   0.050  14.542  1.0618 -0.5943 -2.8906
 8073TIP3    H245635   2.672   0.188  14.487 -1.0763 -0.2234 -0.8250
 8074TIP3   OH245636   3.069   1.639  11.356  0.2826  0.3480 -0.0760
 8074TIP3    H145637   2.985   1.629  11.401  1.0075 -0.3750  1.1477
 8074TIP3    H245638   3.080   1.557  11.307 -0.2673  0.9292 -1.2088
 8075TIP3   OH245639   1.477   4.384   3.771 -0.1741 -0.4451 -0.5137
 8075TIP3    H145640   1.554   4.327   3.776 -0.2604 -0.6466 -1.3880
 8075TIP3    H245641   1.512   4.472   3.758 -0.0909 -0.6168 -1.5495
 8076TIP3   OH245642   1.201   4.502   1.982 -0.4765 -0.0431  0.1251
 8076TIP3    H145643   1.150   4.433   1.941  1.1028 -0.2032 -1.6501
 8076TIP3    H245644   1.179   4.581   1.933 -0.9545  0.3806  1.0140
 8077TIP3   OH245645   5.892   5.130   1.152 -0.0840 -0.8284 -0.4788
 8077TIP3    H145646   5.932   5.217   1.159 -0.4255 -0.9000  3.3253
 8077TIP3    H245647   5.873   5.120   1.058  1.2206  2.5984 -1.1885
 8078TIP3   OH245648   6.762   4.873  14.479 -0.5574 -0.4250  0.1580
 8078TIP3    H145649   6.766   4.949  14.537 -0.0580  0.6138 -1.2453
 8078TIP3    H245650   6.673   4.840  14.490 -1.5055  1.6846 -0.8988
 8079TIP3   OH245651   2.689   5.096  11.985  0.2061  0.1794  0.1287
 8079TIP3    H145652   2.618   5.071  12.045  0.2403  1.4866  0.7235
 8079TIP3    H245653   2.645   5.120  11.904  0.1637 -1.6624 -0.4154
 8080TIP3   OH245654   3.134   0.127   2.844 -0.1043 -0.0678  0.6028
 8080TIP3    H145655   3.195   0.067   2.886 -0.6366 -0.5907  0.6511
 8080TIP3    H245656   3.078   0.159   2.915 -0.7147 -0.6065  0.3801
 8081TIP3   OH245657   5.328   5.965   4.774  0.0457 -0.2110  0.0553
 8081TIP3    H145658   5.414   6.007   4.772 -0.1012  0.0492 -0.6612
 8081TIP3    H245659   5.340   5.889   4.831  0.7124 -0.0949  0.0669
 8082TIP3   OH245660   3.767   4.430   4.732  0.1754  0.4102  0.3277
 8082TIP3    H145661   3.736   4.345   4.764 -1.4531  0.9482  0.2562
 8082TIP3    H245662   3.801   4.474   4.810 -0.5981  0.3723  0.6947
 8083TIP3   OH245663   1.410   3.103  16.585 -0.0634 -0.4813 -0.4575
 8083TIP3    H145664   1.467   3.037  16.546 -0.8690 -0.4481 -1.7332
 8083TIP3    H245665   1.412   3.085  16.679  1.2653 -1.0874 -0.5903
 8084TIP3   OH245666   2.778   1.339  14.753 -0.5904  0.1050  0.0892
 8084TIP3    H145667   2.810   1.255  14.785 -1.1029  0.0536  0.4865
 8084TIP3    H245668   2.777   1.395  14.831 -1.3528  0.1322  0.0717
 8085TIP3   OH245669   6.041   6.380   0.754  0.1918  0.2375  0.1783
 8085TIP3    H145670   6.007   6.307   0.806 -1.3634 -0.5047 -1.8534
 8085TIP3    H245671   6.036   6.350   0.663  1.0048  2.2849 -0.5771
 8086TIP3   OH245672   6.664   5.352   2.280 -0.1737  0.4328 -0.2600
 8086TIP3    H145673   6.723   5.290   2.236 -3.7128 -1.3934 -2.7082
 8086TIP3    H245674   6.624   5.300   2.351 -0.5669  0.9424 -0.1066
 8087TIP3   OH245675   0.597   3.637  14.895  0.1856  0.3815  0.1851
 8087TIP3    H145676   0.623   3.708  14.954 -1.5613  0.0527  1.3644
 8087TIP3    H245677   0.641   3.658  14.812  1.4385  1.6617  1.1513
 8088TIP3   OH245678   1.754   2.147  14.172 -0.5631 -0.5606  0.4738
 8088TIP3    H145679   1.753   2.073  14.112 -0.2313 -0.6592  0.5891
 8088TIP3    H245680   1.786   2.220  14.120 -3.0476  0.0549 -0.2677
 8089TIP3   OH245681   0.636   4.419  12.826 -0.0004 -0.4104 -0.0968
 8089TIP3    H145682   0.705   4.482  12.849  1.1736 -0.9663 -2.0052
 8089TIP3    H245683   0.580   4.416  12.904  2.4319 -0.3736  1.7239
 8090TIP3   OH245684   2.848   1.410   0.488  0.7659 -0.3177  0.4181
 8090TIP3    H145685   2.832   1.379   0.577  0.7991  1.4915  1.0793
 8090TIP3    H245686   2.942   1.397   0.475  0.9966  0.5529  1.1253
 8091TIP3   OH245687   2.755   0.307   1.168 -0.3261 -0.1337 -0.1454
 8091TIP3    H145688   2.792   0.348   1.246  2.2885  0.3327 -1.5732
 8091TIP3    H245689   2.681   0.362   1.145  0.1276  0.9020  0.8306
 8092TIP3   OH245690   1.722   0.924  17.066  0.3471 -0.0662 -0.0262
 8092TIP3    H145691   1.687   0.882  16.988  0.2483 -0.2613  0.1211
 8092TIP3    H245692   1.791   0.982  17.033  1.6355 -1.5895 -0.0876
 8093TIP3   OH245693   1.355   1.492  15.551 -0.8796 -0.0867  0.0753
 8093TIP3    H145694   1.298   1.444  15.490 -1.2138 -0.3234  0.5725
 8093TIP3    H245695   1.349   1.583  15.521  1.0052 -0.5661 -1.8440
 8094TIP3   OH245696   2.404   3.100   5.780 -0.3694  0.1480 -0.3741
 8094TIP3    H145697   2.485   3.066   5.744 -1.0133 -1.7080 -0.0896
 8094TIP3    H245698   2.358   3.138   5.704 -0.3231 -0.9583 -0.9602
 8095TIP3   OH245699   0.228   0.069  14.233  0.7058 -0.4126  0.2613
 8095TIP3    H145700   0.205   0.161  14.243  0.2574 -0.5124  0.1390
 8095TIP3    H245701   0.322   0.070  14.216  0.5090  0.0988 -0.8682
 8096TIP3   OH245702   3.234   6.499  12.820  0.4984  0.2782  0.3185
 8096TIP3    H145703   3.145   6.465  12.828 -0.5846  2.2797 -2.4771
 8096TIP3    H245704   3.280   6.434  12.768  0.3554 -0.1755  0.7493
 8097TIP3   OH245705   2.882   0.019   4.716 -0.8739  0.2481  0.5474
 8097TIP3    H145706   2.840   0.074   4.650 -1.8968 -0.7406  0.3757
 8097TIP3    H245707   2.816  -0.045   4.741 -0.1987  0.0532  1.8865
 8098TIP3   OH245708   4.913   6.423  16.348 -0.4752  0.4226  0.3243
 8098TIP3    H145709   4.976   6.362  16.385 -0.0785  0.6503  0.0334
 8098TIP3    H245710   4.906   6.398  16.256 -0.1051  0.9719  0.1364
 8099TIP3   OH245711   0.672   2.521  15.294 -0.4412  0.5167 -0.6096
 8099TIP3    H145712   0.691   2.430  15.318 -0.8107  0.2120 -1.4779
 8099TIP3    H245713   0.747   2.548  15.241  0.0999  1.0116  0.3877
 8100TIP3   OH245714   6.309   0.456  16.549 -0.2350 -0.1583 -0.5037
 8100TIP3    H145715   6.254   0.380  16.567  2.3879 -2.0006  0.0560
 8100TIP3    H245716   6.309   0.505  16.632 -0.0817 -0.8066 -0.1133
 8101TIP3   OH245717   6.631   3.138   2.412 -0.3167  0.1773 -0.1533
 8101TIP3    H145718   6.630   3.233   2.398  1.6112  0.4725  1.4104
 8101TIP3    H245719   6.718   3.111   2.380  0.4339 -0.5330  2.4183
 8102TIP3   OH245720   5.091   5.892   1.927  0.0548  0.4802 -0.3373
 8102TIP3    H145721   5.187   5.902   1.929  0.0828  0.2225 -0.3826
 8102TIP3    H245722   5.075   5.811   1.975 -0.1009  0.2443 -0.7874
 8103TIP3   OH245723   3.816   6.564  15.304 -0.4789 -0.6382 -0.6709
 8103TIP3    H145724   3.844   6.536  15.391 -1.9684 -0.8247 -0.2363
 8103TIP3    H245725   3.810   6.482  15.254 -3.0654 -0.9186  0.0755
 8104TIP3   OH245726   1.412   2.221   0.306 -0.6579  0.2616  0.6116
 8104TIP3    H145727   1.404   2.134   0.268 -1.1900  0.4531  0.2769
 8104TIP3    H245728   1.461   2.208   0.387 -2.7405 -0.6763  1.7507
 8105TIP3   OH245729   5.512   1.214   2.483  0.2268 -0.2395  0.4382
 8105TIP3    H145730   5.535   1.301   2.450 -1.2261 -0.3361 -0.9264
 8105TIP3    H245731   5.471   1.231   2.568  1.1773  0.2965  0.7904
 8106TIP3   OH245732   4.099   6.648   3.650 -0.1835 -0.0087  0.0424
 8106TIP3    H145733   4.071   6.736   3.675  2.0186  0.4374  1.0889
 8106TIP3    H245734   4.148   6.662   3.568  1.9343  0.0679  1.2836
 8107TIP3   OH245735   0.790   5.055   1.348  0.5838  0.2794  0.2397
 8107TIP3    H145736   0.874   5.010   1.359  0.4645  0.3842  1.7522
 8107TIP3    H245737   0.777   5.101   1.431 -2.2943 -1.9535  1.1315
 8108TIP3   OH245738   3.461   6.523   1.416  0.4229  0.0301 -0.4405
 8108TIP3    H145739   3.493   6.436   1.394  0.6202 -0.1090  0.3888
 8108TIP3    H245740   3.495   6.579   1.346  0.6491 -0.4824 -0.7450
 8109TIP3   OH245741   5.415   2.260   5.545 -0.0847  0.3456 -0.3241
 8109TIP3    H145742   5.448   2.171   5.558 -0.6812  0.2573  0.6641
 8109TIP3    H245743   5.469   2.314   5.602  0.7365  0.7244 -1.4509
 8110TIP3   OH245744   5.189   3.145   6.335  0.0704 -0.4176  0.4492
 8110TIP3    H145745   5.229   3.059   6.318 -0.7185 -0.7464  0.2335
 8110TIP3    H245746   5.114   3.125   6.392  0.1561  0.1839  0.7768
 8111TIP3   OH245747   2.971   5.954  11.022 -0.1566 -0.8621  0.1830
 8111TIP3    H145748   3.009   5.889  11.081 -1.1228 -1.2767  0.3658
 8111TIP3    H245749   2.910   5.904  10.967 -0.4080 -0.2245 -0.1286
 8112TIP3   OH245750   6.121   4.620  12.009  0.6380 -0.3497  0.4755
 8112TIP3    H145751   6.067   4.692  11.976  1.0222  0.0409  0.6981
 8112TIP3    H245752   6.069   4.542  11.992 -0.1605  0.0559  1.0310
 8113TIP3   OH245753   5.621   5.476  15.497  0.2153 -0.6953 -0.6870
 8113TIP3    H145754   5.612   5.471  15.592  1.8666  0.8168 -0.4301
 8113TIP3    H245755   5.538   5.513  15.467  1.1199  2.4894  0.5640
 8114TIP3   OH245756   0.456   0.299   5.488  0.4539  0.4120  0.5593
 8114TIP3    H145757   0.424   0.254   5.410  0.1890 -1.4444  1.7035
 8114TIP3    H245758   0.418   0.250   5.561  0.7464  2.0769  1.8606
 8115TIP3   OH245759   2.457   0.861  12.985  0.8062  0.0381  0.2533
 8115TIP3    H145760   2.530   0.858  12.924  0.7508 -0.0784  0.1914
 8115TIP3    H245761   2.431   0.769  12.996  0.1682  0.1424 -0.3325
 8116TIP3   OH245762   1.031   4.986  15.673 -0.3262 -0.5418 -0.6713
 8116TIP3    H145763   1.095   4.937  15.622  0.4980  0.7616 -0.9139
 8116TIP3    H245764   1.072   4.998  15.758  0.2986  1.3281 -1.1979
 8117TIP3   OH245765   5.833   0.068  15.560  0.1901  1.1394  0.4980
 8117TIP3    H145766   5.787   0.030  15.485 -0.4560  0.9580  0.9800
 8117TIP3    H245767   5.771   0.132  15.596 -0.0339  0.2837  1.6659
 8118TIP3   OH245768   2.937   1.091  13.210  0.0649  0.3266 -0.0626
 8118TIP3    H145769   2.971   1.038  13.139  0.8181 -0.1200  0.6222
 8118TIP3    H245770   2.867   1.143  13.170 -1.1749 -1.6989 -0.5663
 8119TIP3   OH245771   0.750   0.502   2.872 -0.1612 -0.3025  0.4645
 8119TIP3    H145772   0.741   0.406   2.869  0.5567 -0.3958  1.0302
 8119TIP3    H245773   0.671   0.535   2.830  0.9248 -1.1795 -2.3717
 8120TIP3   OH245774   0.969   0.004   6.206  0.0922 -0.4459 -0.3223
 8120TIP3    H145775   1.032  -0.041   6.262 -1.5823  1.2600  3.0743
 8120TIP3    H245776   0.885  -0.037   6.226 -0.8158  1.3809 -0.2645
 8121TIP3   OH245777   6.430   0.737  13.732 -0.2543 -0.5109 -0.6735
 8121TIP3    H145778   6.412   0.776  13.818  0.1415 -1.1058 -0.3114
 8121TIP3    H245779   6.500   0.674  13.749  1.3084  0.8817 -1.8285
 8122TIP3   OH245780   0.440   1.067  14.620 -0.1273 -0.2984  0.4798
 8122TIP3    H145781   0.347   1.073  14.598  0.2138 -0.6431 -1.0897
 8122TIP3    H245782   0.469   0.985  14.580  0.8818 -0.1443  0.8806
 8123TIP3   OH245783   1.198   2.678   2.434  0.2321 -0.8805  0.2323
 8123TIP3    H145784   1.174   2.721   2.516 -1.6751 -1.0534 -0.1980
 8123TIP3    H245785   1.274   2.624   2.456  0.5440  0.0831  1.5671
 8124TIP3   OH245786   2.241   1.968  16.740  0.2887 -0.0631 -0.0427
 8124TIP3    H145787   2.241   1.997  16.649  0.8371 -2.2661 -0.7907
 8124TIP3    H245788   2.333   1.950  16.759  0.1539  0.1923  0.8953
 8125TIP3   OH245789   2.955   4.539   5.049 -0.2827  0.1949  0.6112
 8125TIP3    H145790   2.947   4.608   5.115 -2.5405 -1.1888  1.8445
 8125TIP3    H245791   2.915   4.462   5.090  2.9411 -2.1307 -0.3845
 8126TIP3   OH245792   3.983   2.849   4.842 -0.3080 -0.2008  0.0950
 8126TIP3    H145793   4.074   2.825   4.856 -0.6523 -1.1892  0.6451
 8126TIP3    H245794   3.958   2.898   4.920 -0.8692 -1.7716  0.9252
 8127TIP3   OH245795   6.052   3.036  10.625 -0.1444 -0.1194 -0.0753
 8127TIP3    H145796   6.062   3.007  10.715  1.1769  0.0818 -0.1526
 8127TIP3    H245797   6.035   3.130  10.632  0.3432 -0.0309 -0.0458
 8128TIP3   OH245798   3.039   6.353   1.405  0.7556 -0.9926  0.4328
 8128TIP3    H145799   3.081   6.301   1.473  0.3744  1.9249  2.9716
 8128TIP3    H245800   2.949   6.367   1.436  0.7793  0.9784 -0.2911
 8129TIP3   OH245801   5.742   2.064   3.325  0.3235 -1.0516 -0.2365
 8129TIP3    H145802   5.716   2.028   3.410 -0.3166 -0.2628 -0.0891
 8129TIP3    H245803   5.832   2.034   3.313 -0.5773 -3.6746 -0.6705
 8130TIP3   OH245804   2.876   3.729   4.055 -0.1216 -0.4873  0.1645
 8130TIP3    H145805   2.818   3.792   4.014  0.9155  0.4394  0.1026
 8130TIP3    H245806   2.947   3.716   3.992 -0.2598 -1.6183  0.2289
 8131TIP3   OH245807   1.630   1.446   2.937  0.2840  0.1772 -0.0999
 8131TIP3    H145808   1.706   1.428   2.882 -0.3271 -0.8384 -0.6227
 8131TIP3    H245809   1.555   1.418   2.884 -0.4815  1.3943  0.3097
 8132TIP3   OH245810   2.551   2.854   4.578  0.1878 -0.8540 -0.1424
 8132TIP3    H145811   2.484   2.921   4.569  0.9043  0.2478  2.1979
 8132TIP3    H245812   2.563   2.820   4.490 -2.4162 -0.0882 -0.8400
 8133TIP3   OH245813   2.448   4.161  16.388 -0.3803  0.7064 -0.4816
 8133TIP3    H145814   2.398   4.086  16.420 -0.0155  1.3151  1.6317
 8133TIP3    H245815   2.421   4.234  16.445  1.7560  1.3848 -0.2800
 8134TIP3   OH245816   4.969   0.044  14.642 -0.5766 -0.0171  0.5369
 8134TIP3    H145817   4.967   0.011  14.552 -1.8294 -2.7881  1.5254
 8134TIP3    H245818   4.922   0.128  14.638 -2.4513 -1.1028 -1.0490
 8135TIP3   OH245819   1.796   2.364  14.018  0.4956  0.3447 -0.5718
 8135TIP3    H145820   1.715   2.394  14.058 -0.3074 -2.9374  0.3827
 8135TIP3    H245821   1.774   2.348  13.926 -0.3749 -1.9241 -0.0017
 8136TIP3   OH245822   4.880   2.512   5.164  0.0499  0.0895 -0.0364
 8136TIP3    H145823   4.809   2.563   5.203 -0.0394  0.1657 -0.2960
 8136TIP3    H245824   4.925   2.472   5.238 -2.2093 -2.5260 -0.0179
 8137TIP3   OH245825   0.299   5.400   0.983  0.0758  0.3344  0.6516
 8137TIP3    H145826   0.260   5.362   0.904  0.8166  0.3552  0.2692
 8137TIP3    H245827   0.243   5.475   1.003  1.0879  1.6114 -1.0989
 8138TIP3   OH245828   2.288   6.086  13.589 -0.1260  0.2754  0.3068
 8138TIP3    H145829   2.242   6.108  13.508 -0.3182  0.1304  0.3767
 8138TIP3    H245830   2.317   6.170  13.624 -0.2937  0.3612  0.2375
 8139TIP3   OH245831   4.827   0.561   3.009 -0.7640  0.1120 -0.0482
 8139TIP3    H145832   4.848   0.621   2.938  1.4380  0.9599  1.2819
 8139TIP3    H245833   4.769   0.611   3.067 -0.3215  0.3719  0.1726
 8140TIP3   OH245834   2.474   4.440   2.820  0.9309  0.0415  0.3682
 8140TIP3    H145835   2.549   4.479   2.774  0.8868  1.7053  1.6609
 8140TIP3    H245836   2.424   4.516   2.853 -0.3951 -1.0782  0.9955
 8141TIP3   OH245837   5.477   4.138  12.079 -0.2880  0.4444  0.1264
 8141TIP3    H145838   5.500   4.051  12.047 -2.6091 -0.6625  1.3590
 8141TIP3    H245839   5.472   4.192  12.000  0.6591 -0.6328 -0.6926
 8142TIP3   OH245840   0.744   4.231  14.819  1.2568  0.4684  0.0117
 8142TIP3    H145841   0.722   4.160  14.759  3.3794 -0.3605  0.1613
 8142TIP3    H245842   0.698   4.307  14.784 -2.0579 -1.2017  0.5329
 8143TIP3   OH245843   2.547   4.162  11.988 -0.4565  0.3714 -0.3197
 8143TIP3    H145844   2.507   4.219  11.921  0.7156  1.0064 -0.4892
 8143TIP3    H245845   2.472   4.122  12.032 -1.2600  0.0904 -1.8824
 8144TIP3   OH245846   1.429   4.648  13.283 -0.5473  0.2413 -0.2361
 8144TIP3    H145847   1.452   4.697  13.203  2.2550  1.9706  1.5389
 8144TIP3    H245848   1.507   4.597  13.303 -2.1377 -2.1391  0.0452
 8145TIP3   OH245849   4.712   1.285  11.677  0.2652 -0.1454 -0.0494
 8145TIP3    H145850   4.661   1.248  11.604 -1.3031  1.0031  0.4213
 8145TIP3    H245851   4.795   1.311  11.638 -0.7062  0.8340 -1.5516
 8146TIP3   OH245852   1.490   2.666  14.372 -0.4067  0.0390  0.6587
 8146TIP3    H145853   1.428   2.699  14.437 -2.0729 -2.0934  0.2438
 8146TIP3    H245854   1.439   2.664  14.290  0.4553 -1.0048  0.1368
 8147TIP3   OH245855   6.189   1.698  16.123  0.3878 -1.0265  0.6976
 8147TIP3    H145856   6.188   1.616  16.172  1.3264 -1.2960  0.2807
 8147TIP3    H245857   6.280   1.711  16.099  0.1996 -0.0188  0.4812
 8148TIP3   OH245858   3.874   0.040   3.150 -0.5067  0.1196 -0.0254
 8148TIP3    H145859   3.795   0.084   3.119 -2.1296 -1.2853  1.9938
 8148TIP3    H245860   3.860  -0.052   3.128  0.3263 -0.2149  0.8028
 8149TIP3   OH245861   4.501   2.688   5.003 -0.9067  0.4449  0.7445
 8149TIP3    H145862   4.481   2.732   5.086  0.3893  2.1376  0.1891
 8149TIP3    H245863   4.494   2.595   5.023 -0.1512  0.8179  2.8740
 8150TIP3   OH245864   3.277   6.469   2.662 -0.1168 -0.3217  0.5331
 8150TIP3    H145865   3.207   6.520   2.621 -0.2974 -2.1139 -1.5208
 8150TIP3    H245866   3.241   6.380   2.667  1.6018 -1.0303  0.4656
 8151TIP3   OH245867   3.974   6.189  15.498  0.0526  0.4611  0.3935
 8151TIP3    H145868   3.964   6.145  15.583  0.4143  0.0634  0.2328
 8151TIP3    H245869   3.997   6.118  15.437  0.0520  0.7852  0.0130
 8152TIP3   OH245870   2.743   6.414   1.417 -0.1686 -0.1936  0.0734
 8152TIP3    H145871   2.686   6.442   1.344 -0.8258  0.0350  0.6705
 8152TIP3    H245872   2.782   6.496   1.449  0.1223 -0.2951 -0.0199
 8153TIP3   OH245873   6.224   3.133   2.968  0.0696 -0.3220  0.4653
 8153TIP3    H145874   6.295   3.068   2.969  0.8397  0.5037 -0.0369
 8153TIP3    H245875   6.268   3.216   2.951 -1.0122  0.2232  0.3116
 8154TIP3   OH245876   3.401   5.135   4.968  0.1131 -0.5072  0.4163
 8154TIP3    H145877   3.393   5.186   4.888  0.7116  2.3735  2.1174
 8154TIP3    H245878   3.487   5.158   5.003 -0.2208 -1.5563  1.9962
 8155TIP3   OH245879   3.357   3.634  13.567 -0.1964 -0.0111 -0.0973
 8155TIP3    H145880   3.317   3.547  13.566 -0.1441 -0.0656  1.4840
 8155TIP3    H245881   3.350   3.664  13.476 -0.6738 -1.4485 -0.5602
 8156TIP3   OH245882   4.570   0.238  12.165  0.0308  0.3023 -0.7730
 8156TIP3    H145883   4.606   0.173  12.225 -0.0194 -1.0692 -2.1932
 8156TIP3    H245884   4.582   0.199  12.078 -1.8254  1.3019 -1.4962
 8157TIP3   OH245885   1.938   2.634   2.606  0.3711  0.3131  0.7360
 8157TIP3    H145886   2.025   2.596   2.616  0.4397  0.1170 -0.5076
 8157TIP3    H245887   1.916   2.619   2.514 -1.0784  0.1345  1.1012
 8158TIP3   OH245888   0.342   5.801   0.465  0.5997 -0.3019  0.0782
 8158TIP3    H145889   0.425   5.846   0.477 -0.6602  1.6412  1.7598
 8158TIP3    H245890   0.354   5.716   0.507  1.5774  0.1678  0.7543
 8159TIP3   OH245891   3.583   4.549  12.565 -0.3740  0.4403 -0.4616
 8159TIP3    H145892   3.616   4.543  12.475 -0.8252  0.3225 -0.6209
 8159TIP3    H245893   3.651   4.507  12.618  0.5766  1.8069 -0.5740
 8160TIP3   OH245894   3.876   2.229  14.905  0.0348 -0.5416  0.1323
 8160TIP3    H145895   3.923   2.198  14.982  0.8609  0.1048 -0.0979
 8160TIP3    H245896   3.886   2.325  14.908 -0.3908 -0.4766 -0.4729
 8161TIP3   OH245897   2.827   1.912  11.497 -0.1370  0.4356 -0.1579
 8161TIP3    H145898   2.898   1.975  11.503 -0.2410  0.6944 -1.4568
 8161TIP3    H245899   2.866   1.829  11.524  0.6572  0.5792 -0.8601
 8162TIP3   OH245900   4.442   4.801  16.804  0.2734 -0.0718  0.4255
 8162TIP3    H145901   4.411   4.869  16.744  0.3719 -0.3281  0.0840
 8162TIP3    H245902   4.379   4.801  16.876 -1.7442 -2.0720 -1.2928
 8163TIP3   OH245903   3.881   2.727   4.539  0.8187  0.1078 -0.2191
 8163TIP3    H145904   3.941   2.678   4.482  2.0119  1.2741  0.0010
 8163TIP3    H245905   3.901   2.819   4.520 -1.2197  0.5242 -0.4511
 8164TIP3   OH245906   3.999   5.320  12.989 -0.4163 -0.7607 -0.1594
 8164TIP3    H145907   4.051   5.396  13.015 -2.3255  1.1195 -1.6509
 8164TIP3    H245908   4.064   5.252  12.970  1.3756  0.7607  0.3702
 8165TIP3   OH245909   2.981   0.968  16.362 -0.0545  0.3217  0.6873
 8165TIP3    H145910   3.046   1.007  16.303 -0.5468 -0.8293 -0.6540
 8165TIP3    H245911   2.972   1.031  16.434  0.7828  1.6112 -0.3190
 8166TIP3   OH245912   4.356   6.077  16.928 -0.3358  0.3646 -0.5040
 8166TIP3    H145913   4.355   5.990  16.887  1.7318 -0.9672  2.1298
 8166TIP3    H245914   4.437   6.116  16.897  0.0775  0.2677  0.4401
 8167TIP3   OH245915   3.427   1.385  14.866  0.4404 -0.0241  0.6536
 8167TIP3    H145916   3.357   1.450  14.871  0.7146  0.2140  1.5771
 8167TIP3    H245917   3.487   1.409  14.937  1.0777 -0.6673  0.3408
 8168TIP3   OH245918   4.955   3.794   0.744 -0.1905  0.1132 -0.0576
 8168TIP3    H145919   4.876   3.739   0.742 -0.4411  0.5093 -1.1807
 8168TIP3    H245920   5.001   3.773   0.663 -0.3560  1.6654 -0.5570
 8169TIP3   OH245921   6.402   1.774   6.555  0.1721 -0.3803  0.0692
 8169TIP3    H145922   6.440   1.727   6.481 -0.3548  1.0753 -1.1710
 8169TIP3    H245923   6.477   1.808   6.603  0.5248 -1.4720  0.3107
 8170TIP3   OH245924   0.395   3.273  11.595  0.2109 -0.0250  0.2381
 8170TIP3    H145925   0.434   3.212  11.533  2.0152  0.0510  1.2664
 8170TIP3    H245926   0.378   3.220  11.673 -2.3927 -0.2094 -0.3981
 8171TIP3   OH245927   1.868   1.934   3.257  0.0844 -0.2256  0.3687
 8171TIP3    H145928   1.880   1.916   3.350  1.3073  0.5417  0.3674
 8171TIP3    H245929   1.876   1.848   3.215  2.2194 -0.2331  0.7255
 8172TIP3   OH245930   5.184   1.702   4.024  0.2195 -0.1426  0.1773
 8172TIP3    H145931   5.192   1.767   4.095  0.0979  1.2719 -1.0760
 8172TIP3    H245932   5.093   1.675   4.027  0.2715 -0.2691  0.7167
 8173TIP3   OH245933   0.689   6.321  14.477  0.4854 -0.0484  0.1719
 8173TIP3    H145934   0.679   6.240  14.427  0.1891  0.1557 -0.0983
 8173TIP3    H245935   0.708   6.292  14.566 -1.8679 -0.4524  0.5663
 8174TIP3   OH245936   2.611   0.584   4.188  0.2456  0.4219  0.2786
 8174TIP3    H145937   2.659   0.628   4.259  1.2641  0.1339 -0.2208
 8174TIP3    H245938   2.673   0.520   4.153 -0.2471  0.5538 -0.8693
 8175TIP3   OH245939   2.763   6.154   3.977  0.8011 -0.3396  0.5071
 8175TIP3    H145940   2.854   6.182   3.969  0.8316 -0.3229  0.9032
 8175TIP3    H245941   2.715   6.214   3.919  0.8790  0.4915  1.2908
 8176TIP3   OH245942   6.028   4.058  12.453 -0.5797 -0.5739 -0.2437
 8176TIP3    H145943   6.048   4.069  12.546  0.4780 -1.1895 -0.3921
 8176TIP3    H245944   5.980   3.976  12.448 -1.0585 -0.2988 -0.1843
 8177TIP3   OH245945   5.053   1.971  15.936  0.9486 -0.0395  0.3437
 8177TIP3    H145946   5.023   2.045  15.989 -0.0840 -0.7542  0.7880
 8177TIP3    H245947   5.148   1.979  15.935  0.8686  1.0280  0.7789
 8178TIP3   OH245948   2.715   4.961   5.565 -0.8448 -0.1892  0.3863
 8178TIP3    H145949   2.794   5.003   5.530 -0.4985  0.0573  1.4715
 8178TIP3    H245950   2.657   5.034   5.586 -0.7018 -0.3048  1.1764
 8179TIP3   OH245951   1.604   1.815  11.608  0.0250  0.0630 -0.2861
 8179TIP3    H145952   1.634   1.725  11.594  1.5723  0.5086  0.0861
 8179TIP3    H245953   1.684   1.865  11.618 -0.8615  1.3545  0.3797
 8180TIP3   OH245954   5.739   2.509  12.926  0.4145 -0.4614 -0.2117
 8180TIP3    H145955   5.744   2.588  12.873  1.6191 -0.6940 -0.4792
 8180TIP3    H245956   5.646   2.489  12.933 -0.0246  1.8917  1.2345
 8181TIP3   OH245957   4.972   0.004  10.937  0.1917 -0.0548  0.2771
 8181TIP3    H145958   5.010  -0.074  10.978  0.2653  0.0348  0.3797
 8181TIP3    H245959   5.044   0.066  10.931 -0.4907  1.0492  2.7856
 8182TIP3   OH245960   1.776   4.441   0.758  0.1751  0.4875  0.0892
 8182TIP3    H145961   1.849   4.425   0.818  0.3376  0.2334 -0.1720
 8182TIP3    H245962   1.779   4.535   0.741 -0.1861  0.6469  0.8752
 8183TIP3   OH245963   6.216   0.521  12.995  0.3002 -0.3176  0.0482
 8183TIP3    H145964   6.146   0.570  12.950  0.7014 -1.2866 -1.6926
 8183TIP3    H245965   6.286   0.585  13.005 -0.0797  0.1199 -0.0330
 8184TIP3   OH245966   5.988   5.754  15.523 -0.2282  0.8905 -0.1308
 8184TIP3    H145967   6.015   5.669  15.557  1.6293  1.6331  0.3422
 8184TIP3    H245968   5.987   5.811  15.601 -1.8461  1.2073 -0.3753
 8185TIP3   OH245969   3.121   1.580   0.414  0.0248 -0.1514  0.0692
 8185TIP3    H145970   3.170   1.610   0.491 -0.0948 -0.4921  0.2797
 8185TIP3    H245971   3.045   1.638   0.411 -0.5334 -0.8429  0.8450
 8186TIP3   OH245972   0.916   6.755  14.920  0.7291  0.0646  0.1485
 8186TIP3    H145973   0.963   6.715  14.993 -0.3841  0.2758  0.9791
 8186TIP3    H245974   0.985   6.795  14.866  1.3853  1.6241  2.0966
 8187TIP3   OH245975   2.490   1.255   2.269  0.0749 -0.1643  0.5247
 8187TIP3    H145976   2.542   1.298   2.337 -0.1224 -0.3905  0.8193
 8187TIP3    H245977   2.403   1.246   2.307 -0.4758  1.1712 -0.3617
 8188TIP3   OH245978   1.915   2.868   5.401  0.0341 -0.2132  0.1482
 8188TIP3    H145979   1.951   2.857   5.489 -0.7197 -2.0752  0.2568
 8188TIP3    H245980   1.890   2.779   5.374 -2.2751  0.7020 -0.8465
 8189TIP3   OH245981   5.191   0.186   4.817 -0.2581  0.4944 -0.5177
 8189TIP3    H145982   5.240   0.139   4.750 -0.2753 -1.2540  0.6717
 8189TIP3    H245983   5.099   0.163   4.802 -0.2121 -0.3597  0.4299
 8190TIP3   OH245984   6.377   0.930   1.172  0.3767 -0.6211 -0.1472
 8190TIP3    H145985   6.459   0.901   1.212  0.5146 -0.5413 -0.3719
 8190TIP3    H245986   6.329   0.971   1.243 -0.0700 -1.9059  0.3131
 8191TIP3   OH245987   0.850   5.149   0.837 -0.6219  0.4080 -0.2926
 8191TIP3    H145988   0.929   5.151   0.890 -1.8034 -2.7920  1.7548
 8191TIP3    H245989   0.780   5.177   0.897 -1.6435 -1.0497 -0.7770
 8192TIP3   OH245990   0.890   0.623   6.188 -0.4867  0.5996  0.2109
 8192TIP3    H145991   0.893   0.557   6.119  1.2320  2.3113 -1.4153
 8192TIP3    H245992   0.888   0.573   6.270 -2.1073 -1.4430 -1.0452
 8193TIP3   OH245993   4.313   0.353   5.993  0.0957 -0.1216  0.6433
 8193TIP3    H145994   4.325   0.447   6.004  0.1109 -0.3785  2.9962
 8193TIP3    H245995   4.218   0.342   5.983  0.0088  0.0505  1.2954
 8194TIP3   OH245996   5.603   2.639   1.668 -0.2828 -0.3018 -0.0227
 8194TIP3    H145997   5.642   2.584   1.600 -0.5460 -2.3555  1.4427
 8194TIP3    H245998   5.537   2.583   1.709  0.5012  0.5854  2.5111
 8195TIP3   OH245999   3.761   4.545  14.626 -0.4779 -0.3366 -0.3195
 8195TIP3    H146000   3.720   4.564  14.710 -0.5451  1.4848 -0.7344
 8195TIP3    H246001   3.718   4.605  14.564  1.1437 -0.0468 -1.1999
 8196TIP3   OH246002   3.160   5.404  15.713 -0.1024  0.4118  0.3342
 8196TIP3    H146003   3.101   5.347  15.664 -1.2303  2.3581 -0.6423
 8196TIP3    H246004   3.104   5.445  15.779  0.0656  2.5134 -0.7955
 8197TIP3   OH246005   5.002   3.748  11.949  0.5517 -0.4224  0.1301
 8197TIP3    H146006   5.021   3.657  11.928 -0.2143 -0.7398  0.7730
 8197TIP3    H246007   4.970   3.786  11.867 -0.1907 -1.0282  0.1330
 8198TIP3   OH246008   3.300   4.463  17.057 -0.3266 -0.1428  0.3790
 8198TIP3    H146009   3.262   4.436  16.973 -1.3124  2.1242  0.0686
 8198TIP3    H246010   3.225   4.464  17.117 -0.2451  1.4647  0.4771
 8199TIP3   OH246011   6.363   3.384   3.420 -0.5789 -0.1950 -0.3288
 8199TIP3    H146012   6.384   3.321   3.352 -2.3438 -0.1850 -0.9219
 8199TIP3    H246013   6.379   3.337   3.502  0.4381 -0.5947 -0.7572
 8200TIP3   OH246014   5.916   6.786  16.591  0.2719  0.0535 -0.0907
 8200TIP3    H146015   5.892   6.823  16.676 -0.5314 -0.5447 -0.0450
 8200TIP3    H246016   5.949   6.698  16.611  3.3128  1.1373 -0.0822
 8201TIP3   OH246017   3.343   1.375  16.003 -0.5925  0.2389 -0.3800
 8201TIP3    H146018   3.293   1.379  16.084 -1.1366  0.5548 -0.7314
 8201TIP3    H246019   3.372   1.284  15.997 -0.0711  0.3448  0.4533
 8202TIP3   OH246020   4.269   6.282   6.764  0.2648 -0.3894 -0.1959
 8202TIP3    H146021   4.268   6.214   6.831  1.6377 -0.5604 -0.3441
 8202TIP3    H246022   4.360   6.287   6.735  0.2913  1.8748  0.1791
 8203TIP3   OH246023   3.804   1.369   2.734 -0.7604  0.0810 -0.4367
 8203TIP3    H146024   3.751   1.445   2.706  0.5859  1.3572  0.4306
 8203TIP3    H246025   3.748   1.294   2.716 -3.5546  1.4914  1.9407
 8204TIP3   OH246026   4.232   6.033   3.598  0.1937 -0.0622  0.2615
 8204TIP3    H146027   4.177   6.095   3.550 -0.2605 -0.0124  0.8506
 8204TIP3    H246028   4.321   6.052   3.568 -0.3231 -1.8194 -2.6220
 8205TIP3   OH246029   4.646   4.403   5.299 -0.4250  0.5630  0.1878
 8205TIP3    H146030   4.560   4.377   5.333  0.1954  0.1165  1.4790
 8205TIP3    H246031   4.654   4.496   5.320  0.4353  0.0318  2.4104
 8206TIP3   OH246032   0.916   5.303  12.971  0.0245 -1.0250  0.1895
 8206TIP3    H146033   0.890   5.243  12.901  0.3936 -0.1907 -0.6692
 8206TIP3    H246034   0.961   5.247  13.034  1.7258 -1.4149 -1.3278
 8207TIP3   OH246035   1.301   2.875  14.954  0.6153  0.0170  1.2600
 8207TIP3    H146036   1.381   2.922  14.978 -0.7809  1.2831  3.6431
 8207TIP3    H246037   1.245   2.942  14.915  0.1023 -0.5180  1.0795
 8208TIP3   OH246038   4.015   2.192  11.122 -0.2878  0.0609  0.6203
 8208TIP3    H146039   3.942   2.133  11.140 -0.3650 -0.5543 -1.6126
 8208TIP3    H246040   4.004   2.217  11.030  1.3178  1.3682  0.7539
 8209TIP3   OH246041   6.000   3.584  14.667 -0.5194  0.2550  0.4591
 8209TIP3    H146042   5.985   3.663  14.719 -1.4306 -0.0460  0.6477
 8209TIP3    H246043   6.042   3.523  14.728 -1.3482 -0.0035  0.7782
 8210TIP3   OH246044   0.153   6.155   0.872  0.7725  0.2221 -0.1799
 8210TIP3    H146045   0.196   6.099   0.938 -1.0669  0.2148  1.0591
 8210TIP3    H246046   0.065   6.170   0.908 -0.1972  0.3729 -2.5656
 8211TIP3   OH246047   5.361   5.548  15.370 -0.2766 -0.1494 -0.0735
 8211TIP3    H146048   5.355   5.494  15.291  0.1530 -1.1063  0.5456
 8211TIP3    H246049   5.272   5.582  15.381 -0.3290  0.0395 -0.9960
 8212TIP3   OH246050   0.110   3.553   4.670  0.2145  0.3601  0.5211
 8212TIP3    H146051   0.202   3.527   4.671 -0.1080 -0.7861  0.8767
 8212TIP3    H246052   0.097   3.600   4.752  0.0905 -0.8640  1.2058
 8213TIP3   OH246053   3.778   5.518   5.551  0.1228  0.0162 -1.2807
 8213TIP3    H146054   3.802   5.585   5.615 -0.6355 -1.6088  0.7616
 8213TIP3    H246055   3.789   5.561   5.466  0.2899  2.5029 -0.0465
 8214TIP3   OH246056   0.355   2.395   3.255 -0.4975  0.2104  0.6291
 8214TIP3    H146057   0.427   2.458   3.262 -0.5791  0.3420  0.2980
 8214TIP3    H246058   0.393   2.320   3.209 -1.1171  1.1195 -1.3911
 8215TIP3   OH246059   1.687   1.641   3.443  0.3726  0.3303  0.5321
 8215TIP3    H146060   1.769   1.600   3.472 -0.5309 -1.0380  1.1828
 8215TIP3    H246061   1.665   1.594   3.363 -1.0054 -0.9372  1.6261
 8216TIP3   OH246062   0.986   3.788   2.494 -0.1064 -0.2206 -0.1336
 8216TIP3    H146063   1.062   3.840   2.466 -0.8038 -0.0438 -1.7763
 8216TIP3    H246064   0.914   3.821   2.441 -0.5933 -2.7775 -1.1899
 8217TIP3   OH246065   1.909   1.800  11.513 -0.0332 -0.0466 -0.2957
 8217TIP3    H146066   1.982   1.805  11.452 -0.5000 -1.1444 -0.9566
 8217TIP3    H246067   1.949   1.808  11.600  1.2115 -3.4242 -0.4936
 8218TIP3   OH246068   4.011   0.536   5.571  0.2623  0.1427 -0.0901
 8218TIP3    H146069   3.943   0.600   5.596 -1.1721 -1.8509  1.3218
 8218TIP3    H246070   4.086   0.558   5.627  0.2385  1.3764 -0.5262
 8219TIP3   OH246071   3.022   5.295  14.751 -0.2431 -1.3808  0.5391
 8219TIP3    H146072   2.950   5.237  14.775 -1.8933 -0.4821 -1.9703
 8219TIP3    H246073   2.979   5.370  14.708  2.0203  0.3223  1.1472
 8220TIP3   OH246074   1.809   0.552  11.643 -0.3296  0.0215  0.3694
 8220TIP3    H146075   1.853   0.478  11.684 -0.6789 -0.7664 -0.6708
 8220TIP3    H246076   1.857   0.567  11.562  0.2386  1.4534  0.9425
 8221TIP3   OH246077   6.771   1.312   2.445 -0.0437 -0.3687  0.0791
 8221TIP3    H146078   6.767   1.406   2.427 -1.5503 -0.4619 -0.0998
 8221TIP3    H246079   6.798   1.307   2.537  1.2813  0.2026 -0.2640
 8222TIP3   OH246080   0.577   2.113  16.885 -0.1677 -0.7535 -0.3303
 8222TIP3    H146081   0.554   2.023  16.907 -2.5062 -0.1245 -0.0795
 8222TIP3    H246082   0.562   2.162  16.965  1.5756 -0.2093 -0.3261
 8223TIP3   OH246083   2.779   1.533  11.397 -0.3383 -0.1187 -0.0543
 8223TIP3    H146084   2.697   1.581  11.386 -0.9162 -1.3195 -1.0361
 8223TIP3    H246085   2.769   1.490  11.482 -0.5405  0.0842  0.0277
 8224TIP3   OH246086   6.514   5.511   3.114 -0.5310  0.3846  0.2058
 8224TIP3    H146087   6.544   5.556   3.035  1.7675  2.2601  2.0744
 8224TIP3    H246088   6.589   5.458   3.142 -1.0209  0.3861  1.5650
 8225TIP3   OH246089   0.111   4.996  11.843  0.6492 -0.4873  0.3567
 8225TIP3    H146090   0.050   5.033  11.779 -0.9062 -0.7550  1.6434
 8225TIP3    H246091   0.190   5.050  11.834  0.9733 -1.3494 -2.6833
 8226TIP3   OH246092   2.096   4.510  11.890 -0.0278 -0.0373 -0.1776
 8226TIP3    H146093   2.064   4.476  11.806  3.8199 -0.8563 -1.3853
 8226TIP3    H246094   2.162   4.575  11.867 -1.9417  2.9074  2.2412
 8227TIP3   OH246095   1.791   3.281   4.737  0.2012  0.2791 -0.0881
 8227TIP3    H146096   1.838   3.363   4.753  1.5375 -0.6271  0.7660
 8227TIP3    H246097   1.797   3.233   4.819  0.0983 -0.9991 -0.8115
 8228TIP3   OH246098   4.891   5.230  17.188 -0.2503  0.4438 -0.1998
 8228TIP3    H146099   4.854   5.142  17.199 -1.5080  1.0847  0.7643
 8228TIP3    H246100   4.934   5.227  17.102  0.1355 -1.2532  0.0410
 8229TIP3   OH246101   0.517   1.321  10.855 -0.1610  0.0569 -0.1150
 8229TIP3    H146102   0.513   1.416  10.865 -0.8473  0.1011 -0.7593
 8229TIP3    H246103   0.483   1.305  10.767 -2.9099 -1.0287  1.0931
 8230TIP3   OH246104   4.575   4.546   3.192 -0.1035 -0.1104  0.4744
 8230TIP3    H146105   4.506   4.480   3.186 -0.3773  0.1041  1.2688
 8230TIP3    H246106   4.611   4.535   3.280 -0.3680  1.0220  0.7281
 8231TIP3   OH246107   0.323   1.521  15.977 -0.0216 -0.0390 -0.1693
 8231TIP3    H146108   0.357   1.534  15.888 -1.7105  0.8323 -0.7185
 8231TIP3    H246109   0.346   1.602  16.023  0.2448 -0.2016 -0.0169
 8232TIP3   OH246110   6.091   1.597  11.681  0.2070 -0.1871 -0.6329
 8232TIP3    H146111   6.127   1.676  11.722  1.5075 -1.9014  1.6210
 8232TIP3    H246112   6.154   1.574  11.613  1.1248 -0.6673  0.3619
 8233TIP3   OH246113   2.530   2.085  11.859  0.3264  0.1628  0.1154
 8233TIP3    H146114   2.517   2.091  11.764  0.7128  0.8077  0.0946
 8233TIP3    H246115   2.486   2.162  11.894 -0.1638 -0.2944  0.4988
 8234TIP3   OH246116   0.824   2.940   2.162 -0.1448  0.3380 -0.2383
 8234TIP3    H146117   0.879   2.884   2.107  0.6768 -0.6145  1.4873
 8234TIP3    H246118   0.834   3.028   2.125  0.4925 -0.2549 -1.5095
 8235TIP3   OH246119   0.113   0.202   1.332  0.6453  0.3258 -0.0758
 8235TIP3    H146120   0.145   0.113   1.340  1.2728  0.5161 -0.4371
 8235TIP3    H246121   0.190   0.257   1.345  0.3028  0.8048 -0.0668
 8236TIP3   OH246122   4.474   3.556  15.023  0.2008 -0.3414 -0.2027
 8236TIP3    H146123   4.427   3.595  15.097  0.6390 -0.6637  0.2481
 8236TIP3    H246124   4.415   3.567  14.949 -0.5243 -0.6215  0.3296
 8237TIP3   OH246125   2.100   4.322  16.747  0.4575 -0.3872  0.0158
 8237TIP3    H146126   2.179   4.370  16.774  0.3134 -0.4487  0.5610
 8237TIP3    H246127   2.122   4.230  16.759  0.7946 -0.4765 -1.2022
 8238TIP3   OH246128   1.359   3.633  12.383  0.1033  0.4874 -0.1049
 8238TIP3    H146129   1.350   3.687  12.305 -2.0535  0.6776  0.2619
 8238TIP3    H246130   1.402   3.553  12.351 -0.0440  0.8826 -1.3340
 8239TIP3   OH246131   0.214   3.501  14.971  0.1644  0.2278 -0.1122
 8239TIP3    H146132   0.188   3.428  14.915  0.9135 -0.8715  0.9324
 8239TIP3    H246133   0.288   3.541  14.926  0.0794  0.0166 -0.4400
 8240TIP3   OH246134   4.013   4.411  11.914  0.2965 -0.5044 -0.3328
 8240TIP3    H146135   4.025   4.471  11.988  0.1951 -1.7550  0.7297
 8240TIP3    H246136   4.089   4.353  11.918  0.5834 -0.2200 -1.5748
 8241TIP3   OH246137   0.094   5.833   2.463 -0.3672 -0.4664 -0.2985
 8241TIP3    H146138   0.110   5.906   2.523 -0.4753 -1.0555  0.4521
 8241TIP3    H246139   0.181   5.802   2.439 -0.3272 -0.3186 -0.3461
 8242TIP3   OH246140   1.754   0.861  12.668 -1.1219 -0.3873  0.1468
 8242TIP3    H146141   1.803   0.912  12.604 -0.1344  1.3670  2.2278
 8242TIP3    H246142   1.665   0.858  12.633 -0.2532 -0.8818 -2.0895
 8243TIP3   OH246143   2.009   3.416   0.203 -0.2366 -0.2352  0.4280
 8243TIP3    H146144   2.037   3.329   0.231  0.5441  0.2301  1.0855
 8243TIP3    H246145   1.928   3.432   0.251 -0.0591 -0.3474  0.7636
 8244TIP3   OH246146   3.199   2.443  16.190 -0.2253 -0.2743  0.7688
 8244TIP3    H146147   3.169   2.407  16.107 -0.9051 -0.5099  1.1079
 8244TIP3    H246148   3.259   2.377  16.224 -1.8339 -1.3387  1.6137
 8245TIP3   OH246149   0.913   0.372  14.748  0.0731  0.1940 -0.0537
 8245TIP3    H146150   0.900   0.355  14.841  0.6828 -0.4514 -0.0837
 8245TIP3    H246151   1.008   0.367  14.736  0.1838  2.2989 -0.3185
 8246TIP3   OH246152   2.092   3.194   4.777  0.0873 -0.4736  0.2086
 8246TIP3    H146153   2.120   3.177   4.686 -1.1859  0.0753 -0.2959
 8246TIP3    H246154   2.020   3.132   4.791 -1.6470  1.4051 -0.1565
 8247TIP3   OH246155   5.782   6.417  15.032  0.0305  0.7725  0.3841
 8247TIP3    H146156   5.849   6.484  15.026  2.4872 -1.7722 -1.6260
 8247TIP3    H246157   5.752   6.404  14.942  0.4193 -1.5996  0.5635
 8248TIP3   OH246158   1.783   1.236  16.641 -0.5406 -0.2089 -0.1745
 8248TIP3    H146159   1.875   1.249  16.618  0.2277  0.9342  3.1920
 8248TIP3    H246160   1.734   1.285  16.575  1.2912 -0.1530 -1.5306
 8249TIP3   OH246161   2.444   1.568  13.625  0.1042 -0.0820  0.0831
 8249TIP3    H146162   2.468   1.601  13.712  0.5313  0.3761 -0.1998
 8249TIP3    H246163   2.356   1.603  13.609 -0.5574 -1.3594  0.9267
 8250TIP3   OH246164   0.839   0.429   4.956  0.0968  0.1414 -0.6910
 8250TIP3    H146165   0.745   0.438   4.944 -0.3926 -1.9567  1.1806
 8250TIP3    H246166   0.855   0.335   4.945  1.8217  0.3371 -0.0269
 8251TIP3   OH246167   0.564   5.613   2.205  0.2200  0.0407  0.0324
 8251TIP3    H146168   0.546   5.703   2.177  1.1617 -0.3204 -1.7898
 8251TIP3    H246169   0.480   5.568   2.200  0.4308 -0.1305 -2.7299
 8252TIP3   OH246170   1.265   1.757  16.941  0.1871  0.3519  0.0286
 8252TIP3    H146171   1.305   1.684  16.892 -2.3428 -1.4925  0.6244
 8252TIP3    H246172   1.284   1.834  16.888  0.4554 -1.1495 -2.1276
 8253TIP3   OH246173   2.310   2.711   3.999 -0.4809 -0.3452  0.5521
 8253TIP3    H146174   2.237   2.651   3.983  0.1583 -1.4328  1.7129
 8253TIP3    H246175   2.376   2.686   3.934 -0.6380 -0.1779  0.3249
 8254TIP3   OH246176   0.845   0.914  11.355  0.1615  0.0150 -0.2238
 8254TIP3    H146177   0.815   0.827  11.383 -2.6350  1.4836  1.5647
 8254TIP3    H246178   0.823   0.919  11.262  0.6021 -1.2956 -0.4039
 8255TIP3   OH246179   3.247   4.044   5.919  0.0213 -0.5582  0.7675
 8255TIP3    H146180   3.196   3.963   5.911 -0.5663 -0.1556  0.3193
 8255TIP3    H246181   3.286   4.039   6.006 -0.5671 -1.0081  1.0137
 8256TIP3   OH246182   4.907   4.379  11.299  0.3874 -0.1300  0.2509
 8256TIP3    H146183   4.940   4.454  11.349  2.9277 -1.0257 -0.0294
 8256TIP3    H246184   4.926   4.303  11.354 -1.0798 -0.7160 -0.0068
 8257TIP3   OH246185   2.579   5.066  12.860 -0.2533 -0.0063  0.0052
 8257TIP3    H146186   2.637   5.122  12.810 -0.2951 -0.8292 -0.9715
 8257TIP3    H246187   2.589   5.096  12.951  2.2321 -0.6115 -0.0284
 8258TIP3   OH246188   4.935   4.602  16.284 -0.2759  0.3697  0.4125
 8258TIP3    H146189   4.918   4.533  16.221 -0.7164  0.1638  0.7572
 8258TIP3    H246190   4.885   4.577  16.362  1.4451 -0.1622  1.3857
 8259TIP3   OH246191   4.078   0.702  11.799  0.4041  0.2979  0.0413
 8259TIP3    H146192   4.079   0.789  11.758  0.7044 -0.2017 -1.0256
 8259TIP3    H246193   4.107   0.643  11.730  0.8659 -0.5680  0.9650
 8260TIP3   OH246194   3.040   3.701   2.860  0.4916  0.3811  0.5012
 8260TIP3    H146195   3.049   3.780   2.913 -0.4010  0.2316  0.8887
 8260TIP3    H246196   3.048   3.731   2.770 -0.8938  1.0761  0.5961
 8261TIP3   OH246197   0.844   1.526  16.471 -0.2643  0.5916  0.2089
 8261TIP3    H146198   0.754   1.556  16.479 -0.2479  0.3051  1.5970
 8261TIP3    H246199   0.893   1.604  16.444 -0.7571  1.0047  0.5000
 8262TIP3   OH246200   5.949   1.465  12.545 -0.7808 -0.1564  0.0020
 8262TIP3    H146201   5.880   1.520  12.509  0.3010  0.9486 -0.4104
 8262TIP3    H246202   5.939   1.381  12.501 -1.2928  0.2783 -0.7121
 8263TIP3   OH246203   1.323   2.589   4.131 -0.9393  0.1075  0.0127
 8263TIP3    H146204   1.319   2.493   4.129  0.4377  0.0285 -0.0777
 8263TIP3    H246205   1.321   2.611   4.224  0.8741 -0.1553  0.1396
 8264TIP3   OH246206   2.840   3.229  16.242 -0.1205 -0.5596  0.1415
 8264TIP3    H146207   2.841   3.182  16.325  0.0848 -0.2653  0.3049
 8264TIP3    H246208   2.749   3.225  16.213 -0.0818 -1.1741  0.0850
 8265TIP3   OH246209   3.730   3.556   4.631  0.0854 -0.0723 -0.4023
 8265TIP3    H146210   3.702   3.647   4.617  0.4130  0.2602  0.9901
 8265TIP3    H246211   3.814   3.565   4.676  0.0066 -1.0704 -0.0638
 8266TIP3   OH246212   0.116   0.596   2.636  0.0659 -0.1467  0.7528
 8266TIP3    H146213   0.073   0.647   2.704  0.7433  1.7309 -0.1743
 8266TIP3    H246214   0.049   0.537   2.602 -1.1643  1.1951  0.8321
 8267TIP3   OH246215   3.244   0.059  16.094  0.2853 -0.4516 -0.1482
 8267TIP3    H146216   3.177  -0.007  16.110 -0.4444 -0.0946 -1.6361
 8267TIP3    H246217   3.195   0.139  16.075  1.1136 -0.2726 -1.6154
 8268TIP3   OH246218   6.066   5.188   5.678  0.7613 -0.6685 -0.0301
 8268TIP3    H146219   6.108   5.174   5.593  3.0045 -2.0806  1.2717
 8268TIP3    H246220   6.064   5.283   5.687  0.5774 -0.4994 -1.6223
 8269TIP3   OH246221   3.101   4.532   4.539 -0.6256 -0.5700 -0.3950
 8269TIP3    H146222   3.022   4.569   4.578  0.2507  3.1107 -1.8264
 8269TIP3    H246223   3.169   4.543   4.606 -0.3239  0.7456 -0.8859
 8270TIP3   OH246224   1.931   5.961  13.313  0.4475  0.0111  0.4148
 8270TIP3    H146225   1.904   5.878  13.350  2.4894 -0.0850  1.7415
 8270TIP3    H246226   1.849   6.002  13.284 -0.8829 -1.1235  2.4697
 8271TIP3   OH246227   2.731   0.623  15.224 -0.3887  0.0693 -0.0109
 8271TIP3    H146228   2.802   0.600  15.165  1.0009 -0.9555  1.9822
 8271TIP3    H246229   2.757   0.708  15.261  1.2540 -1.5862  2.8073
 8272TIP3   OH246230   6.133   3.450   3.656 -0.1053 -0.2223 -0.6428
 8272TIP3    H146231   6.207   3.505   3.632  0.6120 -0.6705  0.4826
 8272TIP3    H246232   6.163   3.361   3.639  0.4513 -0.5620  1.9015
 8273TIP3   OH246233   5.408   0.691  11.366  0.8676 -0.1851  0.2266
 8273TIP3    H146234   5.501   0.674  11.377  0.4923 -2.1729  0.5950
 8273TIP3    H246235   5.373   0.692  11.455  0.3063 -0.9786  0.0248
 8274TIP3   OH246236   5.171   5.023   1.093  0.6391 -0.1680  0.2423
 8274TIP3    H146237   5.163   4.998   1.185 -1.7285 -0.2230  0.0545
 8274TIP3    H246238   5.165   4.941   1.045 -1.5605  0.1468 -0.0957
 8275TIP3   OH246239   6.603   2.497  13.381  0.4319  0.5213  0.0145
 8275TIP3    H146240   6.553   2.433  13.432 -1.3684  2.3845  0.6706
 8275TIP3    H246241   6.685   2.507  13.429 -0.6476  1.1736  1.7424
 8276TIP3   OH246242   1.087   4.199   5.889  0.1186  0.1336  0.3704
 8276TIP3    H146243   1.090   4.145   5.967 -0.2871 -0.6298 -0.1368
 8276TIP3    H246244   1.029   4.272   5.911  1.8456  1.1824  1.5651
 8277TIP3   OH246245   6.376   5.249   0.593  0.1573  0.1947  0.3650
 8277TIP3    H146246   6.407   5.207   0.513 -0.2955  0.1860  0.1926
 8277TIP3    H246247   6.283   5.262   0.579  0.1908  0.7468  0.6525
 8278TIP3   OH246248   2.652   4.095  15.622 -0.1544 -0.3117 -0.6128
 8278TIP3    H146249   2.628   4.159  15.689  2.2563 -0.1475  0.1413
 8278TIP3    H246250   2.587   4.025  15.631  0.7240 -0.7888  2.6244
 8279TIP3   OH246251   2.418   2.832  16.476  0.1556 -0.6496  0.3484
 8279TIP3    H146252   2.461   2.917  16.487 -0.4309 -0.6114  2.5578
 8279TIP3    H246253   2.392   2.830  16.384  0.1322  1.5999  0.2766
 8280TIP3   OH246254   4.343   2.578  12.613 -0.0551  0.4073 -0.0875
 8280TIP3    H146255   4.373   2.602  12.525  0.3926  0.0396 -0.0432
 8280TIP3    H246256   4.286   2.650  12.641  0.2555  0.7940 -0.4532
 8281TIP3   OH246257   1.033   6.533  11.264 -0.1267  0.4507 -0.2220
 8281TIP3    H146258   1.038   6.548  11.359 -2.7014  1.1561 -0.1488
 8281TIP3    H246259   1.067   6.445  11.251  1.3879  0.8110  1.2083
 8282TIP3   OH246260   6.396   2.370  15.059  0.2274 -0.0456  0.2129
 8282TIP3    H146261   6.319   2.321  15.088  0.4565  0.3911  1.5906
 8282TIP3    H246262   6.450   2.380  15.138  1.0074  0.9015 -0.4217
 8283TIP3   OH246263   5.662   2.095   1.213  0.2032 -0.4042  0.0572
 8283TIP3    H146264   5.659   2.130   1.302  0.5244 -0.2889  0.0242
 8283TIP3    H246265   5.754   2.105   1.186 -0.0685  0.3251 -0.5981
 8284TIP3   OH246266   1.257   6.165   2.376 -0.6718  0.3220  0.4538
 8284TIP3    H146267   1.275   6.080   2.417 -1.0720  0.5827  1.1914
 8284TIP3    H246268   1.269   6.228   2.447  0.0071  0.9200 -0.1848
 8285TIP3   OH246269   1.600   4.681   0.681  0.2080  0.4058  0.0440
 8285TIP3    H146270   1.581   4.625   0.756  0.6567  0.7410  0.4082
 8285TIP3    H246271   1.530   4.662   0.619  0.4975 -0.7613  0.0529
 8286TIP3   OH246272   1.426   3.463   2.110  0.4293 -0.0470  0.4290
 8286TIP3    H146273   1.355   3.400   2.108  0.2637  0.1123  1.3668
 8286TIP3    H246274   1.474   3.443   2.190  1.0588  0.2666  0.1347
 8287TIP3   OH246275   1.377   6.379  14.697  0.0060  0.3518  0.0352
 8287TIP3    H146276   1.338   6.390  14.784  0.1668  0.3500  0.1079
 8287TIP3    H246277   1.334   6.301  14.661  1.5570 -0.9728  1.0028
 8288TIP3   OH246278   6.000   1.684   5.613  0.2080  0.4554  0.5135
 8288TIP3    H146279   5.919   1.724   5.582  1.4489  1.2822 -1.8235
 8288TIP3    H246280   6.050   1.758   5.649  1.2890  0.5766 -1.1549
 8289TIP3   OH246281   1.485   0.977   5.064  0.5593 -0.7350  0.7505
 8289TIP3    H146282   1.451   1.007   5.148 -0.6654 -0.7786  0.2690
 8289TIP3    H246283   1.417   0.922   5.028  0.7340 -0.0637 -0.6533
 8290TIP3   OH246284   4.207   3.754   4.816 -0.3108 -0.1228 -0.5489
 8290TIP3    H146285   4.169   3.780   4.733 -1.8565  0.7235  0.3988
 8290TIP3    H246286   4.301   3.747   4.799 -0.7544 -1.0848 -2.6283
 8291TIP3   OH246287   1.255   5.379  10.551 -0.1144  0.6375 -0.0150
 8291TIP3    H146288   1.170   5.351  10.587 -1.1498  1.9358 -1.3844
 8291TIP3    H246289   1.233   5.448  10.489  2.0368  1.5078  0.1547
 8292TIP3   OH246290   6.390   6.563  16.004 -0.0964 -0.2453 -0.0899
 8292TIP3    H146291   6.376   6.610  15.922  0.6038  0.7763  0.3620
 8292TIP3    H246292   6.432   6.627  16.061  0.4503 -1.2846  0.6917
 8293TIP3   OH246293   6.349   3.794   4.802  0.0622  0.2243  0.4763
 8293TIP3    H146294   6.301   3.808   4.720  1.6201 -0.7458 -0.6315
 8293TIP3    H246295   6.295   3.731   4.850  0.8457 -1.9210 -1.3550
 8294TIP3   OH246296   0.842   1.849  16.937  0.6019  0.4737 -0.4852
 8294TIP3    H146297   0.892   1.805  16.867  0.8730 -0.2049  0.1279
 8294TIP3    H246298   0.906   1.865  17.006  0.1761  0.4694 -0.0851
 8295TIP3   OH246299   3.957   2.017  11.509  1.0750 -1.2216 -0.8187
 8295TIP3    H146300   3.979   1.943  11.566  1.1447  0.2259  1.0871
 8295TIP3    H246301   3.861   2.022  11.513  1.0158 -1.6840 -1.5752
 8296TIP3   OH246302   3.574   3.854   2.464  0.3387 -0.2965 -0.7090
 8296TIP3    H146303   3.536   3.848   2.551 -1.6572  0.5166 -1.4861
 8296TIP3    H246304   3.659   3.898   2.477  0.5106 -1.1141  0.9180
 8297TIP3   OH246305   1.901   5.154   4.038 -0.4782  0.3567  0.3804
 8297TIP3    H146306   1.847   5.114   4.106  0.8604 -1.4073  0.4312
 8297TIP3    H246307   1.944   5.227   4.083 -1.2160  0.5040  0.8668
 8298TIP3   OH246308   6.637   5.629   3.602  0.6264  0.2287 -0.1174
 8298TIP3    H146309   6.602   5.716   3.583  2.8999  0.8609 -1.5737
 8298TIP3    H246310   6.699   5.643   3.674 -0.2362 -0.4738  0.7777
 8299TIP3   OH246311   1.065   6.620   3.881 -0.1003  0.1549  0.0480
 8299TIP3    H146312   0.970   6.609   3.885 -0.0327 -0.6740 -0.5070
 8299TIP3    H246313   1.099   6.549   3.936  0.2929 -1.4162 -2.1852
 8300TIP3   OH246314   4.259   4.833  15.800 -0.2408 -0.4332 -0.0428
 8300TIP3    H146315   4.294   4.788  15.876  0.0671  0.4013  0.3115
 8300TIP3    H246316   4.309   4.799  15.726  0.8816  0.2889  0.3852
 8301TIP3   OH246317   6.531   4.437   2.405  0.5464  0.0787 -0.8870
 8301TIP3    H146318   6.498   4.413   2.319 -1.9141  1.1213 -0.2677
 8301TIP3    H246319   6.513   4.361   2.460  0.7889 -0.0317 -0.9604
 8302TIP3   OH246320   4.349   0.210   0.578 -0.5548  0.4889 -1.0062
 8302TIP3    H146321   4.442   0.202   0.556 -0.6281 -0.2027 -1.0566
 8302TIP3    H246322   4.336   0.149   0.650 -1.2227 -0.2479 -1.7514
 8303TIP3   OH246323   6.206   2.973  13.522 -0.2297  0.4417  0.1573
 8303TIP3    H146324   6.264   2.899  13.537  1.0967  1.1948 -1.2251
 8303TIP3    H246325   6.143   2.941  13.458 -0.0222  0.3340  0.0073
 8304TIP3   OH246326   1.010   1.412   2.951 -0.0990  0.1415  1.1081
 8304TIP3    H146327   1.092   1.362   2.959  0.0202 -0.0672 -1.1226
 8304TIP3    H246328   0.968   1.377   2.872 -1.8838  0.9150  1.6913
 8305TIP3   OH246329   5.661   5.187   5.588  0.1168  0.1342  0.4641
 8305TIP3    H146330   5.566   5.197   5.574 -0.1424 -1.1428  1.2124
 8305TIP3    H246331   5.695   5.276   5.582 -1.0230  0.5249 -0.5683
 8306TIP3   OH246332   4.169   0.030  16.852 -0.4652  0.3273 -0.1264
 8306TIP3    H146333   4.204  -0.032  16.915  0.7841  1.1433 -0.0026
 8306TIP3    H246334   4.187   0.116  16.890  0.7745  0.8436 -1.8388
 8307TIP3   OH246335   4.612   2.069   5.267  0.1061 -0.3378 -0.4035
 8307TIP3    H146336   4.518   2.077   5.285  0.2290  1.6364 -0.6102
 8307TIP3    H246337   4.617   2.054   5.173  0.0691  1.3105 -0.6834
 8308TIP3   OH246338   6.743   0.671  11.560 -0.0993  0.1988 -0.7270
 8308TIP3    H146339   6.725   0.577  11.566 -1.1966  0.4065 -0.7544
 8308TIP3    H246340   6.813   0.677  11.495  0.3313 -0.6398 -0.3562
 8309TIP3   OH246341   3.202   5.012   1.950 -0.1109  0.7733  0.1182
 8309TIP3    H146342   3.275   5.070   1.929  1.7324 -0.3360  2.9933
 8309TIP3    H246343   3.227   4.927   1.913  1.4464 -0.2764  3.3070
 8310TIP3   OH246344   0.148   4.656  14.004  0.3634 -0.2437  0.2173
 8310TIP3    H146345   0.215   4.646  13.937 -0.9959  0.7584 -1.3366
 8310TIP3    H246346   0.076   4.702  13.960 -0.6171  0.3207  2.3142
 8311TIP3   OH246347   0.209   4.948  14.300 -0.0368  0.1196  0.1315
 8311TIP3    H146348   0.187   4.938  14.208  0.2696  2.0318 -0.1742
 8311TIP3    H246349   0.125   4.964  14.343  0.2435  3.5548 -0.4757
 8312TIP3   OH246350   3.856   4.020   3.899  0.5642  0.0626 -0.2984
 8312TIP3    H146351   3.818   4.047   3.982 -3.2976  1.6894 -2.4331
 8312TIP3    H246352   3.825   3.930   3.886  1.0008 -0.1211 -0.0708
 8313TIP3   OH246353   2.160   4.408   2.822 -0.0748 -0.2737 -1.3083
 8313TIP3    H146354   2.176   4.318   2.796  0.5411 -0.6857  0.4775
 8313TIP3    H246355   2.237   4.433   2.873 -0.7768  0.8681 -0.7780
 8314TIP3   OH246356   5.324   4.693  16.607 -0.0736 -0.4645 -0.5590
 8314TIP3    H146357   5.253   4.705  16.543  1.2084 -0.7209 -2.0699
 8314TIP3    H246358   5.333   4.599  16.616  0.6351 -0.4438 -1.0178
 8315TIP3   OH246359   6.681   1.419   2.936  0.2363 -0.4147 -0.0640
 8315TIP3    H146360   6.604   1.444   2.884  0.5648 -1.1191 -0.9104
 8315TIP3    H246361   6.731   1.362   2.878  2.9413  2.4031 -0.6114
 8316TIP3   OH246362   1.839   3.580  10.737  0.2471 -0.6167 -0.1947
 8316TIP3    H146363   1.847   3.485  10.729  0.4871 -0.6983  1.0234
 8316TIP3    H246364   1.887   3.614  10.661  1.9799 -1.4162  0.5315
 8317TIP3   OH246365   1.054   6.331   4.291 -0.6492  0.4700 -0.1097
 8317TIP3    H146366   1.138   6.351   4.250 -0.7879 -0.9930 -1.1554
 8317TIP3    H246367   0.994   6.314   4.217 -1.6201  0.6012  0.6340
 8318TIP3   OH246368   2.016   3.443   0.942 -0.2570  0.6277  0.2393
 8318TIP3    H146369   1.956   3.419   0.871 -0.4801  0.4887  0.4759
 8318TIP3    H246370   1.997   3.381   1.012  1.8475 -0.9681 -0.5683
 8319TIP3   OH246371   5.681   4.109  16.114 -0.2934 -0.2603 -0.5422
 8319TIP3    H146372   5.642   4.072  16.035  0.0214 -0.4679 -0.6029
 8319TIP3    H246373   5.719   4.033  16.159 -1.0375 -0.2388  0.1339
 8320TIP3   OH246374   6.739   4.684  16.399 -0.3890 -0.2005  0.7486
 8320TIP3    H146375   6.675   4.697  16.328  0.4316 -0.3983 -0.0354
 8320TIP3    H246376   6.767   4.593  16.389 -0.0251 -0.1291  1.1198
 8321TIP3   OH246377   0.074   0.314   0.796 -0.4269  0.1888 -0.3258
 8321TIP3    H146378   0.167   0.309   0.774 -0.4001  1.8057 -0.6230
 8321TIP3    H246379   0.032   0.346   0.716 -1.2966 -0.9177 -0.3192
 8322TIP3   OH246380   0.344   0.242   5.994 -0.0385 -0.5437 -0.0124
 8322TIP3    H146381   0.255   0.275   5.997 -0.2803 -1.1149 -0.6983
 8322TIP3    H246382   0.372   0.239   6.085  0.2351  2.1699  0.0280
 8323TIP3   OH246383   3.489   1.718   3.799 -0.5213 -0.3806 -0.0276
 8323TIP3    H146384   3.444   1.656   3.856  0.2396  0.5038  1.5697
 8323TIP3    H246385   3.545   1.768   3.858 -0.1603  0.9538 -1.4793
 8324TIP3   OH246386   4.191   5.487  14.009  0.1341  0.4639 -0.0013
 8324TIP3    H146387   4.158   5.537  13.935 -1.0700 -0.0417  0.1802
 8324TIP3    H246388   4.154   5.399  13.997 -2.9273  1.2350  3.0008
 8325TIP3   OH246389   5.102   5.500   0.631  0.3502  1.1417  0.4861
 8325TIP3    H146390   5.104   5.427   0.568 -2.1007  0.4083  1.2264
 8325TIP3    H246391   5.122   5.577   0.578  1.0920  0.1858 -0.6636
 8326TIP3   OH246392   2.302   0.028   1.301  0.1312 -0.4222 -0.9998
 8326TIP3    H146393   2.217   0.057   1.268 -0.0196  0.3888  0.1005
 8326TIP3    H246394   2.358   0.105   1.293  0.0848 -0.2007  0.6602
 8327TIP3   OH246395   2.951   4.115  14.438  0.0742  0.1463  0.3458
 8327TIP3    H146396   2.898   4.166  14.376  0.6833  0.1933 -0.1336
 8327TIP3    H246397   3.018   4.176  14.468  0.5820 -0.2661  0.0472
 8328TIP3   OH246398   1.051   3.913  13.825 -0.0994  0.4539 -0.5165
 8328TIP3    H146399   1.034   3.981  13.760  1.5448  4.0159  2.6007
 8328TIP3    H246400   1.013   3.947  13.906  1.3346 -2.0322  1.2717
 8329TIP3   OH246401   0.877   0.263  16.205 -0.2617  0.3600  0.0995
 8329TIP3    H146402   0.956   0.212  16.220 -1.3732 -2.2142 -2.4018
 8329TIP3    H246403   0.908   0.353  16.196  2.0998 -0.2794  1.3743
 8330TIP3   OH246404   5.349   2.105  16.699  0.2115 -0.1237 -0.0145
 8330TIP3    H146405   5.415   2.102  16.768  1.5894  0.6279 -1.2455
 8330TIP3    H246406   5.367   2.028  16.645  0.0736  0.0563 -0.3239
 8331TIP3   OH246407   1.491   0.074  14.751  0.0502  0.1820  0.1381
 8331TIP3    H146408   1.541   0.144  14.793 -0.4065  0.8511 -0.4090
 8331TIP3    H246409   1.508   0.085  14.658 -0.3309 -0.1944  0.0229
 8332TIP3   OH246410   0.316   2.118  16.213  0.2489 -0.3495 -0.0032
 8332TIP3    H146411   0.259   2.079  16.280 -0.3665 -0.3607 -0.5289
 8332TIP3    H246412   0.365   2.044  16.178  0.3273 -0.3948  0.2006
 8333TIP3   OH246413   6.605   1.993  16.562 -0.3886 -0.0271  0.3399
 8333TIP3    H146414   6.617   2.058  16.630 -2.1033 -0.3520  0.9815
 8333TIP3    H246415   6.643   2.032  16.483  1.2779  0.4923  1.3900
 8334TIP3   OH246416   0.946   3.071  13.849  0.5133 -0.0382  0.5784
 8334TIP3    H146417   0.983   3.157  13.868 -0.3856  0.3290  0.7049
 8334TIP3    H246418   0.975   3.051  13.760  2.2906 -0.4508  1.2158
 8335TIP3   OH246419   0.071   3.926   0.716 -0.2579 -0.1500 -0.1528
 8335TIP3    H146420   0.139   3.992   0.707  1.0311 -1.6123 -1.5524
 8335TIP3    H246421   0.119   3.843   0.709 -2.0831 -1.2005 -0.2930
 8336TIP3   OH246422   2.718   2.580   0.972 -0.0724 -0.7976 -0.1763
 8336TIP3    H146423   2.771   2.503   0.954  0.9039 -0.1719 -0.0295
 8336TIP3    H246424   2.718   2.629   0.889  1.2689  0.1972  0.3816
 8337TIP3   OH246425   5.869   4.763   1.479  0.3884  0.3235  0.5755
 8337TIP3    H146426   5.961   4.791   1.470  0.5906 -0.5194 -0.0770
 8337TIP3    H246427   5.864   4.727   1.567  1.3482 -1.9721 -0.2667
 8338TIP3   OH246428   3.457   5.719   2.096  0.4309 -0.3735 -0.4069
 8338TIP3    H146429   3.365   5.743   2.088  0.6413  0.9740  1.0035
 8338TIP3    H246430   3.501   5.769   2.027  0.2458 -0.2063 -0.4050
 8339TIP3   OH246431   4.168   2.736  13.147  0.3099  0.0973  0.1217
 8339TIP3    H146432   4.107   2.663  13.133 -1.0442  0.7957  2.0927
 8339TIP3    H246433   4.123   2.813  13.113  0.4868  0.4627  0.6978
 8340TIP3   OH246434   6.055   1.107   2.287 -0.5579 -0.1643 -0.9280
 8340TIP3    H146435   6.143   1.144   2.283 -0.3729 -0.3974  0.7394
 8340TIP3    H246436   6.028   1.120   2.378 -2.1483 -0.3116 -1.3745
 8341TIP3   OH246437   2.934   4.998   5.157  0.1697 -0.4367 -0.2328
 8341TIP3    H146438   3.016   5.026   5.116  0.3870 -1.3001 -0.3905
 8341TIP3    H246439   2.867   5.015   5.090  0.3359 -0.5698 -0.4294
 8342TIP3   OH246440   2.800   3.482  13.978 -0.1084  0.2837 -0.6630
 8342TIP3    H146441   2.760   3.443  14.056 -0.8644  2.2067 -0.0711
 8342TIP3    H246442   2.883   3.518  14.009  0.8850 -1.3714 -1.3418
 8343TIP3   OH246443   4.678   6.698  15.912 -0.4153  0.2445  0.1162
 8343TIP3    H146444   4.625   6.698  15.832  0.3467  0.9922 -0.3961
 8343TIP3    H246445   4.768   6.693  15.881 -0.2107 -3.0442  1.0242
 8344TIP3   OH246446   4.773   2.951  11.824  0.5991 -0.0357 -0.6032
 8344TIP3    H146447   4.836   2.938  11.754  1.4640  1.0504 -0.0463
 8344TIP3    H246448   4.817   3.011  11.885 -1.2274  1.3179 -0.5628
 8345TIP3   OH246449   0.294   2.475  15.405 -0.1715  0.0379  0.5206
 8345TIP3    H146450   0.239   2.552  15.394 -0.5027 -0.3891 -0.9151
 8345TIP3    H246451   0.364   2.503  15.464  1.2043  2.2370 -2.0808
 8346TIP3   OH246452   2.590   5.928   5.447 -1.0171 -0.1767 -0.1918
 8346TIP3    H146453   2.583   5.868   5.522 -1.3320  0.3949  0.2415
 8346TIP3    H246454   2.500   5.947   5.424 -0.9196  0.7379  0.1645
 8347TIP3   OH246455   0.413   6.411  11.235 -0.3306 -0.0997 -0.5155
 8347TIP3    H146456   0.408   6.452  11.322  1.1220 -1.2269  0.1354
 8347TIP3    H246457   0.348   6.340  11.239  0.6550 -0.9792  0.1342
 8348TIP3   OH246458   3.348   4.797   1.846  1.0369 -0.0055 -0.3621
 8348TIP3    H146459   3.345   4.754   1.761 -0.9619 -0.8066  0.0725
 8348TIP3    H246460   3.397   4.878   1.831  1.7761 -0.7358 -1.9822
 8349TIP3   OH246461   5.236   2.159  14.291 -0.3054 -0.7135 -0.2371
 8349TIP3    H146462   5.170   2.227  14.276  0.3830 -0.0268 -0.1588
 8349TIP3    H246463   5.278   2.146  14.206  1.1784  0.6547  0.2705
 8350TIP3   OH246464   1.589   4.017   2.772 -0.1856  0.2063  0.1965
 8350TIP3    H146465   1.637   3.997   2.692  0.3605 -1.2109  0.8462
 8350TIP3    H246466   1.507   3.968   2.764 -1.3385  2.2498 -0.7025
 8351TIP3   OH246467   0.612   0.862   1.920 -0.2046 -0.4107 -0.2368
 8351TIP3    H146468   0.540   0.864   1.984  0.0842 -1.2696  0.1295
 8351TIP3    H246469   0.687   0.899   1.968 -0.6203  1.3767 -0.9215
 8352TIP3   OH246470   5.015   1.042  13.060 -0.5688 -0.2337 -0.0083
 8352TIP3    H146471   5.031   1.128  13.099  0.1219 -0.3948  0.0677
 8352TIP3    H246472   4.947   1.057  12.995  1.6180  0.9409 -2.1115
 8353TIP3   OH246473   0.829   5.145   2.429 -0.2977 -0.2827 -0.2469
 8353TIP3    H146474   0.876   5.197   2.364  1.8409  0.3968  1.8000
 8353TIP3    H246475   0.877   5.062   2.434  0.6048  0.3239  1.6802
 8354TIP3   OH246476   0.341   3.618  14.770  0.4010 -0.2351 -0.1826
 8354TIP3    H146477   0.298   3.703  14.768  0.6822 -0.1070 -1.4799
 8354TIP3    H246478   0.431   3.637  14.797  0.7375  0.0203 -1.4426
 8355TIP3   OH246479   4.319   2.233   4.116 -0.0223  0.7339 -0.1619
 8355TIP3    H146480   4.353   2.217   4.204  0.1981  0.0314 -0.3675
 8355TIP3    H246481   4.318   2.146   4.075 -3.6128  0.4277  0.4001
 8356TIP3   OH246482   3.607   3.642   0.936  0.1318  0.1769  0.4432
 8356TIP3    H146483   3.609   3.735   0.915  0.0993 -0.1252 -0.9683
 8356TIP3    H246484   3.521   3.613   0.908  0.2108 -0.3140  0.7118
 8357TIP3   OH246485   4.339   5.971   4.350  0.5555 -0.4969 -0.4109
 8357TIP3    H146486   4.359   5.879   4.335 -0.0071 -0.5844 -0.6014
 8357TIP3    H246487   4.315   6.005   4.264  0.0529 -0.3419 -0.2090
 8358TIP3   OH246488   3.052   4.118   4.402 -0.3781 -0.0115  0.0850
 8358TIP3    H146489   3.019   4.171   4.474  1.1624  1.3466 -0.1839
 8358TIP3    H246490   3.076   4.035   4.443  3.4201  1.8207  1.7725
 8359TIP3   OH246491   4.170   1.755  11.197  0.1903  0.1041  0.0540
 8359TIP3    H146492   4.141   1.668  11.171 -0.1835  0.2798 -0.1152
 8359TIP3    H246493   4.201   1.795  11.116  0.6840  0.0058  0.1896
 8360TIP3   OH246494   5.704   3.347   4.138  0.4579  0.3654  0.0866
 8360TIP3    H146495   5.671   3.437   4.140 -0.2999  0.0429  2.6547
 8360TIP3    H246496   5.654   3.305   4.068  0.3820  1.7431 -0.7151
 8361TIP3   OH246497   1.505   5.393   1.020  0.7266 -0.0863 -0.6268
 8361TIP3    H146498   1.592   5.433   1.014  0.8281 -0.3289 -0.7667
 8361TIP3    H246499   1.466   5.408   0.934  1.3825 -1.7089 -1.2371
 8362TIP3   OH246500   0.106   0.332  13.997  0.1050  0.4396  0.0691
 8362TIP3    H146501   0.121   0.307  13.906 -0.2146  1.8347 -0.3812
 8362TIP3    H246502   0.164   0.407  14.011  0.5385 -0.0945  1.1769
 8363TIP3   OH246503   4.922   1.830   5.080  0.7371  0.0568 -0.2662
 8363TIP3    H146504   4.833   1.852   5.052  1.2369  0.7542 -1.3513
 8363TIP3    H246505   4.937   1.742   5.046 -0.0480 -0.6578  1.1738
 8364TIP3   OH246506   5.215   6.142   5.165  0.2398 -0.0799  0.5458
 8364TIP3    H146507   5.214   6.048   5.147  0.0814  0.4951 -2.6929
 8364TIP3    H246508   5.197   6.183   5.080  0.5438  2.8887  1.8595
 8365TIP3   OH246509   4.320   0.854   2.624  0.0973 -0.6651  0.5327
 8365TIP3    H146510   4.308   0.948   2.638 -0.0589 -0.3935 -1.3202
 8365TIP3    H246511   4.237   0.824   2.588 -0.7150 -2.0195  3.3374
 8366TIP3   OH246512   4.839   1.165  11.051  0.0774  0.3188  0.1185
 8366TIP3    H146513   4.873   1.163  10.962 -0.8931 -1.1733 -0.2423
 8366TIP3    H246514   4.893   1.229  11.096  0.3939  1.2926 -1.6107
 8367TIP3   OH246515   4.982   6.636   3.055  0.2020 -0.1372 -0.1824
 8367TIP3    H146516   4.951   6.710   3.002  0.3761 -0.0348 -0.1450
 8367TIP3    H246517   4.909   6.616   3.113  0.0278 -0.2162 -0.4259
 8368TIP3   OH246518   1.489   2.079   2.481 -0.2808  0.8069  0.2471
 8368TIP3    H146519   1.569   2.130   2.471  0.0385  0.0269 -1.3362
 8368TIP3    H246520   1.515   2.006   2.538 -0.1651  1.1479  0.6407
 8369TIP3   OH246521   4.002   1.817  16.267 -0.4285  0.7207 -0.1813
 8369TIP3    H146522   4.055   1.857  16.198  1.4900 -1.4296 -0.0270
 8369TIP3    H246523   4.033   1.858  16.348  0.4961  0.0514 -0.1793
 8370TIP3   OH246524   3.776   0.567  12.519  0.3656 -0.4386  0.0199
 8370TIP3    H146525   3.867   0.552  12.493  0.4446  0.2147 -0.0746
 8370TIP3    H246526   3.729   0.491  12.486  0.5724  0.0789 -1.4781
 8371TIP3   OH246527   6.271   2.284   6.216 -0.6117 -0.1300 -0.0836
 8371TIP3    H146528   6.202   2.218   6.219 -0.4292 -0.2830  0.7690
 8371TIP3    H246529   6.334   2.257   6.282  0.7118 -0.4553 -1.4596
 8372TIP3   OH246530   1.707   0.497   3.457 -0.0013 -0.2937 -1.0244
 8372TIP3    H146531   1.652   0.428   3.495 -2.4015  1.7153 -0.7030
 8372TIP3    H246532   1.721   0.558   3.529  2.8502 -0.8376 -1.0721
 8373TIP3   OH246533   3.169   1.568  14.078 -0.3189 -0.4536 -0.2563
 8373TIP3    H146534   3.192   1.499  14.139 -0.0746 -0.0122  0.1533
 8373TIP3    H246535   3.176   1.649  14.129  0.1274 -0.0654 -0.9233
 8374TIP3   OH246536   2.823   1.033   0.107 -0.2413 -1.0226  0.3278
 8374TIP3    H146537   2.794   1.059   0.020  0.6099 -0.8509  0.0976
 8374TIP3    H246538   2.890   0.967   0.092 -0.0181 -0.9218  0.8487
 8375TIP3   OH246539   4.330   4.110  10.911  0.3404 -0.1195 -0.4412
 8375TIP3    H146540   4.281   4.138  10.988 -0.4485 -0.1263 -0.9253
 8375TIP3    H246541   4.347   4.191  10.862  0.5268 -0.1534 -0.4314
 8376TIP3   OH246542   2.602   6.409  13.493 -0.4507 -0.1190 -0.4176
 8376TIP3    H146543   2.570   6.354  13.564 -0.4426  1.4727  0.8586
 8376TIP3    H246544   2.587   6.498  13.524  0.2967  0.5996 -2.0837
 8377TIP3   OH246545   2.968   4.885  12.069  0.1507 -0.0192 -0.0081
 8377TIP3    H146546   2.887   4.934  12.082 -1.4501 -1.5865 -3.4438
 8377TIP3    H246547   2.941   4.793  12.069  2.1034 -0.6134 -0.0050
 8378TIP3   OH246548   0.101   1.994  15.622  0.0405  0.4606  0.8570
 8378TIP3    H146549   0.067   1.951  15.700 -0.0891 -0.7859  0.1329
 8378TIP3    H246550   0.182   1.947  15.603 -0.0536  0.6000  0.1061
 8379TIP3   OH246551   2.025   4.625   6.772 -0.2509  0.1534  0.0215
 8379TIP3    H146552   2.099   4.607   6.713 -0.5155  1.3555 -0.7018
 8379TIP3    H246553   1.960   4.558   6.750  1.1126 -1.7315  1.5761
 8380TIP3   OH246554   1.248   1.857   2.680  0.3971 -0.2864 -0.3624
 8380TIP3    H146555   1.224   1.776   2.725  1.3257 -0.9782 -1.0998
 8380TIP3    H246556   1.245   1.835   2.587 -2.1437  1.2994 -0.7212
 8381TIP3   OH246557   3.636   5.615  14.119 -0.0799 -0.0863  0.0930
 8381TIP3    H146558   3.629   5.634  14.213  0.4801 -0.7877  0.2793
 8381TIP3    H246559   3.586   5.534  14.107  0.1750 -0.2102 -0.1401
 8382TIP3   OH246560   1.616   1.985   0.474  0.4580  0.3127  0.1644
 8382TIP3    H146561   1.683   1.951   0.413  0.6753  1.5075 -0.2668
 8382TIP3    H246562   1.645   2.073   0.494 -1.2591  1.0243 -0.4111
 8383TIP3   OH246563   4.920   0.481  11.179  0.1428  0.2195  0.2568
 8383TIP3    H146564   4.883   0.524  11.256 -0.8307 -0.4072  0.1433
 8383TIP3    H246565   5.012   0.509  11.178 -0.1071  1.0892  1.0277
 8384TIP3   OH246566   2.489   1.487  14.408 -0.1111 -0.5284  0.2428
 8384TIP3    H146567   2.561   1.468  14.347 -0.9875 -0.2844 -0.8854
 8384TIP3    H246568   2.414   1.503  14.352 -0.4732  1.7467  1.2955
 8385TIP3   OH246569   6.147   3.771   5.059  0.0315 -0.8186 -0.2920
 8385TIP3    H146570   6.105   3.788   4.974 -1.1370 -0.9200  0.2589
 8385TIP3    H246571   6.110   3.837   5.117  2.5189  0.7111 -0.3745
 8386TIP3   OH246572   6.347   1.235  14.423  0.0748 -0.2396 -0.2318
 8386TIP3    H146573   6.427   1.201  14.463 -0.7691 -1.9277  0.0596
 8386TIP3    H246574   6.311   1.161  14.374 -1.2601  0.5275 -0.4337
 8387TIP3   OH246575   0.805   3.914  12.009 -0.0329  0.0639 -0.2705
 8387TIP3    H146576   0.840   3.985  12.061 -1.2321  0.3276  0.1959
 8387TIP3    H246577   0.711   3.915  12.026 -0.2086 -0.9615 -1.0701
 8388TIP3   OH246578   1.310   1.309  12.276  0.0139  0.5009 -0.0210
 8388TIP3    H146579   1.330   1.322  12.369  0.6885  1.4342 -0.2865
 8388TIP3    H246580   1.321   1.215  12.262  0.7077  0.4692  0.6676
 8389TIP3   OH246581   3.580   6.257  12.509 -0.6605  0.6791  0.5966
 8389TIP3    H146582   3.573   6.306  12.426  0.7766  0.4350  0.3151
 8389TIP3    H246583   3.564   6.166  12.484 -2.1065  0.8235  0.9211
 8390TIP3   OH246584   2.316   0.901  16.850  0.1731  0.3122 -0.1746
 8390TIP3    H146585   2.354   0.813  16.847  0.5272  0.4516  0.1580
 8390TIP3    H246586   2.372   0.949  16.911  0.6912  1.1012 -1.2550
 8391TIP3   OH246587   4.366   5.508   2.152 -0.1133  0.3064 -0.3441
 8391TIP3    H146588   4.453   5.476   2.127 -0.6346 -0.1629 -1.6213
 8391TIP3    H246589   4.365   5.503   2.248  1.4795  0.9035 -0.2924
 8392TIP3   OH246590   5.148   0.050  13.339 -0.0740  0.1275  0.1630
 8392TIP3    H146591   5.080   0.087  13.283 -1.7122  0.7877  2.4889
 8392TIP3    H246592   5.216   0.117  13.341 -0.9150  0.9902  0.5553
 8393TIP3   OH246593   0.120   0.182  10.271  0.0144  0.2055  0.5802
 8393TIP3    H146594   0.160   0.121  10.209  1.0698  0.6806  0.7730
 8393TIP3    H246595   0.026   0.171  10.259  0.2081  0.8785 -1.7054
 8394TIP3   OH246596   5.428   2.188   5.055  0.4676 -0.0667  0.0822
 8394TIP3    H146597   5.434   2.104   5.010 -3.6020  1.9243 -4.5708
 8394TIP3    H246598   5.367   2.171   5.128  1.0156 -1.5347  0.2197
 8395TIP3   OH246599   5.028   5.611  10.741  0.0442 -0.0239  0.2278
 8395TIP3    H146600   4.935   5.631  10.733  0.2413  0.4331 -1.0359
 8395TIP3    H246601   5.047   5.555  10.665  0.6858 -0.5445  0.7626
 8396TIP3   OH246602   1.411   1.798   6.473  0.3510 -0.1788  0.0216
 8396TIP3    H146603   1.433   1.887   6.446  0.5778 -0.0659  0.5695
 8396TIP3    H246604   1.315   1.798   6.480  0.2658 -0.3083 -1.1097
 8397TIP3   OH246605   6.005   1.885  11.458 -0.5607 -0.0015  0.0349
 8397TIP3    H146606   5.998   1.867  11.552 -1.4639 -0.5207 -0.1307
 8397TIP3    H246607   6.100   1.887  11.442 -0.4049 -1.1351  0.7300
 8398TIP3   OH246608   1.236   2.232   6.810 -0.2801  0.1380  0.5770
 8398TIP3    H146609   1.317   2.196   6.846  1.1450  2.4024 -0.2814
 8398TIP3    H246610   1.187   2.261   6.887  1.1603  1.6667  0.9443
 8399TIP3   OH246611   1.037   0.174   4.867  0.0233 -0.1058  0.4729
 8399TIP3    H146612   1.115   0.175   4.923 -0.0877  0.6234  0.6232
 8399TIP3    H246613   1.069   0.207   4.783 -0.1870  0.4634  0.6182
 8400TIP3   OH246614   2.141   2.083  11.268 -0.6484  0.6282  1.0045
 8400TIP3    H146615   2.178   2.147  11.208  0.9451 -0.4976  0.7341
 8400TIP3    H246616   2.079   2.132  11.322 -2.1646  1.6370 -1.5893
 8401TIP3   OH246617   4.915   2.246  11.717  0.0140 -0.3605  0.2189
 8401TIP3    H146618   4.977   2.235  11.789 -1.5161  1.1379  1.8103
 8401TIP3    H246619   4.850   2.178  11.731 -0.4093  0.0774  0.4070
 8402TIP3   OH246620   2.134   6.589   4.680  0.1546  0.3395  0.6778
 8402TIP3    H146621   2.229   6.576   4.677  0.8556  4.6700  0.3723
 8402TIP3    H246622   2.108   6.558   4.767  2.3155  1.6520  1.8279
 8403TIP3   OH246623   1.028   4.192  16.195 -0.1081  0.3584 -0.3517
 8403TIP3    H146624   1.055   4.239  16.116 -0.8737  1.1242 -0.1594
 8403TIP3    H246625   1.011   4.260  16.260 -0.1447 -0.2326  0.2741
 8404TIP3   OH246626   2.810   1.352  14.112 -0.2699 -0.5893  0.4730
 8404TIP3    H146627   2.742   1.296  14.149  1.4287 -1.7783  1.9371
 8404TIP3    H246628   2.881   1.349  14.177  1.0644  0.8043 -0.8762
 8405TIP3   OH246629   1.103   3.393   1.348 -0.0128  0.1305  0.2919
 8405TIP3    H146630   1.174   3.441   1.305  1.9095 -0.6881  2.4371
 8405TIP3    H246631   1.071   3.454   1.416 -3.2366  1.5457 -2.3146
 8406TIP3   OH246632   0.974   0.642   3.276 -0.3218 -0.2636  0.3106
 8406TIP3    H146633   0.922   0.684   3.208 -0.7585 -1.7409 -0.2861
 8406TIP3    H246634   0.932   0.557   3.290  0.8424 -0.7259  1.1274
 8407TIP3   OH246635   5.010   3.926  16.555  0.3628 -0.0428 -0.0396
 8407TIP3    H146636   4.946   3.909  16.486  0.8074  0.7843 -0.6684
 8407TIP3    H246637   5.027   3.840  16.594 -1.7468 -0.1465  0.7004
 8408TIP3   OH246638   6.281   0.768  15.465 -0.7205  0.4107  0.4088
 8408TIP3    H146639   6.213   0.770  15.532 -2.1139 -0.1593 -0.9805
 8408TIP3    H246640   6.287   0.858  15.434 -2.2763  0.0831 -0.8839
 8409TIP3   OH246641   2.959   5.870   5.957  0.6387  0.0237  0.0111
 8409TIP3    H146642   2.993   5.948   6.001 -0.6352  0.7159 -0.2100
 8409TIP3    H246643   2.893   5.903   5.896  0.5207 -1.1711 -0.5292
 8410TIP3   OH246644   6.205   3.649  13.740  0.1967 -0.0535  1.1789
 8410TIP3    H146645   6.278   3.589  13.754 -0.3278 -1.0006 -0.0805
 8410TIP3    H246646   6.175   3.670  13.828  1.8061  0.1454  1.7087
 8411TIP3   OH246647   1.984   2.075  14.706  0.0969 -0.2314 -0.0396
 8411TIP3    H146648   1.936   2.065  14.624  0.8611  0.8010 -0.6300
 8411TIP3    H246649   1.940   2.148  14.750  0.4756  0.0390 -0.1095
 8412TIP3   OH246650   4.666   3.234   2.279  0.9138 -0.4492 -0.1212
 8412TIP3    H146651   4.690   3.256   2.370 -0.7335 -0.4151  0.3116
 8412TIP3    H246652   4.748   3.206   2.239  1.8334  0.3805  1.1358
 8413TIP3   OH246653   3.678   4.539   4.102 -0.4905  0.0710  0.0076
 8413TIP3    H146654   3.693   4.584   4.018  0.1660 -0.1226  0.0184
 8413TIP3    H246655   3.594   4.573   4.133 -0.7374  0.1362 -0.7340
 8414TIP3   OH246656   5.734   6.568   2.298  0.2406 -0.3519  0.8434
 8414TIP3    H146657   5.809   6.616   2.264  1.7243 -2.5413  1.0097
 8414TIP3    H246658   5.670   6.637   2.321  1.0043  1.3645 -2.0319
 8415TIP3   OH246659   6.726   0.023  16.832 -0.4410  0.1323  0.3391
 8415TIP3    H146660   6.632   0.039  16.819 -0.0021  1.4322 -1.4503
 8415TIP3    H246661   6.753   0.092  16.892 -0.5238  0.0577  0.4637
 8416TIP3   OH246662   1.912   5.729   1.983 -0.1528  0.7176  0.3150
 8416TIP3    H146663   2.003   5.704   1.996 -0.1168 -0.2958 -1.6213
 8416TIP3    H246664   1.916   5.807   1.928 -0.4084  1.9273  1.9961
 8417TIP3   OH246665   2.561   6.658  13.629 -0.1486 -0.2608  0.1636
 8417TIP3    H146666   2.579   6.626  13.718  0.0604  0.6530  0.4529
 8417TIP3    H246667   2.525   6.745  13.642  1.0249  0.3631 -0.7050
 8418TIP3   OH246668   6.450   1.067  10.328  0.2149 -0.2980  0.0278
 8418TIP3    H146669   6.359   1.067  10.359  0.2233 -1.1948  0.0726
 8418TIP3    H246670   6.464   1.155  10.293 -0.8405 -0.3201 -0.4621
 8419TIP3   OH246671   0.984   5.526  13.961  0.0610  0.1398 -0.3489
 8419TIP3    H146672   0.964   5.579  13.884  0.3882  0.1144 -0.4523
 8419TIP3    H246673   0.902   5.523  14.010  0.0549  0.7909 -0.3121
 8420TIP3   OH246674   1.036   0.338  11.298  0.4271  0.3162 -0.4745
 8420TIP3    H146675   1.081   0.338  11.214 -0.4931 -2.0727 -1.0192
 8420TIP3    H246676   1.088   0.280  11.353  1.3434  2.3189  0.8121
 8421TIP3   OH246677   0.969   2.983  11.255 -0.4566  0.0547  0.4062
 8421TIP3    H146678   1.034   2.937  11.309 -0.7478  1.5988  2.0851
 8421TIP3    H246679   1.022   3.030  11.190 -0.0038 -0.1952  0.5908
 8422TIP3   OH246680   5.934   6.142  15.685 -0.4613 -0.1504  0.2055
 8422TIP3    H146681   5.895   6.126  15.599  0.1916  3.0218 -0.7270
 8422TIP3    H246682   5.859   6.143  15.745 -1.3543  1.3326 -0.8975
 8423TIP3   OH246683   6.011   6.424   2.364  0.1318 -0.2868  0.2260
 8423TIP3    H146684   6.056   6.459   2.287  0.1223 -2.1306 -0.6471
 8423TIP3    H246685   5.918   6.432   2.342  0.0924  0.6291  0.7109
 8424TIP3   OH246686   2.847   3.907   2.392 -0.3779 -0.2276 -0.2731
 8424TIP3    H146687   2.859   4.001   2.379  0.9703 -0.2315  0.8059
 8424TIP3    H246688   2.756   3.898   2.421  0.2145  1.0437  2.1026
 8425TIP3   OH246689   5.563   4.364   0.011 -0.3528  0.5835  0.4424
 8425TIP3    H146690   5.603   4.429   0.070 -0.9668  2.1070 -0.7837
 8425TIP3    H246691   5.504   4.314   0.067  0.2343  0.9831  1.4393
 8426TIP3   OH246692   0.310   5.469   2.114  0.0826  0.4453  0.5899
 8426TIP3    H146693   0.269   5.426   2.188  0.2046  0.8968  0.9225
 8426TIP3    H246694   0.363   5.401   2.073 -0.8278 -0.0847  0.2799
 8427TIP3   OH246695   5.840   1.439   4.743 -0.1509  0.0295  0.2824
 8427TIP3    H146696   5.873   1.401   4.824 -0.2636 -1.9745 -0.5899
 8427TIP3    H246697   5.824   1.364   4.686 -1.0999  1.3393 -1.2140
 8428TIP3   OH246698   0.497   1.544   5.938  0.2363 -0.1422 -0.3249
 8428TIP3    H146699   0.514   1.623   5.988 -2.4796 -0.2330  0.8249
 8428TIP3    H246700   0.445   1.574   5.863 -0.0842 -0.7201 -0.3366
 8429TIP3   OH246701   1.506   3.356  15.425  0.3167  0.0390 -0.2002
 8429TIP3    H146702   1.444   3.333  15.495 -1.9235  1.7673 -1.5464
 8429TIP3    H246703   1.519   3.275  15.376 -0.5791 -0.4284  0.3342
 8430TIP3   OH246704   6.633   0.983  13.755 -0.1984 -0.6832 -0.0550
 8430TIP3    H146705   6.677   0.907  13.716 -0.6230 -0.5121 -0.8648
 8430TIP3    H246706   6.696   1.055  13.744  0.2327 -0.9223  0.7734
 8431TIP3   OH246707   2.529   6.220  17.142 -0.5834 -0.0755 -0.4533
 8431TIP3    H146708   2.589   6.199  17.214  0.0497  0.8589 -0.6935
 8431TIP3    H246709   2.449   6.250  17.185 -0.9045 -1.3833 -0.1249
 8432TIP3   OH246710   6.497   6.227  15.135  0.1517 -0.0031 -0.5815
 8432TIP3    H146711   6.481   6.281  15.058 -0.9642  1.4482  0.6363
 8432TIP3    H246712   6.457   6.275  15.207  1.5316 -1.1272  0.9854
 8433TIP3   OH246713   1.596   6.088  10.373 -0.8968  0.2765  1.2793
 8433TIP3    H146714   1.644   6.036  10.437  1.6748  1.0429  0.0197
 8433TIP3    H246715   1.645   6.171  10.368 -0.0661 -0.3723 -2.8500
 8434TIP3   OH246716   4.543   0.501   5.062  0.2640 -0.4992  0.4761
 8434TIP3    H146717   4.609   0.569   5.053 -1.9819  1.5704 -1.0583
 8434TIP3    H246718   4.491   0.507   4.982 -0.7063 -3.2571  0.8377
 8435TIP3   OH246719   0.335   3.349  13.833 -0.0446 -0.5008  0.0200
 8435TIP3    H146720   0.394   3.369  13.761 -1.2675 -0.4236 -0.9825
 8435TIP3    H246721   0.247   3.360  13.796 -0.6899  0.3121  1.7329
 8436TIP3   OH246722   4.408   4.043   4.514 -0.2255  0.2103 -0.3909
 8436TIP3    H146723   4.503   4.054   4.512 -0.4500  2.6336  0.7953
 8436TIP3    H246724   4.383   4.037   4.421  1.3357 -3.2983 -0.6496
 8437TIP3   OH246725   4.948   3.471  15.334  0.2559 -0.2335  0.0223
 8437TIP3    H146726   5.035   3.459  15.295  0.4361 -1.1654  0.7083
 8437TIP3    H246727   4.896   3.398  15.300 -1.3495  2.2918 -3.3411
 8438TIP3   OH246728   2.845   2.052   2.801 -0.3687  0.6517  0.3881
 8438TIP3    H146729   2.783   2.112   2.843 -1.6350  0.1743 -0.7489
 8438TIP3    H246730   2.792   1.975   2.780  1.0045 -0.4437  0.8919
 8439TIP3   OH246731   4.230   0.082   3.314  0.2607  0.2747  0.5252
 8439TIP3    H146732   4.320   0.095   3.283 -0.3745  2.1892 -0.6393
 8439TIP3    H246733   4.223  -0.012   3.331  1.6198 -0.3692 -2.1568
 8440TIP3   OH246734   2.950   5.225   3.373  0.0357 -0.0851 -0.1844
 8440TIP3    H146735   3.021   5.190   3.427 -0.5348 -1.3880 -0.2571
 8440TIP3    H246736   2.873   5.225   3.430 -0.1370  0.3099 -0.4193
 8441TIP3   OH246737   0.792   3.260  12.405 -0.5708  0.6115 -0.3437
 8441TIP3    H146738   0.788   3.355  12.399 -1.0735  0.6295  0.1547
 8441TIP3    H246739   0.750   3.228  12.325 -1.6874  0.8128  0.1602
 8442TIP3   OH246740   6.609   1.202   5.079 -0.2728 -0.2753  0.7313
 8442TIP3    H146741   6.527   1.153   5.070 -0.0123 -0.7327  0.8320
 8442TIP3    H246742   6.671   1.139   5.114  0.2374 -0.0435  0.2607
 8443TIP3   OH246743   4.708   0.686   5.961 -0.0990  0.0752 -0.4681
 8443TIP3    H146744   4.712   0.617   6.028 -0.1034 -0.3558 -0.9141
 8443TIP3    H246745   4.791   0.732   5.969 -0.0325 -0.0790 -0.2736
 8444TIP3   OH246746   3.690   6.359   6.115  0.5186 -0.3009  0.1777
 8444TIP3    H146747   3.730   6.300   6.179 -0.3750 -0.7643  0.3166
 8444TIP3    H246748   3.598   6.364   6.141  0.8643  2.2337  0.9557
 8445TIP3   OH246749   3.717   4.639  13.341  0.4107  0.3572  0.4145
 8445TIP3    H146750   3.778   4.698  13.295 -1.0337  1.5329 -0.0158
 8445TIP3    H246751   3.631   4.661  13.305 -0.2741 -1.3124  1.0112
 8446TIP3   OH246752   4.335   5.897  16.575 -0.3639  0.0793  0.5185
 8446TIP3    H146753   4.362   5.988  16.568  0.5394 -0.1458  1.0285
 8446TIP3    H246754   4.278   5.895  16.652  0.0050  0.1252  0.7941
 8447TIP3   OH246755   3.980   5.600   2.887  0.5401 -0.8313 -0.1688
 8447TIP3    H146756   3.954   5.669   2.827  1.1787 -0.4564 -0.0138
 8447TIP3    H246757   4.029   5.645   2.956 -0.1289 -1.2550  0.6089
 8448TIP3   OH246758   4.513   5.320   0.102  0.4985 -0.6366  0.4343
 8448TIP3    H146759   4.457   5.276   0.037 -0.4872 -0.1710  0.9545
 8448TIP3    H246760   4.518   5.259   0.175 -0.4515 -0.1168  0.9454
 8449TIP3   OH246761   5.257   3.774   4.858 -0.1419 -0.1100 -0.6069
 8449TIP3    H146762   5.346   3.743   4.847  1.5379  3.6930  1.1547
 8449TIP3    H246763   5.241   3.829   4.781 -0.4335  0.3750 -0.2010
 8450TIP3   OH246764   5.315   0.267   3.810 -0.5072 -0.3273  0.2044
 8450TIP3    H146765   5.323   0.283   3.716  1.9661  0.2489  0.4727
 8450TIP3    H246766   5.250   0.197   3.817 -0.6422 -0.4474 -1.9384
 8451TIP3   OH246767   4.572   2.658   5.847 -0.3567  0.0461  0.2841
 8451TIP3    H146768   4.547   2.643   5.938  0.3564  1.6576  0.7660
 8451TIP3    H246769   4.665   2.638   5.844 -0.3422  0.1520 -0.0510
 8452TIP3   OH246770   3.031   6.766  16.548  0.5861  0.0059 -0.0349
 8452TIP3    H146771   3.049   6.713  16.470 -0.6927  1.2762 -1.2280
 8452TIP3    H246772   3.029   6.856  16.515  1.7238  0.7114  1.7815
 8453TIP3   OH246773   4.304   0.285  10.966 -0.1182  0.1625 -0.3817
 8453TIP3    H146774   4.224   0.274  10.914  0.2333 -1.8618 -0.5295
 8453TIP3    H246775   4.281   0.251  11.053  0.7200 -0.8755 -0.5602
 8454TIP3   OH246776   1.540   3.208  13.653 -0.2148 -0.0791  0.3851
 8454TIP3    H146777   1.534   3.177  13.562 -0.0282 -0.4742  0.5056
 8454TIP3    H246778   1.581   3.294  13.647 -0.1862 -0.1133  0.0943
 8455TIP3   OH246779   1.031   0.557  12.528  0.1616 -0.7046  0.1848
 8455TIP3    H146780   1.111   0.517  12.493  0.4762  0.2998 -0.2557
 8455TIP3    H246781   1.043   0.651  12.513  0.0811 -0.2903  2.5203
 8456TIP3   OH246782   5.482   0.429   2.919 -0.3242 -0.2473 -0.6519
 8456TIP3    H146783   5.554   0.451   2.860  1.2975  1.7497  1.9853
 8456TIP3    H246784   5.424   0.504   2.915  0.0271  0.0977  0.6372
 8457TIP3   OH246785   5.651   1.334   4.313  0.6658 -0.5496 -0.0696
 8457TIP3    H146786   5.673   1.243   4.296  2.2429  0.1143 -1.7936
 8457TIP3    H246787   5.596   1.359   4.239  0.5825  0.0174  0.1806
 8458TIP3   OH246788   1.659   2.440  16.650  0.1516 -0.4019 -0.3165
 8458TIP3    H146789   1.727   2.393  16.601  0.6519  0.2431 -0.2487
 8458TIP3    H246790   1.693   2.444  16.739  1.5966  2.8386 -0.9421
 8459TIP3   OH246791   6.548   1.782  11.645  0.2711 -0.2255 -0.1528
 8459TIP3    H146792   6.460   1.759  11.675  0.6244 -0.3265  0.7988
 8459TIP3    H246793   6.569   1.715  11.580 -0.7490  0.3647 -1.1268
 8460TIP3   OH246794   3.165   0.670   4.545  0.0251 -0.3176 -0.1922
 8460TIP3    H146795   3.105   0.720   4.490  0.9085 -0.0551 -0.9352
 8460TIP3    H246796   3.238   0.649   4.487 -0.2436 -2.3328  0.1546
 8461TIP3   OH246797   0.802   2.619  13.163 -0.0362  0.2657 -0.5446
 8461TIP3    H146798   0.807   2.556  13.236 -0.3233 -0.4038 -1.1013
 8461TIP3    H246799   0.760   2.696  13.201  1.3127  0.5439  0.4325
 8462TIP3   OH246800   0.541   2.176  16.482 -0.4674 -0.1456  0.2562
 8462TIP3    H146801   0.574   2.090  16.508  0.5486 -0.7407 -2.7576
 8462TIP3    H246802   0.446   2.170  16.492 -0.2590 -1.0024  1.7712
 8463TIP3   OH246803   3.756   0.548   2.494 -0.4721  0.7299  0.2110
 8463TIP3    H146804   3.810   0.485   2.445 -1.7274  0.6806 -1.1302
 8463TIP3    H246805   3.735   0.503   2.575 -0.3247 -0.1069 -0.2082
 8464TIP3   OH246806   3.821   4.814   5.445  0.0513  0.6081 -0.7720
 8464TIP3    H146807   3.758   4.841   5.377  0.1272 -0.8490 -1.4378
 8464TIP3    H246808   3.905   4.848   5.414  0.1633 -0.4313 -1.6550
 8465TIP3   OH246809   0.306   5.304   6.140  0.4955  0.1503 -0.5818
 8465TIP3    H146810   0.223   5.307   6.091  0.6706 -0.8336 -0.9644
 8465TIP3    H246811   0.373   5.315   6.072  0.7215 -0.5709 -0.4745
 8466TIP3   OH246812   5.666   1.683   4.626  0.2598  0.1354  0.2162
 8466TIP3    H146813   5.754   1.651   4.609  0.6097  1.6644 -1.0103
 8466TIP3    H246814   5.674   1.779   4.625 -1.1692  0.3025  1.4420
 8467TIP3   OH246815   6.726   3.377  13.185 -0.2635  0.3063 -0.1296
 8467TIP3    H146816   6.662   3.319  13.227 -1.7623  1.4571 -0.7701
 8467TIP3    H246817   6.811   3.342  13.211 -1.1398 -1.9709 -0.2271
 8468TIP3   OH246818   2.907   1.366   5.581  0.1091 -0.1494 -0.7043
 8468TIP3    H146819   2.864   1.296   5.631 -4.3038  0.3982 -3.4511
 8468TIP3    H246820   2.894   1.445   5.633  1.5070 -0.6915  0.4740
 8469TIP3   OH246821   0.381   1.797  10.915 -0.2052 -0.1826  0.0266
 8469TIP3    H146822   0.453   1.735  10.903 -0.9422 -1.1999  0.7580
 8469TIP3    H246823   0.386   1.822  11.007 -2.7480 -2.7933  0.9554
 8470TIP3   OH246824   5.635   0.457   2.682 -0.2263 -0.3158 -0.0276
 8470TIP3    H146825   5.671   0.544   2.700  2.2609 -1.3053 -0.0918
 8470TIP3    H246826   5.591   0.466   2.597 -1.0087  1.1411  0.5063
 8471TIP3   OH246827   1.098   6.434   1.270  0.4455  0.1216  0.3060
 8471TIP3    H146828   1.069   6.481   1.348  2.4141  0.9454  0.5563
 8471TIP3    H246829   1.185   6.469   1.251  1.1231 -2.0004 -0.6659
 8472TIP3   OH246830   5.389   3.648  14.546  0.2739  0.0842 -0.2096
 8472TIP3    H146831   5.337   3.700  14.607 -1.1425  0.9263 -2.0812
 8472TIP3    H246832   5.418   3.572  14.596 -3.3111 -0.7297  0.7067
 8473TIP3   OH246833   4.115   0.888   0.457 -0.6458  0.5224  0.3685
 8473TIP3    H146834   4.122   0.841   0.540 -0.7671  1.0191  0.6642
 8473TIP3    H246835   4.203   0.923   0.442 -0.7402  0.8353  0.5329
 8474TIP3   OH246836   3.483   0.573   0.583  0.5576  0.0226  0.4584
 8474TIP3    H146837   3.395   0.537   0.594  0.8137 -0.7720 -0.0460
 8474TIP3    H246838   3.472   0.668   0.590 -0.0959 -0.1556  2.0518
 8475TIP3   OH246839   2.991   0.606  16.205 -0.4380 -0.3542  0.3225
 8475TIP3    H146840   3.070   0.648  16.239 -0.4387  1.2745 -1.6525
 8475TIP3    H246841   2.942   0.580  16.284 -0.1069  2.7142  1.6022
 8476TIP3   OH246842   4.366   1.102  13.706 -0.1565 -0.0183  0.7047
 8476TIP3    H146843   4.419   1.027  13.734  0.8961 -0.3775 -2.0341
 8476TIP3    H246844   4.321   1.071  13.628  0.0404  2.0829 -0.2820
 8477TIP3   OH246845   1.352   2.959   2.058 -0.2660 -0.2292  0.3945
 8477TIP3    H146846   1.318   2.892   1.999  0.2620 -1.4128  1.4085
 8477TIP3    H246847   1.422   2.915   2.106 -0.0737  0.9854  1.2355
 8478TIP3   OH246848   3.390   0.145  15.675  0.2267 -0.0696 -0.2095
 8478TIP3    H146849   3.304   0.111  15.650 -0.4178  0.9362  0.5753
 8478TIP3    H246850   3.405   0.109  15.763 -0.3374  1.4193  0.5093
 8479TIP3   OH246851   5.071   0.191   2.167  0.0494  0.2787  0.1724
 8479TIP3    H146852   5.017   0.127   2.120  1.6510 -0.3850 -0.8026
 8479TIP3    H246853   5.156   0.147   2.177  0.7386  1.7230  0.7062
 8480TIP3   OH246854   3.374   4.206  14.304  0.0298  0.4474  0.3171
 8480TIP3    H146855   3.411   4.171  14.385 -1.3483  0.3626  0.9235
 8480TIP3    H246856   3.443   4.262  14.268  0.8802  0.0006  1.2267
 8481TIP3   OH246857   1.840   0.846   0.837 -0.2270  0.3346  0.3155
 8481TIP3    H146858   1.870   0.933   0.864  1.2776 -0.0110 -0.1632
 8481TIP3    H246859   1.900   0.822   0.766 -0.5119 -1.1869  0.5899
 8482TIP3   OH246860   0.695   3.856   4.811  0.3738 -0.3761 -0.1088
 8482TIP3    H146861   0.782   3.887   4.786  0.7751 -0.7801  0.7460
 8482TIP3    H246862   0.676   3.901   4.894  0.0673 -0.8100  0.0612
 8483TIP3   OH246863   6.249   2.160  13.830 -0.3572 -0.0218  0.4421
 8483TIP3    H146864   6.316   2.206  13.780 -0.5136  1.7705  1.8208
 8483TIP3    H246865   6.210   2.099  13.768  0.8019  0.7339 -1.0600
 8484TIP3   OH246866   2.832   3.775  15.450  0.1898 -0.3320  0.1087
 8484TIP3    H146867   2.740   3.799  15.435  0.9491  2.8904  0.2226
 8484TIP3    H246868   2.831   3.728  15.533 -1.4912 -1.2828 -0.4224
 8485TIP3   OH246869   5.821   4.307  10.906 -0.1599 -0.1209 -0.4644
 8485TIP3    H146870   5.891   4.356  10.949  0.6071 -1.4142 -0.1985
 8485TIP3    H246871   5.858   4.282  10.822  0.6444 -2.9247  0.6604
 8486TIP3   OH246872   1.891   6.583   1.348 -0.2243  0.4583 -0.3900
 8486TIP3    H146873   1.914   6.654   1.288  1.4938  1.5919  1.5415
 8486TIP3    H246874   1.877   6.507   1.291 -1.9299  2.2713 -2.4732
 8487TIP3   OH246875   1.722   0.362   3.806 -0.5383 -0.5556  0.3564
 8487TIP3    H146876   1.662   0.417   3.855  0.7760 -1.4387  3.0559
 8487TIP3    H246877   1.674   0.339   3.727 -1.5086  3.5482 -0.3722
 8488TIP3   OH246878   2.225   1.130   2.284 -0.1587  0.5786  0.0904
 8488TIP3    H146879   2.159   1.137   2.214 -0.5345  1.4684  0.5288
 8488TIP3    H246880   2.174   1.109   2.362  0.0766  1.3010  0.4353
 8489TIP3   OH246881   6.546   2.000  13.202 -0.1791 -0.3780 -0.4661
 8489TIP3    H146882   6.548   2.028  13.111 -0.3035 -1.2104 -0.7327
 8489TIP3    H246883   6.602   2.063  13.248  0.5106 -0.4013 -1.2499
 8490TIP3   OH246884   4.504   1.339  13.736  0.3031  0.1584  0.2532
 8490TIP3    H146885   4.456   1.256  13.748  1.0403 -0.3605 -0.3598
 8490TIP3    H246886   4.566   1.321  13.666  0.5034  1.2287  0.1492
 8491TIP3   OH246887   5.731   3.700   4.989  0.0818  0.1669 -0.1342
 8491TIP3    H146888   5.707   3.775   4.935 -0.0831 -0.6998 -1.2857
 8491TIP3    H246889   5.799   3.655   4.939 -0.7207 -1.1552 -0.0644
 8492TIP3   OH246890   4.457   0.574   0.224  0.6362  0.7116  0.4833
 8492TIP3    H146891   4.496   0.553   0.139  1.6754 -0.0923  1.1471
 8492TIP3    H246892   4.397   0.502   0.241 -0.1245  1.2489  0.0967
 8493TIP3   OH246893   4.403   1.145  15.017 -0.3135  0.3104 -0.1081
 8493TIP3    H146894   4.469   1.077  15.031 -0.6394  0.1082  0.4526
 8493TIP3    H246895   4.448   1.226  15.042 -0.9408 -0.0649  2.3557
 8494TIP3   OH246896   4.394   1.676  15.225  0.5304  0.6827  0.4073
 8494TIP3    H146897   4.322   1.627  15.184  1.4592 -0.4085  0.0642
 8494TIP3    H246898   4.371   1.680  15.317  1.2143 -1.7988  0.7185
 8495TIP3   OH246899   3.186   1.635  16.456 -0.2630 -0.4633  0.0905
 8495TIP3    H146900   3.113   1.651  16.397 -2.2310 -0.4560  2.4145
 8495TIP3    H246901   3.257   1.690  16.423 -2.2569  1.8466 -0.5315
 8496TIP3   OH246902   3.614   5.311  14.624  0.2016 -0.2723  0.5572
 8496TIP3    H146903   3.532   5.297  14.577  1.4992 -0.6457 -1.6733
 8496TIP3    H246904   3.665   5.232  14.606  1.9873  1.0136 -0.1027
 8497TIP3   OH246905   6.364   0.587   2.471  0.1737  0.3934 -0.6299
 8497TIP3    H146906   6.434   0.531   2.504 -1.7506 -0.7259  1.7177
 8497TIP3    H246907   6.369   0.666   2.525 -0.1377  0.4962 -0.7499
 8498TIP3   OH246908   5.126   1.120  15.127  0.2238 -0.4586  0.5466
 8498TIP3    H146909   5.181   1.042  15.114  0.0218 -0.4925 -0.1546
 8498TIP3    H246910   5.037   1.089  15.111 -0.2302 -0.8496  3.5668
 8499TIP3   OH246911   0.245   5.137  15.599 -0.0925 -0.0366  0.0072
 8499TIP3    H146912   0.214   5.206  15.658 -0.5567 -0.2961  0.0663
 8499TIP3    H246913   0.168   5.110  15.550  0.4415  0.6856 -1.2507
 8500TIP3   OH246914   2.078   3.328  12.788  0.1334 -0.2525  0.3897
 8500TIP3    H146915   2.125   3.246  12.772 -0.4881 -0.1940 -2.0387
 8500TIP3    H246916   2.072   3.368  12.701 -2.8304  0.5760  0.9312
 8501TIP3   OH246917   3.699   4.980   1.293 -0.1798  0.6861 -0.5614
 8501TIP3    H146918   3.767   4.923   1.328  0.4157  1.5364 -0.3245
 8501TIP3    H246919   3.619   4.951   1.338 -0.1123 -0.7741 -1.3637
 8502TIP3   OH246920   6.347   1.359   2.666 -0.6497  0.5857  0.5605
 8502TIP3    H146921   6.322   1.267   2.660  0.2296  0.4325 -1.0648
 8502TIP3    H246922   6.335   1.393   2.577 -0.3455  1.8703  1.0013
 8503TIP3   OH246923   1.180   5.594   1.741  0.2386 -0.3141  0.0896
 8503TIP3    H146924   1.247   5.634   1.796  0.5243 -0.2086 -0.3295
 8503TIP3    H246925   1.116   5.663   1.726  1.1016  0.2166 -1.2380
 8504TIP3   OH246926   0.128   2.238  12.685 -0.0464 -1.1827  0.4062
 8504TIP3    H146927   0.134   2.201  12.773  0.6017  0.6460  1.1672
 8504TIP3    H246928   0.218   2.263  12.662 -0.1817 -1.7901 -0.8457
 8505TIP3   OH246929   0.245   4.547   4.552 -0.1690  0.1521 -0.2736
 8505TIP3    H146930   0.276   4.561   4.641  0.6279 -1.6664 -0.2469
 8505TIP3    H246931   0.150   4.560   4.557 -0.1979 -0.5036  0.9493
 8506TIP3   OH246932   2.507   6.106   4.533  0.1648 -0.1438 -0.4094
 8506TIP3    H146933   2.423   6.078   4.496  0.5793 -0.6045 -1.0086
 8506TIP3    H246934   2.489   6.193   4.568 -0.8197 -0.6345  0.3576
 8507TIP3   OH246935   4.034   4.942   4.678 -0.6015 -0.2816  0.2305
 8507TIP3    H146936   3.998   4.965   4.764  0.5397 -0.7395  0.8391
 8507TIP3    H246937   4.076   5.022   4.647  1.2833 -0.8297  1.2873
 8508TIP3   OH246938   0.726   1.703   3.805 -0.6279  0.0814  0.0240
 8508TIP3    H146939   0.692   1.674   3.721  0.1567  0.5073 -0.4440
 8508TIP3    H246940   0.768   1.787   3.787  1.8289 -1.0271  0.3192
 8509TIP3   OH246941   1.983   6.257   2.790  0.4070  0.5791  0.1528
 8509TIP3    H146942   1.911   6.250   2.852  1.3106  0.0597  1.1384
 8509TIP3    H246943   1.996   6.168   2.758 -0.1210  0.8573 -0.8777
 8510TIP3   OH246944   0.695   1.550  13.487  0.0517 -0.3119 -0.0772
 8510TIP3    H146945   0.714   1.458  13.473  0.2888  0.0430 -2.2328
 8510TIP3    H246946   0.608   1.551  13.528  0.4683 -1.5091  0.8658
 8511TIP3   OH246947   3.057   3.416  12.081 -0.2144  0.0079  0.2060
 8511TIP3    H146948   3.096   3.413  12.169 -0.4515 -0.2217  0.3024
 8511TIP3    H246949   3.108   3.352  12.031 -0.3496 -0.1610  0.2847
 8512TIP3   OH246950   3.132   2.561  16.746 -0.2947  0.1571 -0.4661
 8512TIP3    H146951   3.043   2.587  16.724 -0.5748 -0.3692  0.0256
 8512TIP3    H246952   3.124   2.470  16.773  0.1723  0.5125  0.9049
 8513TIP3   OH246953   0.925   4.436  16.307 -0.3063  0.1331  0.0975
 8513TIP3    H146954   0.846   4.456  16.258  0.4237  1.6733 -0.4664
 8513TIP3    H246955   0.990   4.499  16.276  0.9398 -0.6313  1.0815
 8514TIP3   OH246956   6.024   2.001   5.507 -0.1239 -0.6094  0.6950
 8514TIP3    H146957   5.939   1.969   5.538 -1.1863  1.8933  0.4513
 8514TIP3    H246958   6.074   2.016   5.587 -0.2847 -1.0509  0.8818
 8515TIP3   OH246959   3.808   2.581   6.357  0.4437  0.2732  0.8917
 8515TIP3    H146960   3.793   2.524   6.281  0.2696  0.4612  0.7811
 8515TIP3    H246961   3.783   2.528   6.432 -2.1182  1.0017  0.6205
 8516TIP3   OH246962   6.306   6.365  10.439  0.4723 -0.3546  0.4617
 8516TIP3    H146963   6.333   6.376  10.530  3.2720 -0.6556 -0.2846
 8516TIP3    H246964   6.323   6.451  10.398 -0.0826 -0.4396  0.0346
 8517TIP3   OH246965   6.253   1.052  13.473  0.2562  0.3409 -0.2982
 8517TIP3    H146966   6.252   1.148  13.471 -1.7110  0.3751  0.4757
 8517TIP3    H246967   6.174   1.027  13.425 -0.0040 -0.8454  0.7273
 8518TIP3   OH246968   2.318   1.492  11.990  0.4419 -0.2455  0.5881
 8518TIP3    H146969   2.269   1.485  12.071  0.8099  0.2554  0.8560
 8518TIP3    H246970   2.399   1.538  12.014  2.1112 -3.0675  0.6070
 8519TIP3   OH246971   2.592   6.097  12.995  0.2148  0.1514  0.0656
 8519TIP3    H146972   2.652   6.063  13.061  1.3468  1.6525 -0.1493
 8519TIP3    H246973   2.516   6.128  13.043  1.2812  1.7708  0.7503
 8520TIP3   OH246974   4.377   4.669   1.435 -0.1840 -0.5630 -0.1441
 8520TIP3    H146975   4.362   4.745   1.491  1.9210  1.0832 -1.6867
 8520TIP3    H246976   4.430   4.610   1.488  3.7526  1.9876 -1.0456
 8521TIP3   OH246977   2.921   1.758   5.001 -0.1630  0.2753  0.2312
 8521TIP3    H146978   2.939   1.812   5.078 -0.3374  0.7092 -0.0277
 8521TIP3    H246979   2.869   1.685   5.034  0.6835 -0.1154  0.7088
 8522TIP3   OH246980   2.783   1.857   0.905  0.6076 -0.1125  0.4602
 8522TIP3    H146981   2.829   1.867   0.988  0.8104 -0.5325  0.4032
 8522TIP3    H246982   2.846   1.812   0.848 -0.5759 -2.5708  1.0204
 8523TIP3   OH246983   3.587   2.052   6.502 -0.0299 -0.1800  0.1618
 8523TIP3    H146984   3.649   2.004   6.556  0.9381 -0.0788 -0.8356
 8523TIP3    H246985   3.556   2.124   6.558  2.9181  1.4627 -0.2517
 8524TIP3   OH246986   6.128   0.589   2.700 -0.4713 -0.0313 -0.7731
 8524TIP3    H146987   6.155   0.660   2.641  0.9621 -0.0327 -0.1244
 8524TIP3    H246988   6.057   0.627   2.751  0.5689  1.0882 -0.1362
 8525TIP3   OH246989   6.564   5.100   2.037  0.5909 -0.3225 -0.1658
 8525TIP3    H146990   6.613   5.039   1.982  2.4781  0.4579  0.6463
 8525TIP3    H246991   6.630   5.152   2.081 -0.9812  1.3407  0.2809
 8526TIP3   OH246992   6.667   3.098  12.712  0.8264  0.0893  0.3334
 8526TIP3    H146993   6.673   3.033  12.782  0.1022  1.3436  1.6026
 8526TIP3    H246994   6.726   3.066  12.644  0.3684 -1.9607  0.8627
 8527TIP3   OH246995   6.539   3.807  16.708  0.9691  0.2241 -0.4977
 8527TIP3    H146996   6.449   3.773  16.705  1.2932 -0.6530 -0.3442
 8527TIP3    H246997   6.559   3.830  16.617  0.3664  1.0195 -0.4389
 8528TIP3   OH246998   6.293   1.740  11.372 -0.2300 -0.5431  0.0803
 8528TIP3    H146999   6.368   1.688  11.400 -0.5022 -1.2412 -0.4733
 8528TIP3    H247000   6.225   1.676  11.354 -0.8396  0.0643  0.2005
 8529TIP3   OH247001   3.892   5.342   4.456  0.1935  0.1708  0.2213
 8529TIP3    H147002   3.959   5.298   4.402 -0.5533  0.3425 -0.8723
 8529TIP3    H247003   3.914   5.319   4.546  2.4866  1.2688 -0.0240
 8530TIP3   OH247004   2.405   3.326  11.860  0.6111 -0.1779 -0.9842
 8530TIP3    H147005   2.446   3.273  11.791 -0.4024 -0.3304 -1.4738
 8530TIP3    H247006   2.381   3.263  11.927  3.0065  0.1443  0.2495
 8531TIP3   OH247007   5.195   4.267   1.603  0.0024  0.1912  0.5461
 8531TIP3    H147008   5.281   4.228   1.590 -0.1155 -0.1307  0.7287
 8531TIP3    H247009   5.177   4.254   1.696  0.4136  1.5991  0.8359
 8532TIP3   OH247010   0.480   5.596   1.871  0.0526  0.4622  0.7495
 8532TIP3    H147011   0.464   5.683   1.835  1.9757  0.0443 -1.2000
 8532TIP3    H247012   0.401   5.576   1.921  0.1199  3.8687  2.3636
 8533TIP3   OH247013   5.833   1.046  16.292  0.1834  0.1501 -0.1075
 8533TIP3    H147014   5.836   1.047  16.196 -0.9621 -1.5903 -0.1947
 8533TIP3    H247015   5.755   1.097  16.314  0.4383  0.5376 -0.1025
 8534TIP3   OH247016   4.720   3.632  15.280  0.2572 -0.1582  0.3400
 8534TIP3    H147017   4.736   3.647  15.187 -0.5249  0.7769  0.3497
 8534TIP3    H247018   4.806   3.609  15.315  0.6727  0.0644 -0.5072
 8535TIP3   OH247019   0.693   4.106  12.383  0.4813  0.0487 -0.5060
 8535TIP3    H147020   0.711   4.028  12.436 -0.8818  0.4360  0.5342
 8535TIP3    H247021   0.697   4.179  12.444 -0.4862  0.5709 -1.0552
 8536TIP3   OH247022   5.747   5.565   1.714 -0.0651 -0.7907  0.2442
 8536TIP3    H147023   5.656   5.588   1.732  0.3035 -0.2181  1.3989
 8536TIP3    H247024   5.791   5.572   1.799  1.0869 -0.9240 -0.3324
 8537TIP3   OH247025   4.048   3.156  15.971 -0.2149 -0.0035  0.0821
 8537TIP3    H147026   4.011   3.087  16.026  0.0739  0.5161  0.9409
 8537TIP3    H247027   4.100   3.109  15.906 -0.6232 -0.6301  0.1990
 8538TIP3   OH247028   4.785   3.592   1.071  0.7324  0.4379  0.2389
 8538TIP3    H147029   4.758   3.578   0.980  1.0199  0.2710  0.1776
 8538TIP3    H247030   4.880   3.605   1.066  1.1199 -1.9857  0.7651
 8539TIP3   OH247031   0.487   4.147  15.754  0.8137 -0.7433  0.3896
 8539TIP3    H147032   0.414   4.162  15.694  1.0170  0.7351  0.4824
 8539TIP3    H247033   0.532   4.070  15.720 -0.3936 -1.2556 -0.0564
 8540TIP3   OH247034   6.628   3.426  15.034 -0.3886 -0.1964 -0.4346
 8540TIP3    H147035   6.614   3.445  14.942  0.6435 -0.2087 -0.5983
 8540TIP3    H247036   6.540   3.407  15.069 -0.6261 -1.4142 -1.6739
 8541TIP3   OH247037   4.214   1.366  13.530 -0.3860 -0.2165 -0.5545
 8541TIP3    H147038   4.235   1.459  13.538 -0.4980 -0.1897 -0.5724
 8541TIP3    H247039   4.283   1.321  13.578 -0.9967 -0.0710  0.4743
 8542TIP3   OH247040   4.832   4.685   6.325  0.2855  0.5814 -0.1426
 8542TIP3    H147041   4.840   4.608   6.270  1.7114  0.4069  0.2927
 8542TIP3    H247042   4.912   4.686   6.378 -1.0436  0.7255  1.9362
 8543TIP3   OH247043   3.303   0.088  12.710  0.1288 -0.2194  0.0359
 8543TIP3    H147044   3.388   0.109  12.671  0.6661  0.0577  1.3217
 8543TIP3    H247045   3.303   0.135  12.793 -0.8399 -1.1074  0.5419
 8544TIP3   OH247046   2.286   2.749  14.421 -0.4258  0.0176 -0.4941
 8544TIP3    H147047   2.285   2.696  14.341 -0.2246  1.1909 -1.2844
 8544TIP3    H247048   2.364   2.719  14.468 -1.1437 -1.4394 -0.1994
 8545TIP3   OH247049   4.439   2.041  12.468  0.7540 -0.4354 -0.1083
 8545TIP3    H147050   4.350   2.069  12.448  0.8160 -0.9888 -1.1646
 8545TIP3    H247051   4.470   2.106  12.531 -0.4797 -0.3873  0.4601
 8546TIP3   OH247052   3.327   3.122  15.357 -0.1959 -0.5586  0.1119
 8546TIP3    H147053   3.414   3.122  15.399  1.3640 -1.1926 -2.9925
 8546TIP3    H247054   3.304   3.215  15.352  0.1488 -0.3996  1.2477
 8547TIP3   OH247055   1.176   6.495  13.245 -0.2014 -0.1823 -0.0365
 8547TIP3    H147056   1.257   6.531  13.207 -0.5694 -0.5057 -1.1341
 8547TIP3    H247057   1.206   6.439  13.316  0.6004 -1.0261 -1.0261
 8548TIP3   OH247058   1.990   3.902  16.628 -0.5414  0.0022  0.1197
 8548TIP3    H147059   2.017   3.812  16.644 -2.7973 -0.8287 -0.5647
 8548TIP3    H247060   1.896   3.897  16.614 -0.6328  2.4111 -0.3980
 8549TIP3   OH247061   2.118   5.262  15.634 -0.4905 -0.3369  0.1387
 8549TIP3    H147062   2.126   5.205  15.711  0.3961  0.0348  0.3237
 8549TIP3    H247063   2.207   5.293  15.617 -0.8429  0.3906 -0.4312
 8550TIP3   OH247064   3.545   6.232   1.415 -0.0158 -0.2370 -0.4185
 8550TIP3    H147065   3.493   6.168   1.367  1.0329 -0.4857 -1.2448
 8550TIP3    H247066   3.609   6.264   1.351  0.7303  0.1925  0.5267
 8551TIP3   OH247067   0.903   0.723  10.446  0.4004  0.3818  0.2675
 8551TIP3    H147068   0.812   0.748  10.459  0.0755 -1.3713  1.3940
 8551TIP3    H247069   0.945   0.738  10.531  1.0662  0.6838 -0.1020
 8552TIP3   OH247070   3.918   6.614  17.009 -0.3587 -0.1630 -0.2195
 8552TIP3    H147071   3.906   6.683  16.943  2.1680  0.9924  0.4597
 8552TIP3    H247072   3.919   6.661  17.092  2.4919 -0.8418  0.1780
 8553TIP3   OH247073   1.556   2.684  16.591  0.1941  0.2471  0.1870
 8553TIP3    H147074   1.570   2.593  16.620 -0.4010  0.5049  1.3155
 8553TIP3    H247075   1.518   2.727  16.667 -0.7728  1.1195 -0.7779
 8554TIP3   OH247076   3.193   3.496   2.562  0.2187 -0.4866 -0.4330
 8554TIP3    H147077   3.247   3.543   2.625  1.0695 -2.1821  0.1284
 8554TIP3    H247078   3.106   3.534   2.572  0.3749 -0.6332  1.6543
 8555TIP3   OH247079   3.447   6.104   2.091 -0.3212  0.5472 -0.0451
 8555TIP3    H147080   3.491   6.185   2.114 -0.9020  0.6865  0.5957
 8555TIP3    H247081   3.432   6.060   2.175 -1.8734  0.7527 -0.2112
 8556TIP3   OH247082   5.541   2.884   3.355 -0.5309  0.2646  0.1217
 8556TIP3    H147083   5.611   2.832   3.316 -1.1383 -0.4631 -0.0146
 8556TIP3    H247084   5.586   2.959   3.395  0.3765 -0.4936  0.5446
 8557TIP3   OH247085   5.229   4.587   1.645 -0.3599 -0.6148  0.4258
 8557TIP3    H147086   5.254   4.605   1.554  1.4952 -2.3689  0.5410
 8557TIP3    H247087   5.247   4.668   1.692 -1.0354  0.2067 -0.7141
 8558TIP3   OH247088   3.291   2.133  15.238  0.1407  0.4722 -0.1589
 8558TIP3    H147089   3.311   2.219  15.201  1.6082 -0.0822 -0.7252
 8558TIP3    H247090   3.228   2.095  15.176  1.4584  0.1350 -1.3161
 8559TIP3   OH247091   2.126   5.429  11.047  0.4413  0.3612 -0.6557
 8559TIP3    H147092   2.167   5.467  11.124 -1.3307 -3.1864  2.2057
 8559TIP3    H247093   2.198   5.420  10.984  2.2904  1.7604  1.1864
 8560TIP3   OH247094   3.555   1.195  12.422  0.1129 -0.7220 -0.0657
 8560TIP3    H147095   3.583   1.254  12.493  0.1995 -2.9189  1.8175
 8560TIP3    H247096   3.629   1.134  12.412 -0.7471 -1.6935 -0.5982
 8561TIP3   OH247097   6.336   4.774  11.553  0.4014 -0.3238  0.4980
 8561TIP3    H147098   6.348   4.772  11.459  0.9762  1.8936  0.5121
 8561TIP3    H247099   6.400   4.711  11.587 -1.1736 -2.6304 -0.6748
 8562TIP3   OH247100   3.883   3.782   5.261 -0.2531 -0.2467 -0.1775
 8562TIP3    H147101   3.841   3.709   5.215 -1.1608 -0.2452  0.6296
 8562TIP3    H247102   3.929   3.740   5.334  0.2979 -0.1425 -0.4671
 8563TIP3   OH247103   2.497   6.569   3.856 -0.5832  0.5091 -0.0407
 8563TIP3    H147104   2.422   6.626   3.837 -0.6766 -0.1341 -1.6986
 8563TIP3    H247105   2.562   6.593   3.791 -0.3868 -0.8411 -0.3577
 8564TIP3   OH247106   4.272   0.336   2.133  0.1201  0.0512  0.7159
 8564TIP3    H147107   4.292   0.397   2.205  0.5451  1.2823 -0.4250
 8564TIP3    H247108   4.177   0.339   2.126  0.2066  1.4275 -0.0396
 8565TIP3   OH247109   4.554   4.229   2.737 -0.0314 -0.2494  0.1692
 8565TIP3    H147110   4.540   4.146   2.693 -0.0126  0.4124 -1.1184
 8565TIP3    H247111   4.466   4.265   2.751 -0.1927 -1.6279  3.0376
 8566TIP3   OH247112   0.505   2.791  16.784 -0.7756 -0.0657 -0.6629
 8566TIP3    H147113   0.537   2.814  16.871  0.5230  0.8014 -1.3616
 8566TIP3    H247114   0.410   2.784  16.795 -0.4947 -1.5389  1.1659
 8567TIP3   OH247115   6.719   4.231  14.310 -0.0653 -0.8674  0.2518
 8567TIP3    H147116   6.691   4.172  14.239 -0.1369  1.7192 -1.9245
 8567TIP3    H247117   6.800   4.270  14.279  0.2550 -0.1996  1.8882
 8568TIP3   OH247118   0.520   0.309  12.520  0.0963 -0.1032  0.1793
 8568TIP3    H147119   0.611   0.328  12.496  0.1224 -0.7360 -0.2349
 8568TIP3    H247120   0.469   0.354  12.453  0.0858  0.5182  0.5922
 8569TIP3   OH247121   3.013   6.115   0.627 -0.1971  0.3300 -0.0306
 8569TIP3    H147122   2.947   6.046   0.624 -1.0451  1.1599 -1.1037
 8569TIP3    H247123   3.025   6.133   0.720  0.2157 -1.4207  0.2673
 8570TIP3   OH247124   3.724   3.230   5.947  0.1158  0.3404  0.5670
 8570TIP3    H147125   3.788   3.163   5.925  1.3840  1.2708  1.4188
 8570TIP3    H247126   3.708   3.276   5.864  1.5928  0.9977  0.6425
 8571TIP3   OH247127   2.091   3.413   2.664 -0.6243 -0.4738  0.2060
 8571TIP3    H147128   2.153   3.383   2.731 -0.6619  0.5731  0.7230
 8571TIP3    H247129   2.028   3.341   2.656  0.9190 -1.7570 -0.6753
 8572TIP3   OH247130   4.794   1.970   4.272  0.2735  0.4694 -0.1844
 8572TIP3    H147131   4.809   2.064   4.257  0.1130  0.4776 -0.2968
 8572TIP3    H247132   4.727   1.967   4.340 -0.4499  0.4454 -0.8805
 8573TIP3   OH247133   3.194   3.632  12.732  0.2989 -0.3968  0.9417
 8573TIP3    H147134   3.151   3.689  12.668 -0.5795 -1.6361  0.3996
 8573TIP3    H247135   3.287   3.637  12.710 -0.1979 -2.6970 -2.0613
 8574TIP3   OH247136   0.793   2.572   4.626 -0.2490 -0.5352 -0.2926
 8574TIP3    H147137   0.766   2.523   4.549 -2.6006 -0.3780  0.4080
 8574TIP3    H247138   0.820   2.505   4.689 -2.1274 -0.8933  0.1619
 8575TIP3   OH247139   2.838   3.242   2.946 -0.0413  0.3209 -0.3669
 8575TIP3    H147140   2.814   3.332   2.928 -0.0193  0.5679  0.7956
 8575TIP3    H247141   2.875   3.210   2.864  1.4794  1.8716 -0.3194
 8576TIP3   OH247142   1.281   0.474  16.474  0.5995  0.1265 -0.3709
 8576TIP3    H147143   1.350   0.520  16.520  0.7381  0.1585 -0.6083
 8576TIP3    H247144   1.272   0.391  16.520  1.2591 -0.1587 -0.7473
 8577TIP3   OH247145   4.449   3.587   4.999  0.5853  0.7918 -0.5844
 8577TIP3    H147146   4.439   3.640   4.920 -0.1298  0.9937 -0.3575
 8577TIP3    H247147   4.390   3.627   5.063 -2.1568 -1.9512 -1.2877
 8578TIP3   OH247148   1.125   0.642   0.286  0.0625  0.7748 -0.1767
 8578TIP3    H147149   1.080   0.726   0.287  0.5562  1.0333  0.9838
 8578TIP3    H247150   1.058   0.579   0.316 -0.7546  0.5025 -2.4833
 8579TIP3   OH247151   2.723   6.361  12.946 -0.1819 -0.0104 -0.3760
 8579TIP3    H147152   2.786   6.361  13.018 -1.2260  1.2845  0.5644
 8579TIP3    H247153   2.664   6.288  12.966 -0.7968  0.6915  0.3788
 8580TIP3   OH247154   1.817   6.693  11.393  0.4053  0.4125  0.0422
 8580TIP3    H147155   1.763   6.650  11.327  0.6517 -0.0948  0.1674
 8580TIP3    H247156   1.855   6.768  11.348  0.3391  0.2356 -0.3083
 8581TIP3   OH247157   6.492   0.213   6.009  0.1344  0.3165  0.5032
 8581TIP3    H147158   6.425   0.281   6.002  1.0426  1.2906  1.2176
 8581TIP3    H247159   6.537   0.232   6.091 -0.2471 -1.7416  1.2312
 8582TIP3   OH247160   2.055   3.177   0.264 -0.4152  0.7045  0.0573
 8582TIP3    H147161   2.030   3.185   0.356  0.4509 -1.1809  0.4725
 8582TIP3    H247162   2.141   3.136   0.266  0.4053  2.2646 -1.5489
 8583TIP3   OH247163   0.849   5.425   6.242 -0.0122  0.2456 -0.3098
 8583TIP3    H147164   0.944   5.439   6.234 -0.1757  0.9010 -1.1841
 8583TIP3    H247165   0.841   5.345   6.294  1.0067  0.8256  0.7555
 8584TIP3   OH247166   2.553   5.515  16.101 -0.7311 -0.0625 -0.1030
 8584TIP3    H147167   2.647   5.495  16.097 -0.9331 -1.2695  0.7565
 8584TIP3    H247168   2.544   5.576  16.173 -1.0211 -2.7039  2.1872
 8585TIP3   OH247169   0.292   1.227  12.803  0.2383  0.0109  0.0304
 8585TIP3    H147170   0.262   1.149  12.851  2.3958 -0.7748  0.1435
 8585TIP3    H247171   0.289   1.200  12.711 -1.1199  0.5544 -0.1014
 8586TIP3   OH247172   4.094   5.151  11.901  0.3177 -0.2236  0.2221
 8586TIP3    H147173   4.036   5.141  11.825  1.6026  0.0807 -0.8247
 8586TIP3    H247174   4.039   5.190  11.968 -0.2716  1.6384 -1.3007
 8587TIP3   OH247175   2.786   5.641   6.143 -0.3968 -0.3237  0.0336
 8587TIP3    H147176   2.749   5.639   6.231 -0.2066  1.1557  0.1634
 8587TIP3    H247177   2.735   5.708   6.097  2.1456  1.9083  0.2786
 8588TIP3   OH247178   5.294   3.049   3.454 -0.3122  0.0047  0.0192
 8588TIP3    H147179   5.275   3.138   3.424  0.3391  0.2420  0.3145
 8588TIP3    H247180   5.373   3.025   3.406 -0.3784 -0.3432  0.0884
 8589TIP3   OH247181   4.930   4.074   2.534 -0.0496  0.2725 -0.2537
 8589TIP3    H147182   4.985   3.997   2.518 -0.1120  0.2150 -0.1928
 8589TIP3    H247183   4.847   4.037   2.565 -0.1928  0.3489 -0.5454
 8590TIP3   OH247184   6.488   4.644   5.769 -0.0221 -0.3382 -0.3735
 8590TIP3    H147185   6.542   4.658   5.691 -1.2244 -1.2731 -1.3993
 8590TIP3    H247186   6.418   4.586   5.739 -0.9879 -0.0003  1.2002
 8591TIP3   OH247187   4.691   1.399   1.070 -0.4570 -0.0345  0.5055
 8591TIP3    H147188   4.633   1.324   1.081  0.7095 -1.0054  0.2272
 8591TIP3    H247189   4.767   1.364   1.024  0.2901  1.2349  0.7374
 8592TIP3   OH247190   1.371   5.510  11.262  0.2198 -0.1470 -0.8027
 8592TIP3    H147191   1.429   5.490  11.335 -0.0290  0.3402 -0.4730
 8592TIP3    H247192   1.427   5.501  11.184  0.9243  1.0551 -0.4399
 8593TIP3   OH247193   5.395   0.343  12.829  0.1600 -0.0707  0.0162
 8593TIP3    H147194   5.400   0.262  12.778 -1.5873 -0.8264  0.9881
 8593TIP3    H247195   5.305   0.374  12.814  0.4717  1.0895  0.5323
 8594TIP3   OH247196   4.735   4.513   2.405  0.0688  0.0129  0.3123
 8594TIP3    H147197   4.768   4.461   2.478 -1.5891 -0.3475  0.8261
 8594TIP3    H247198   4.670   4.572   2.444  1.0538  1.6619 -0.4503
 8595TIP3   OH247199   3.604   3.523   3.537 -0.0956 -0.5550 -0.6454
 8595TIP3    H147200   3.617   3.554   3.448  1.1736  2.0380  0.4183
 8595TIP3    H247201   3.510   3.508   3.543 -0.3454  0.3697 -2.0455
 8596TIP3   OH247202   0.174   0.914  13.478  0.1121  0.7421  0.0143
 8596TIP3    H147203   0.164   0.879  13.566  0.3773  1.4781  0.3456
 8596TIP3    H247204   0.170   0.838  13.420 -0.0383  0.2579  0.6659
 8597TIP3   OH247205   6.668   4.859  13.171 -0.0146 -0.7931 -0.0936
 8597TIP3    H147206   6.741   4.805  13.140  1.2181  0.2234  0.9861
 8597TIP3    H247207   6.630   4.810  13.244 -1.2182 -1.9059 -1.4301
 8598TIP3   OH247208   6.650   3.991   2.646 -0.2360  0.2847 -0.0251
 8598TIP3    H147209   6.719   3.973   2.583 -1.0900  0.0326 -0.8947
 8598TIP3    H247210   6.638   3.909   2.694  0.3490  0.4510  0.4148
 8599TIP3   OH247211   3.187   6.174  15.903  0.2765  0.2857 -0.5387
 8599TIP3    H147212   3.282   6.165  15.899 -0.0495 -3.3451 -2.5267
 8599TIP3    H247213   3.163   6.132  15.986  0.2341 -1.1711 -1.2709
 8600TIP3   OH247214   1.414   1.679  11.356  0.0123 -0.2653 -1.1143
 8600TIP3    H147215   1.485   1.691  11.419 -0.0444  2.4228 -1.5158
 8600TIP3    H247216   1.452   1.700  11.271 -0.7556 -0.7226 -1.5857
 8601TIP3   OH247217   2.355   4.485   0.357 -0.1956  0.2658 -0.4691
 8601TIP3    H147218   2.342   4.390   0.360 -0.5707  0.3130 -0.6540
 8601TIP3    H247219   2.422   4.498   0.289  0.3790  0.0784  0.0543
 8602TIP3   OH247220   0.979   5.267   0.257  0.2162  0.2018  0.4422
 8602TIP3    H147221   0.990   5.248   0.163 -0.6180 -0.7162  0.5185
 8602TIP3    H247222   0.917   5.340   0.260  0.1882  0.1857  0.2746
 8603TIP3   OH247223   5.822   1.158  12.070  0.3863 -0.6932  0.0724
 8603TIP3    H147224   5.837   1.134  11.979  2.1080  1.7260 -0.3288
 8603TIP3    H247225   5.894   1.118  12.119  1.6538  1.1771 -0.2054
 8604TIP3   OH247226   3.100   0.122  15.712 -0.1367  0.1947  0.6168
 8604TIP3    H147227   3.017   0.137  15.758 -0.8280 -2.1631  0.2350
 8604TIP3    H247228   3.074   0.076  15.632  1.5860 -1.0631  0.7537
 8605TIP3   OH247229   0.572   4.526  11.868 -0.4141 -0.2812 -0.3629
 8605TIP3    H147230   0.610   4.544  11.954 -1.0344  0.3035 -0.2065
 8605TIP3    H247231   0.641   4.480  11.820  0.1776  0.0003  0.2120
 8606TIP3   OH247232   2.471   4.849   3.954 -0.7023 -0.2322  0.1662
 8606TIP3    H147233   2.438   4.876   4.039  1.6164  0.2642  0.9440
 8606TIP3    H247234   2.485   4.754   3.963 -0.5045 -0.1882  0.3073
 8607TIP3   OH247235   6.534   2.287  15.279 -0.3967 -0.6024 -0.5631
 8607TIP3    H147236   6.494   2.228  15.343  1.0814  1.8745  2.8439
 8607TIP3    H247237   6.626   2.260  15.276 -0.0262  0.5536 -0.0584
 8608TIP3   OH247238   6.291   5.486   2.436 -0.6871 -0.2117 -0.0936
 8608TIP3    H147239   6.319   5.408   2.483  0.8183  0.7648  0.6999
 8608TIP3    H247240   6.315   5.470   2.345 -0.5293 -0.7411  0.0436
 8609TIP3   OH247241   5.666   3.634  13.665 -0.0749 -0.2851  0.3440
 8609TIP3    H147242   5.733   3.596  13.722 -0.0961 -0.5571  0.1944
 8609TIP3    H247243   5.632   3.559  13.616  0.3771  0.0395 -0.4728
 8610TIP3   OH247244   3.884   6.496  15.578 -0.7018 -0.2266 -0.1426
 8610TIP3    H147245   3.825   6.424  15.599 -0.5439  0.0759  1.4067
 8610TIP3    H247246   3.960   6.481  15.634 -0.3147  0.6896 -0.4149
 8611TIP3   OH247247   0.015   5.057  13.036  0.1606 -0.0428 -0.0949
 8611TIP3    H147248  -0.007   5.131  13.092  1.9178  1.0712 -0.8149
 8611TIP3    H247249  -0.037   4.984  13.069 -0.4755  1.1552  1.5630
 8612TIP3   OH247250   0.768   2.972  14.846 -0.3040  0.7320 -0.9362
 8612TIP3    H147251   0.722   2.895  14.811 -0.2738  0.3756 -0.2114
 8612TIP3    H247252   0.857   2.965  14.811  0.4204 -0.9417  1.1117
 8613TIP3   OH247253   2.757   6.659  13.256  0.3040  0.5404 -0.3297
 8613TIP3    H147254   2.829   6.722  13.246 -0.7210  1.8496  0.2385
 8613TIP3    H247255   2.724   6.646  13.167  0.6800  0.6358 -0.4841
 8614TIP3   OH247256   0.207   2.637  15.643  0.3714 -0.1408  0.2199
 8614TIP3    H147257   0.166   2.646  15.728 -0.1455  0.0988 -0.0519
 8614TIP3    H247258   0.136   2.609  15.584  0.9679 -1.4277  0.0969
 8615TIP3   OH247259   3.542   0.148  15.411  0.7666 -0.3949  0.0367
 8615TIP3    H147260   3.556   0.058  15.381  2.5791 -0.2349  0.3342
 8615TIP3    H247261   3.470   0.142  15.473  0.4378 -1.5386 -0.4443
 8616TIP3   OH247262   5.598   0.042  16.163 -0.2954 -0.2638 -0.4293
 8616TIP3    H147263   5.645   0.050  16.246 -0.2783  0.2476 -0.4910
 8616TIP3    H247264   5.522   0.100  16.173  0.8352  1.4416 -1.5807
 8617TIP3   OH247265   4.741   2.657  10.966 -0.6926 -0.1805  0.0827
 8617TIP3    H147266   4.790   2.575  10.953 -1.3619 -0.7303  0.9215
 8617TIP3    H247267   4.783   2.720  10.908  0.2874 -0.9400 -0.0481
 8618TIP3   OH247268   5.080   3.523  10.830  0.5502 -0.0339 -0.3406
 8618TIP3    H147269   5.166   3.552  10.800 -0.0272  0.4524 -1.5367
 8618TIP3    H247270   5.043   3.599  10.875  0.9828 -0.4310  0.6984
 8619TIP3   OH247271   3.737   2.050   1.488 -0.0488  0.3532  0.2521
 8619TIP3    H147272   3.800   1.978   1.497 -1.4738 -0.8435  0.7946
 8619TIP3    H247273   3.718   2.076   1.578 -2.5291 -1.2457  0.2241
 8620TIP3   OH247274   0.986   1.248  12.382 -0.2803 -0.5127  0.2680
 8620TIP3    H147275   0.959   1.217  12.468 -0.7834 -1.5674 -0.2679
 8620TIP3    H247276   1.078   1.274  12.394 -0.3157 -0.7447  1.0899
 8621TIP3   OH247277   4.877   5.273   0.389 -0.1106  0.1631 -0.3147
 8621TIP3    H147278   4.957   5.305   0.432 -0.5061  1.9206 -0.8458
 8621TIP3    H247279   4.881   5.309   0.301 -0.6343 -1.2116 -0.9105
 8622TIP3   OH247280   2.326   6.564   6.089 -0.4257  0.7157  0.2621
 8622TIP3    H147281   2.272   6.562   6.168 -1.6627 -0.0955 -0.5803
 8622TIP3    H247282   2.267   6.534   6.019  1.4134 -1.2451 -0.4887
 8623TIP3   OH247283   5.913   6.330   4.173  0.4586 -0.1836  0.3844
 8623TIP3    H147284   5.993   6.280   4.156  0.6297  0.4602 -0.7616
 8623TIP3    H247285   5.863   6.325   4.091 -0.0439  0.5696  0.6311
 8624TIP3   OH247286   6.608   2.793  14.222  0.6584 -0.0310  0.5913
 8624TIP3    H147287   6.517   2.782  14.193  0.6525  0.4175  0.4315
 8624TIP3    H247288   6.649   2.844  14.152  0.9537  0.0287  0.8096
 8625TIP3   OH247289   5.430   0.977  15.862  0.1903 -0.3032 -0.0626
 8625TIP3    H147290   5.486   0.900  15.871  0.4963  0.0794  1.4910
 8625TIP3    H247291   5.487   1.051  15.885 -1.1168  0.0367  2.2411
 8626TIP3   OH247292   1.273   6.483   2.050 -0.1318  0.3250 -0.6426
 8626TIP3    H147293   1.345   6.543   2.070 -0.9028  1.2488 -0.6022
 8626TIP3    H247294   1.307   6.427   1.981  0.2184  1.5642 -1.4877
 8627TIP3   OH247295   5.179   5.823   3.129 -0.3566  0.4189 -0.2027
 8627TIP3    H147296   5.246   5.846   3.194  0.1869  2.8805 -1.5762
 8627TIP3    H247297   5.205   5.737   3.097  2.3377  1.4444 -0.9064
 8628TIP3   OH247298   6.032   4.728   6.015  0.1139 -0.0979 -0.5340
 8628TIP3    H147299   6.099   4.796   6.015 -1.0426  1.1103  1.6426
 8628TIP3    H247300   6.045   4.681   5.933  0.9898  2.7299 -2.1011
 8629TIP3   OH247301   1.741   5.658   0.046  0.5263  0.1367 -0.1615
 8629TIP3    H147302   1.792   5.593  -0.002  0.7127 -0.8531  1.3406
 8629TIP3    H247303   1.660   5.666  -0.005  1.2500  0.0831 -1.3460
 8630TIP3   OH247304   0.771   0.719  12.070 -0.1165 -0.2434 -0.5273
 8630TIP3    H147305   0.725   0.731  12.154  0.1312 -1.4052 -0.2202
 8630TIP3    H247306   0.761   0.803  12.026 -0.2474  0.3912  0.6730
 8631TIP3   OH247307   4.884   3.017   2.505 -0.4108  0.0563  0.1601
 8631TIP3    H147308   4.815   3.004   2.569  0.7109 -0.3438  1.3056
 8631TIP3    H247309   4.915   2.928   2.484  0.7831  0.3131  0.8007
 8632TIP3   OH247310   2.141   2.185   0.673 -0.3125 -0.0078 -0.2894
 8632TIP3    H147311   2.142   2.237   0.753  0.9152  1.2003 -1.0655
 8632TIP3    H247312   2.211   2.223   0.619 -1.1369 -0.7931 -1.9414
 8633TIP3   OH247313   2.832   2.641   1.792  0.1540  0.0003  0.2621
 8633TIP3    H147314   2.806   2.642   1.700 -1.3899  0.1558  0.6886
 8633TIP3    H247315   2.775   2.575   1.832  0.1537  0.6191  1.2936
 8634TIP3   OH247316   6.347   3.549  15.503 -0.0225  0.5166  0.5650
 8634TIP3    H147317   6.262   3.585  15.479  0.1803  0.7694  0.2283
 8634TIP3    H247318   6.407   3.624  15.500 -0.0662  0.6478  2.2487
 8635TIP3   OH247319   2.595   1.436   5.615  0.0434 -0.3378  0.4054
 8635TIP3    H147320   2.620   1.392   5.534 -2.6112 -0.5760 -0.3060
 8635TIP3    H247321   2.618   1.374   5.684  1.6151 -0.4431 -0.1813
 8636TIP3   OH247322   6.296   1.965  16.285  0.4942  0.3047 -0.0398
 8636TIP3    H147323   6.322   2.031  16.349 -0.1386 -1.5797  2.2037
 8636TIP3    H247324   6.213   1.931  16.317 -0.2697 -0.0926 -2.3229
 8637TIP3   OH247325   6.340   3.931   0.465 -0.3092 -0.2202 -0.0649
 8637TIP3    H147326   6.393   3.873   0.410  0.1438  1.8066 -1.8558
 8637TIP3    H247327   6.250   3.917   0.435 -0.2620 -0.4163 -0.1096
 8638TIP3   OH247328   3.186   3.693   0.447 -0.1739 -0.3686 -0.5629
 8638TIP3    H147329   3.222   3.742   0.521  0.6017 -3.5769  1.2706
 8638TIP3    H247330   3.181   3.757   0.376  3.2335  1.7116  0.9666
 8639TIP3   OH247331   2.306   0.092  14.566  0.6245 -0.4321 -0.0054
 8639TIP3    H147332   2.379   0.140  14.605  0.0078  1.5818 -1.2350
 8639TIP3    H247333   2.341   0.005  14.548  2.0866 -0.1392  1.3552
 8640TIP3   OH247334   1.367   0.854  15.221  0.3941 -0.9655  0.3342
 8640TIP3    H147335   1.395   0.913  15.291  1.7286 -1.5105  0.2872
 8640TIP3    H247336   1.278   0.829  15.244  0.2355  0.1552  0.9700
 8641TIP3   OH247337   6.269   3.066  16.021 -0.1725 -0.7895 -0.0571
 8641TIP3    H147338   6.178   3.036  16.013 -1.0849  2.8270 -5.3452
 8641TIP3    H247339   6.319   3.007  15.964  0.3944 -1.2170  0.8777
 8642TIP3   OH247340   2.183   2.119  12.066 -0.0871 -0.5895 -0.1142
 8642TIP3    H147341   2.243   2.053  12.101 -1.2343 -1.7619 -0.3228
 8642TIP3    H247342   2.240   2.191  12.039  0.9876 -0.5888  2.0890
 8643TIP3   OH247343   2.935   5.361  14.370  0.6294 -0.3409  0.6437
 8643TIP3    H147344   2.936   5.400  14.457  0.4261  0.3752  0.3325
 8643TIP3    H247345   3.023   5.378  14.336 -0.1438  1.8915 -0.3664
 8644TIP3   OH247346   3.597   0.083   6.371 -0.5470  0.2623  0.4827
 8644TIP3    H147347   3.665   0.071   6.438  1.5397  1.2895 -1.3770
 8644TIP3    H247348   3.543   0.155   6.404  2.2378  2.7929 -0.2496
 8645TIP3   OH247349   5.254   1.565  11.572  0.0671 -0.6249  0.2150
 8645TIP3    H147350   5.278   1.583  11.663 -1.2235  1.7887  0.1194
 8645TIP3    H247351   5.261   1.649  11.528 -2.0493 -1.1737 -1.2786
 8646TIP3   OH247352   0.239   6.688  12.277 -0.2194 -0.4883  0.4010
 8646TIP3    H147353   0.180   6.759  12.252 -0.8631 -0.9516  0.5716
 8646TIP3    H247354   0.233   6.685  12.373 -1.1386 -1.5517  0.3266
 8647TIP3   OH247355   4.216   1.713  13.473 -0.2266 -0.3329  0.2149
 8647TIP3    H147356   4.239   1.770  13.400 -2.2311  0.9902  0.5802
 8647TIP3    H247357   4.301   1.683  13.508  0.7872  0.7777 -1.2590
 8648TIP3   OH247358   3.900   2.595  14.143 -0.1331  0.3266 -0.2430
 8648TIP3    H147359   3.985   2.637  14.133 -0.7398  2.0752  1.6118
 8648TIP3    H247360   3.848   2.627  14.069  0.1943  0.8489 -0.2448
 8649TIP3   OH247361   5.198   5.923  11.405 -0.1928  0.1625  0.2978
 8649TIP3    H147362   5.231   5.919  11.495  0.5327 -2.5909 -0.0443
 8649TIP3    H247363   5.275   5.910  11.350 -0.9079 -0.0959 -0.6626
 8650TIP3   OH247364   0.504   1.547  11.374 -0.2080 -0.1381  0.3002
 8650TIP3    H147365   0.462   1.595  11.303  0.8396 -1.5147 -1.2972
 8650TIP3    H247366   0.580   1.505  11.333 -0.0815 -1.6658  2.0354
 8651TIP3   OH247367   0.240   0.547  12.936 -0.4963 -0.6455 -0.2969
 8651TIP3    H147368   0.276   0.496  12.864 -0.2413 -0.5453 -0.2413
 8651TIP3    H247369   0.311   0.553  12.999 -1.4865 -2.8442  1.0789
 8652TIP3   OH247370   4.085   6.610  16.038 -0.2613  0.1166  0.1233
 8652TIP3    H147371   4.053   6.562  15.962  0.6297  2.1620 -1.6160
 8652TIP3    H247372   4.161   6.560  16.068  0.0619 -0.1049 -1.0410
 8653TIP3   OH247373   2.074   3.147  15.198  0.1653 -0.6345  0.2724
 8653TIP3    H147374   2.063   3.178  15.288  0.4024 -0.7103  0.3277
 8653TIP3    H247375   1.994   3.174  15.154  1.0761  1.5636 -0.1056
 8654TIP3   OH247376   4.864   5.839  11.978 -0.1045 -0.4667  0.3208
 8654TIP3    H147377   4.784   5.887  11.997  0.1111 -0.1603  0.4680
 8654TIP3    H247378   4.875   5.779  12.051 -1.6759 -2.4820 -1.0449
 8655TIP3   OH247379   0.208   4.423  17.134 -0.0690  0.7757 -0.0208
 8655TIP3    H147380   0.245   4.340  17.163 -0.1307  0.3935 -1.0063
 8655TIP3    H247381   0.259   4.490  17.180  2.1004  0.2679 -1.6136
 8656TIP3   OH247382   2.573   2.422  15.193 -0.2808 -0.1858  0.1651
 8656TIP3    H147383   2.589   2.425  15.287 -2.2222  2.4145  0.4510
 8656TIP3    H247384   2.497   2.364  15.184  0.2176 -0.8399  0.1422
 8657TIP3   OH247385   0.690   2.015   3.239  0.1599 -0.9797  0.1940
 8657TIP3    H147386   0.779   1.993   3.267 -0.5222 -1.1485  2.2734
 8657TIP3    H247387   0.694   2.010   3.143  1.9164 -2.8355  0.3212
 8658TIP3   OH247388   5.009   2.870  12.011 -0.1503 -0.3554  0.2604
 8658TIP3    H147389   4.952   2.828  11.947  2.0059 -2.4352 -0.3709
 8658TIP3    H247390   5.017   2.960  11.981 -0.0999 -1.0151 -1.7468
 8659TIP3   OH247391   3.444   0.877  11.674  0.1852  0.0179  0.4954
 8659TIP3    H147392   3.368   0.915  11.717 -0.4940 -0.8711  0.0948
 8659TIP3    H247393   3.423   0.880  11.580 -0.0299 -1.6254  0.4685
 8660TIP3   OH247394   5.315   1.419   3.008 -0.3231 -0.3329  0.5427
 8660TIP3    H147395   5.249   1.420   2.940 -1.4192 -2.5812  1.4976
 8660TIP3    H247396   5.265   1.412   3.090  1.0439 -0.5405  1.3740
 8661TIP3   OH247397   2.056   3.216   1.843 -0.0626 -0.0308 -0.9068
 8661TIP3    H147398   2.050   3.303   1.804 -2.0128  0.6252  0.8060
 8661TIP3    H247399   2.115   3.226   1.918  1.4777 -0.6980 -1.9929
 8662TIP3   OH247400   2.967   1.405   2.641 -0.4771  0.0583 -0.6185
 8662TIP3    H147401   2.966   1.498   2.663 -1.1179  0.3812 -1.9933
 8662TIP3    H247402   2.979   1.402   2.546  0.0247 -1.2767 -0.5362
 8663TIP3   OH247403   0.393   5.666  11.593  0.0218  0.4993 -0.1142
 8663TIP3    H147404   0.310   5.691  11.554  0.2989 -0.7112 -1.5262
 8663TIP3    H247405   0.370   5.604  11.662 -0.2394  0.0880 -0.5711
 8664TIP3   OH247406   1.852   1.880   3.527  0.2134  0.3502 -0.4035
 8664TIP3    H147407   1.782   1.821   3.554  0.5771 -0.0271 -0.2721
 8664TIP3    H247408   1.892   1.909   3.609  0.7093 -0.0519 -0.4965
 8665TIP3   OH247409   3.515   5.007   3.102  0.5643  0.3192  0.1955
 8665TIP3    H147410   3.521   4.937   3.168  1.2923  0.9907  0.8662
 8665TIP3    H247411   3.421   5.023   3.092  0.4411  0.3089  1.2051
 8666TIP3   OH247412   2.805   6.461   4.584 -0.9169 -0.3287 -0.2047
 8666TIP3    H147413   2.779   6.431   4.671 -0.7390  0.6035  0.1755
 8666TIP3    H247414   2.901   6.456   4.584 -0.9326 -0.6296 -0.4567
 8667TIP3   OH247415   3.478   4.540   6.060 -0.2058 -0.7323  0.0985
 8667TIP3    H147416   3.452   4.625   6.096  0.1886 -0.8410  0.6579
 8667TIP3    H247417   3.406   4.481   6.083  0.0291 -0.7937  0.6980
 8668TIP3   OH247418   4.884   5.852   2.406  0.4137 -0.4565  0.1239
 8668TIP3    H147419   4.867   5.760   2.425  0.6228 -0.6237 -0.5177
 8668TIP3    H247420   4.836   5.899   2.474 -0.1679 -1.0178  0.1061
 8669TIP3   OH247421   4.733   1.530  15.038 -0.0532  0.0808  0.6464
 8669TIP3    H147422   4.758   1.605  14.984 -3.8358  1.2022  0.2677
 8669TIP3    H247423   4.789   1.536  15.115  1.3845  1.8838 -0.4950
 8670TIP3   OH247424   4.942   4.478   3.837 -0.3205  0.4662 -0.3237
 8670TIP3    H147425   4.957   4.543   3.905 -2.9907  2.0861 -1.1695
 8670TIP3    H247426   4.944   4.528   3.755  1.3515 -1.1922 -1.3509
 8671TIP3   OH247427   4.957   6.155   5.929  0.1696  0.0740  0.1846
 8671TIP3    H147428   5.042   6.172   5.970  0.1752 -2.1062  1.1477
 8671TIP3    H247429   4.903   6.230   5.954  0.5491 -0.5752  3.1197
 8672TIP3   OH247430   6.440   5.528  14.927  0.6122  0.4470 -0.5128
 8672TIP3    H147431   6.490   5.599  14.966 -0.6025  1.1979 -0.3097
 8672TIP3    H247432   6.360   5.522  14.980 -1.3078  1.8249 -3.1185
 8673TIP3   OH247433   2.783   5.273   6.181  0.1291 -0.1310  0.0460
 8673TIP3    H147434   2.776   5.226   6.264  0.6721  1.5973  1.0946
 8673TIP3    H247435   2.716   5.341   6.186 -1.6250 -1.6236 -2.0618
 8674TIP3   OH247436   0.157   0.974  15.872  0.1184 -0.1657 -0.6163
 8674TIP3    H147437   0.136   0.880  15.872 -0.0936 -0.1186 -0.6723
 8674TIP3    H247438   0.083   1.015  15.828 -0.3876  0.1628  0.5343
 8675TIP3   OH247439   2.016   3.520  14.999  0.3176 -0.5327 -0.7351
 8675TIP3    H147440   2.106   3.536  15.025 -0.1879 -0.5149  1.0826
 8675TIP3    H247441   1.970   3.602  15.018 -0.1065 -0.5685 -1.5627
 8676TIP3   OH247442   0.708   3.098   4.240 -0.0503 -0.3364  0.0396
 8676TIP3    H147443   0.706   3.093   4.336  1.3591 -1.0033  0.0579
 8676TIP3    H247444   0.743   3.185   4.221  0.9626 -0.6985  0.1745
 8677TIP3   OH247445   2.399   6.062   6.521  0.8154 -0.5695 -0.4730
 8677TIP3    H147446   2.471   6.123   6.506  0.0303  0.5580  0.2528
 8677TIP3    H247447   2.322   6.105   6.483  0.5004 -1.7203 -1.1562
 8678TIP3   OH247448   6.774   6.663   3.343  0.2685  0.0277  0.7602
 8678TIP3    H147449   6.720   6.591   3.374 -0.0844  0.0809  0.2614
 8678TIP3    H247450   6.744   6.680   3.254  0.6715  0.4778  0.7061
 8679TIP3   OH247451   4.050   5.837  11.555  0.2543 -0.3613  0.4780
 8679TIP3    H147452   4.074   5.897  11.484  1.4857 -4.5638 -2.8964
 8679TIP3    H247453   3.956   5.852  11.568  1.1267  4.6100  2.2272
 8680TIP3   OH247454   6.493   5.904   3.940  0.6597 -0.0169 -0.1029
 8680TIP3    H147455   6.471   5.925   4.031 -1.3349 -0.5734 -0.4169
 8680TIP3    H247456   6.496   5.808   3.938 -1.3400 -0.1010 -1.0233
 8681TIP3   OH247457   0.050   2.110  11.970  0.2645 -0.3173  0.1208
 8681TIP3    H147458  -0.011   2.183  11.980  0.6803  0.2405 -1.3594
 8681TIP3    H247459  -0.004   2.032  11.973 -0.1378  0.0109  2.2204
 8682TIP3   OH247460   0.872   0.487   6.445  0.9692  0.1280  0.4330
 8682TIP3    H147461   0.875   0.405   6.495  0.5389 -0.2299 -0.1365
 8682TIP3    H247462   0.920   0.550   6.500 -2.6326  0.7006  3.0474
 8683TIP3   OH247463   4.634   6.402   5.088  0.1127  0.7417 -0.0083
 8683TIP3    H147464   4.709   6.408   5.029  1.1280  1.5982  1.3288
 8683TIP3    H247465   4.587   6.484   5.074 -0.3388  0.3912 -0.5401
 8684TIP3   OH247466   1.451   2.198  12.500 -0.0162  0.4515 -0.4159
 8684TIP3    H147467   1.536   2.242  12.503  0.5118 -0.3934 -1.7832
 8684TIP3    H247468   1.432   2.191  12.406 -1.1864 -0.1355 -0.1414
 8685TIP3   OH247469   2.949   5.979   2.245 -0.0469  0.1130  0.4006
 8685TIP3    H147470   2.888   5.947   2.179 -0.3783 -0.6479  1.0684
 8685TIP3    H247471   3.022   6.015   2.195 -1.2762  1.5241 -0.4216
 8686TIP3   OH247472   5.773   5.035  16.263  0.4444 -0.5380  0.4416
 8686TIP3    H147473   5.682   5.052  16.238  0.5793 -0.4626 -0.0089
 8686TIP3    H247474   5.768   4.965  16.328 -0.0506  0.5779  1.6253
 8687TIP3   OH247475   3.596   5.890   2.923  0.3813  1.0180  0.2129
 8687TIP3    H147476   3.579   5.817   2.983 -0.0742  1.5092  0.6862
 8687TIP3    H247477   3.691   5.904   2.931  0.2195  1.5172  1.3336
 8688TIP3   OH247478   4.236   5.553   0.826 -0.0975  0.1877 -0.0711
 8688TIP3    H147479   4.287   5.578   0.749 -1.5961  2.6822 -0.3108
 8688TIP3    H247480   4.302   5.530   0.892  1.3391  2.0955 -0.7974
 8689TIP3   OH247481   3.459   1.269  16.683  0.3938 -0.4948  0.3263
 8689TIP3    H147482   3.426   1.350  16.645 -0.4608 -0.7746  0.4648
 8689TIP3    H247483   3.547   1.291  16.715  0.3592  0.2380 -0.0890
 8690TIP3   OH247484   5.994   5.514  15.156  0.4176  0.2134 -0.6328
 8690TIP3    H147485   5.952   5.599  15.143 -2.7309 -1.0672  0.6849
 8690TIP3    H247486   5.994   5.473  15.069 -0.1318  0.6680 -0.8499
 8691TIP3   OH247487   2.206   6.515  12.537  0.1956  0.2757 -0.0628
 8691TIP3    H147488   2.185   6.598  12.580 -1.8828  0.9031 -2.1862
 8691TIP3    H247489   2.159   6.449  12.589 -0.5304  0.7733 -0.0840
 8692TIP3   OH247490   6.179   4.236  15.611  0.2258 -0.0571 -0.1722
 8692TIP3    H147491   6.090   4.208  15.587  0.7739 -1.8932 -0.1922
 8692TIP3    H247492   6.171   4.266  15.701 -0.6680  1.0836 -0.6118
 8693TIP3   OH247493   0.620   5.857  16.148 -0.1607 -0.3323 -0.1730
 8693TIP3    H147494   0.605   5.872  16.241 -0.4065  0.4952 -0.3426
 8693TIP3    H247495   0.613   5.944  16.108 -2.2830 -0.9654 -1.2780
 8694TIP3   OH247496   1.840   2.068   5.790 -0.1016  0.5543 -0.1311
 8694TIP3    H147497   1.794   2.128   5.731 -0.9297 -2.1598 -2.3029
 8694TIP3    H247498   1.866   2.124   5.864 -0.7276  3.6056 -2.1234
 8695TIP3   OH247499   0.314   6.144   2.810 -0.3718  0.4180 -0.6169
 8695TIP3    H147500   0.302   6.239   2.806 -0.9056  0.4461  1.0891
 8695TIP3    H247501   0.347   6.129   2.899 -0.6289 -1.0275 -0.7675
 8696TIP3   OH247502   0.506   5.311  12.425  0.3015 -0.0544  0.2965
 8696TIP3    H147503   0.584   5.349  12.383 -0.1868 -0.2739 -0.8315
 8696TIP3    H247504   0.438   5.378  12.415 -0.2830 -0.7945 -0.8012
 8697TIP3   OH247505   0.657   1.872  11.446  0.4784  0.0686  0.1607
 8697TIP3    H147506   0.634   1.948  11.499  1.3328 -0.5819  1.4819
 8697TIP3    H247507   0.753   1.875  11.440  0.3463  0.7672 -2.3062
 8698TIP3   OH247508   2.822   0.834  13.126 -0.2949  0.3593 -0.4840
 8698TIP3    H147509   2.854   0.874  13.045 -2.1064 -0.7026 -1.7521
 8698TIP3    H247510   2.858   0.745  13.125 -0.8108  0.1495 -0.4254
 8699TIP3   OH247511   2.471   3.746   5.897  0.1076  0.4664 -0.6638
 8699TIP3    H147512   2.489   3.656   5.870 -2.5351 -0.0208 -0.8968
 8699TIP3    H247513   2.454   3.739   5.991  0.7269  0.8641 -0.5194
 8700TIP3   OH247514   0.236   0.274  16.814  0.0707  0.2835 -0.3396
 8700TIP3    H147515   0.327   0.297  16.794 -0.4572  1.9418 -0.8356
 8700TIP3    H247516   0.189   0.357  16.815 -0.9467 -0.2505  2.6920
 8701TIP3   OH247517   5.449   3.648   1.038 -0.2055  0.1604  0.0130
 8701TIP3    H147518   5.367   3.618   1.000 -0.1759  0.4410 -0.2766
 8701TIP3    H247519   5.424   3.693   1.118 -0.2661 -0.4525  0.3386
 8702TIP3   OH247520   0.512   2.011   5.735 -0.0125 -0.3005 -0.2178
 8702TIP3    H147521   0.585   2.068   5.759 -1.0775  1.2576 -0.5408
 8702TIP3    H247522   0.506   2.020   5.640 -1.3745  0.5618 -0.0690
 8703TIP3   OH247523   5.461   2.709  10.207 -0.2039  0.1342 -0.1306
 8703TIP3    H147524   5.553   2.723  10.232 -0.1055  0.8083 -0.8502
 8703TIP3    H247525   5.414   2.707  10.290  0.4038  0.2443  0.2209
 8704TIP3   OH247526   2.872   2.943   2.499  0.6853 -1.0182  0.3846
 8704TIP3    H147527   2.793   2.936   2.553  0.0586 -1.9880 -0.6303
 8704TIP3    H247528   2.838   2.954   2.410  1.6996 -0.7114  0.0402
 8705TIP3   OH247529   0.799   5.610   5.322  0.2612 -0.5066  0.3129
 8705TIP3    H147530   0.797   5.678   5.390  1.0376  0.3713 -0.5346
 8705TIP3    H247531   0.713   5.614   5.281 -0.1709 -0.9576  1.1463
 8706TIP3   OH247532   0.996   3.533   3.689 -0.1193  0.3986  0.4801
 8706TIP3    H147533   1.039   3.518   3.604 -0.6812 -0.7654  0.3957
 8706TIP3    H247534   0.907   3.560   3.666 -0.2314  0.2122  0.6950
 8707TIP3   OH247535   3.128   4.725  11.487  0.1252  1.2296  0.4190
 8707TIP3    H147536   3.108   4.801  11.432 -0.4418 -0.0080 -1.1384
 8707TIP3    H247537   3.188   4.672  11.434 -1.3441 -0.5598  0.4920
 8708TIP3   OH247538   6.310   4.139  15.127  0.0942 -0.1375  0.3944
 8708TIP3    H147539   6.254   4.093  15.189  1.9577 -0.3694  1.9624
 8708TIP3    H247540   6.347   4.070  15.072  0.4236 -0.2154  0.7063
 8709TIP3   OH247541   0.322   1.396  12.075  0.5519 -0.1405  0.2672
 8709TIP3    H147542   0.408   1.361  12.098  0.7086 -0.5399 -0.9105
 8709TIP3    H247543   0.292   1.340  12.004 -0.4914  0.2846  0.3670
 8710TIP3   OH247544   4.636   5.874  14.228 -0.2896  0.9248  0.1311
 8710TIP3    H147545   4.610   5.933  14.298  0.5903  0.3927  0.9285
 8710TIP3    H247546   4.714   5.915  14.190  0.3477  0.2697  0.7138
 8711TIP3   OH247547   3.493   6.745   3.505 -0.4367  0.3405  0.2998
 8711TIP3    H147548   3.492   6.824   3.452 -0.2823 -0.2036 -0.5216
 8711TIP3    H247549   3.441   6.682   3.456  2.0152 -1.0562 -0.6341
 8712TIP3   OH247550   5.565   0.065   0.504 -0.4096  0.0299  0.1829
 8712TIP3    H147551   5.643   0.021   0.539  0.4333  1.6022  0.2995
 8712TIP3    H247552   5.574   0.057   0.409 -0.1965  0.0650  0.2002
 8713TIP3   OH247553   5.487   4.584  14.691 -0.0965 -0.0364  0.5484
 8713TIP3    H147554   5.409   4.570  14.745 -1.0270  2.3648 -0.1298
 8713TIP3    H247555   5.507   4.497  14.655 -1.7349 -0.9076  1.6900
 8714TIP3   OH247556   3.721   2.594   5.962 -0.4791  0.2362 -0.0784
 8714TIP3    H147557   3.773   2.550   6.029 -2.4799  0.7643  1.9014
 8714TIP3    H247558   3.632   2.562   5.977 -0.8364 -0.3669 -3.1437
 8715TIP3   OH247559   0.215   3.848  13.952  0.5229  0.1023 -0.3590
 8715TIP3    H147560   0.202   3.863  14.046  1.8355 -2.7552  0.3147
 8715TIP3    H247561   0.295   3.896  13.930  0.8509 -0.1726  0.2367
 8716TIP3   OH247562   4.272   1.016  11.495 -0.5926 -0.1968  0.3271
 8716TIP3    H147563   4.192   0.970  11.467 -0.2082 -0.0277 -1.0692
 8716TIP3    H247564   4.327   1.018  11.417 -0.3036  2.0100  0.5606
 8717TIP3   OH247565   2.341   5.942  15.766 -0.9186 -0.3648 -0.7478
 8717TIP3    H147566   2.368   5.907  15.681  1.4247 -0.4686 -0.0036
 8717TIP3    H247567   2.359   5.872  15.828  0.1509  0.7425  0.2276
 8718TIP3   OH247568   3.385   3.910  11.371  0.4761  0.3858  0.1558
 8718TIP3    H147569   3.480   3.924  11.379  0.6406  1.0224 -2.4264
 8718TIP3    H247570   3.375   3.815  11.379  1.1663  0.4240  1.7094
 8719TIP3   OH247571   0.683   3.655   1.948  0.3934  0.4181  1.0353
 8719TIP3    H147572   0.727   3.662   1.863 -0.4243 -1.3913  0.4309
 8719TIP3    H247573   0.613   3.591   1.933 -0.6968  1.2020  2.6907
 8720TIP3   OH247574   0.842   5.489   0.183  0.6842  0.3356 -0.2369
 8720TIP3    H147575   0.928   5.528   0.170  1.3176 -0.7707  0.6032
 8720TIP3    H247576   0.807   5.534   0.260  1.0410 -0.1258  0.1933
 8721TIP3   OH247577   3.496   3.510  15.400  0.5403  0.5177  0.1902
 8721TIP3    H147578   3.571   3.462  15.436  2.1214  2.7568 -0.0453
 8721TIP3    H247579   3.420   3.465  15.436  1.9452 -2.3218 -0.1836
 8722TIP3   OH247580   4.362   3.142  13.001  0.3811  0.1809  0.1226
 8722TIP3    H147581   4.294   3.075  12.999  0.3011  0.3052 -2.8193
 8722TIP3    H247582   4.330   3.211  12.943  1.8152  1.4478  0.7852
 8723TIP3   OH247583   3.939   3.885   3.645  0.2836 -0.0872  0.4491
 8723TIP3    H147584   3.857   3.854   3.683  0.4763 -0.2332  0.7467
 8723TIP3    H247585   3.941   3.979   3.664  0.0901 -0.0444  0.2632
 8724TIP3   OH247586   4.210   1.655  14.789  0.2178  0.1402 -0.4659
 8724TIP3    H147587   4.233   1.729  14.733 -2.2992 -0.9949 -3.1084
 8724TIP3    H247588   4.272   1.586  14.764 -0.8667 -0.3476 -1.8612
 8725TIP3   OH247589   5.049   2.811  16.263  0.1119  0.4138 -0.1190
 8725TIP3    H147590   5.060   2.827  16.169  0.3276  1.5400  0.0915
 8725TIP3    H247591   5.094   2.728  16.279 -0.6493 -0.2196 -1.1615
 8726TIP3   OH247592   0.687   5.185  14.821  0.6045  0.3594 -0.1647
 8726TIP3    H147593   0.779   5.207  14.839  0.9235  0.4997 -1.8656
 8726TIP3    H247594   0.676   5.205  14.728 -1.1189  0.1997 -0.0012
 8727TIP3   OH247595   5.253   4.281   3.434  0.0212 -0.1522 -0.2659
 8727TIP3    H147596   5.334   4.272   3.484  1.3031  0.6204 -2.1502
 8727TIP3    H247597   5.267   4.229   3.355 -0.9912  0.6829 -1.0135
 8728TIP3   OH247598   4.682   4.732   1.024 -0.2019  0.1820 -0.4205
 8728TIP3    H147599   4.650   4.710   1.111  2.9743  0.6010  0.9024
 8728TIP3    H247600   4.710   4.648   0.987  0.9448  0.3580  0.0298
 8729TIP3   OH247601   6.373   1.596   0.164 -0.4274  0.0269  0.3926
 8729TIP3    H147602   6.323   1.657   0.111 -2.4592 -0.6073  1.5603
 8729TIP3    H247603   6.320   1.581   0.242  0.7778 -1.9729  0.8763
 8730TIP3   OH247604   4.858   6.445   6.332  0.2736 -0.1551  0.2435
 8730TIP3    H147605   4.944   6.463   6.370  0.1071 -0.1933  0.6379
 8730TIP3    H247606   4.847   6.351   6.341  0.2850 -0.1829 -0.0149
 8731TIP3   OH247607   1.404   6.758   4.769 -0.0923 -0.0950  0.0110
 8731TIP3    H147608   1.436   6.672   4.745  0.7651  0.1179  0.3699
 8731TIP3    H247609   1.454   6.819   4.714 -0.8263  0.1655 -0.3808
 8732TIP3   OH247610   1.699   5.232  11.672  0.3731  0.3996 -0.3468
 8732TIP3    H147611   1.764   5.294  11.639  2.0200 -1.8628 -1.4904
 8732TIP3    H247612   1.688   5.170  11.600  0.8122 -2.1936  1.7784
 8733TIP3   OH247613   3.078   3.672   4.901  0.0622 -0.4238  0.5728
 8733TIP3    H147614   3.016   3.633   4.963  0.5832 -1.1748  0.6332
 8733TIP3    H247615   3.038   3.660   4.815 -0.7158  0.7200  0.7687
 8734TIP3   OH247616   1.914   3.320  16.087 -0.4297  0.1600 -0.0890
 8734TIP3    H147617   1.829   3.352  16.116  0.2173  0.8195  1.1128
 8734TIP3    H247618   1.966   3.399  16.073  0.4154 -0.2932  0.5011
 8735TIP3   OH247619   2.563   3.073  16.137 -0.0659 -0.5625 -0.2640
 8735TIP3    H147620   2.642   3.035  16.176  0.1463 -0.0343 -0.1892
 8735TIP3    H247621   2.499   3.071  16.208 -0.1140 -0.9509 -0.3134
 8736TIP3   OH247622   1.083   6.676   3.358  0.4780 -0.4694  0.4454
 8736TIP3    H147623   1.126   6.684   3.443 -0.4718  0.1047  0.8733
 8736TIP3    H247624   1.085   6.764   3.321  3.8466 -1.2893 -1.6214
 8737TIP3   OH247625   5.963   1.693   4.544 -0.2853  0.3502  0.2641
 8737TIP3    H147626   5.919   1.637   4.480  0.8478 -0.5417  0.2296
 8737TIP3    H247627   5.972   1.638   4.621 -1.1285  1.2328  0.9981
 8738TIP3   OH247628   6.743   3.829   3.209  0.3149 -0.4393  0.1070
 8738TIP3    H147629   6.771   3.847   3.119  0.0484 -0.3285  0.0445
 8738TIP3    H247630   6.648   3.844   3.207  0.2481 -0.8357  0.3082
 8739TIP3   OH247631   2.198   2.703  11.968  0.3295 -0.3849 -0.0145
 8739TIP3    H147632   2.210   2.797  11.957 -2.8657  0.1674  0.7397
 8739TIP3    H247633   2.208   2.667  11.880 -3.7353  1.3807 -1.3138
 8740TIP3   OH247634   1.653   2.794   0.738 -0.0570 -0.0749  0.4283
 8740TIP3    H147635   1.614   2.823   0.656 -0.2070  0.9370  0.8483
 8740TIP3    H247636   1.620   2.705   0.750 -2.0116  0.6653  0.6420
 8741TIP3   OH247637   1.391   0.070   3.009 -0.2835  0.3199  0.1743
 8741TIP3    H147638   1.427   0.159   3.014  0.1828  0.1692 -0.4536
 8741TIP3    H247639   1.315   0.078   2.951 -0.0203  0.2438 -0.1865
 8742TIP3   OH247640   0.569   0.605   2.357  0.5814  0.4252 -0.0333
 8742TIP3    H147641   0.532   0.670   2.417 -0.1563 -1.1956  1.3106
 8742TIP3    H247642   0.493   0.559   2.321  1.0901  0.4040 -1.1074
 8743TIP3   OH247643   5.328   5.783   2.273  0.2740 -0.0481  0.0578
 8743TIP3    H147644   5.235   5.802   2.257  0.2728 -1.2898 -1.5029
 8743TIP3    H247645   5.370   5.869   2.275 -0.5754  0.4184 -1.3953
 8744TIP3   OH247646   6.097   0.561   3.500  0.2834 -0.0779 -0.1325
 8744TIP3    H147647   6.164   0.508   3.457  1.3768 -0.7418  2.2816
 8744TIP3    H247648   6.112   0.546   3.593 -3.1594 -0.1264  0.4472
 8745TIP3   OH247649   2.751   1.512   3.642  0.0617  0.2310  0.1716
 8745TIP3    H147650   2.707   1.429   3.624 -0.1016  0.4275 -0.3458
 8745TIP3    H247651   2.827   1.512   3.583  0.4019  0.1788  0.6052
 8746TIP3   OH247652   3.823   0.033  11.419  0.0507  0.1189  0.5112
 8746TIP3    H147653   3.816   0.100  11.351 -0.4899 -1.0617 -0.6051
 8746TIP3    H247654   3.903  -0.015  11.397 -1.1741 -1.5293 -0.4612
 8747TIP3   OH247655   5.590   3.519   2.653 -0.1047  0.3043 -0.1709
 8747TIP3    H147656   5.649   3.455   2.692  0.8294  0.6723 -0.9537
 8747TIP3    H247657   5.534   3.468   2.595  2.0556  0.4306 -2.4556
 8748TIP3   OH247658   1.657   3.241  12.483 -0.2367  0.3463 -0.1107
 8748TIP3    H147659   1.653   3.251  12.387 -0.9556  2.8610  0.1353
 8748TIP3    H247660   1.598   3.309  12.516 -0.8749 -1.2395  2.1032
 8749TIP3   OH247661   1.998   4.798  12.315 -0.8786 -0.3612 -0.1038
 8749TIP3    H147662   1.935   4.731  12.287 -3.0427  1.7707 -0.5416
 8749TIP3    H247663   1.982   4.807  12.410  0.8886 -1.9386  0.3593
 8750TIP3   OH247664   3.729   1.664  12.109  0.4717  0.2695 -0.1765
 8750TIP3    H147665   3.729   1.589  12.050  1.7230 -0.4257  0.6716
 8750TIP3    H247666   3.774   1.734  12.061 -1.0088  0.5927 -1.1012
 8751TIP3   OH247667   4.023   4.770  13.301  0.3129 -0.6950 -0.1212
 8751TIP3    H147668   4.101   4.747  13.250 -1.1438 -1.2021 -2.1959
 8751TIP3    H247669   4.023   4.708  13.374  1.8735 -0.6459 -0.0638
 8752TIP3   OH247670   6.374   5.132   0.342  0.5155 -0.1441 -0.2797
 8752TIP3    H147671   6.415   5.049   0.315 -1.0088 -0.5532 -1.3540
 8752TIP3    H247672   6.357   5.178   0.260 -2.7853 -0.7443  0.0095
 8753TIP3   OH247673   5.990   0.415  13.832 -0.0034  0.2495 -0.2846
 8753TIP3    H147674   6.083   0.436  13.828  0.0139  0.2390  0.0446
 8753TIP3    H247675   5.952   0.456  13.755  0.5129 -0.9202 -1.1865
 8754TIP3   OH247676   5.669   0.848   6.479 -0.0795  0.1651  0.0289
 8754TIP3    H147677   5.614   0.893   6.416  0.7394 -1.3548 -1.8010
 8754TIP3    H247678   5.654   0.755   6.463  1.7926 -0.2571  0.5734
 8755TIP3   OH247679   5.253   0.642  12.945 -0.2236  0.2525 -0.0659
 8755TIP3    H147680   5.345   0.622  12.965 -0.3952 -0.8769 -0.3967
 8755TIP3    H247681   5.251   0.738  12.939  0.6006  0.4065  1.5802
 8756TIP3   OH247682   0.347   0.955   4.851 -0.0155  0.0129  0.1284
 8756TIP3    H147683   0.291   0.890   4.894 -0.1740  0.4400  0.5655
 8756TIP3    H247684   0.398   0.904   4.788 -1.6217 -0.2460 -1.0126
 8757TIP3   OH247685   2.598   1.060  13.798  0.0483 -0.3870 -0.2618
 8757TIP3    H147686   2.684   1.103  13.791 -0.0362 -0.2965 -0.7959
 8757TIP3    H247687   2.609   0.978  13.749  0.3014 -1.1297  1.0249
 8758TIP3   OH247688   5.249   5.253  11.876  0.3713  0.4331 -0.2419
 8758TIP3    H147689   5.323   5.286  11.926  0.0162  1.5315 -0.4201
 8758TIP3    H247690   5.262   5.158  11.873  1.7522  0.6110 -0.2510
 8759TIP3   OH247691   2.104   6.098   4.754  0.0001  0.2511  0.2335
 8759TIP3    H147692   2.043   6.171   4.743 -1.5315 -0.9002  0.8674
 8759TIP3    H247693   2.050   6.020   4.740  1.5313 -0.7743 -0.0644
 8760TIP3   OH247694   0.238   3.241   0.578 -0.3647 -0.2546 -0.1928
 8760TIP3    H147695   0.160   3.252   0.524 -2.0037  1.3225  2.3616
 8760TIP3    H247696   0.302   3.302   0.540 -0.9208 -0.3788 -1.3466
 8761TIP3   OH247697   2.183   4.586   5.378  0.1578  0.6927  0.1842
 8761TIP3    H147698   2.207   4.670   5.417 -1.1461  0.1564  2.2073
 8761TIP3    H247699   2.104   4.604   5.328 -0.4628  0.5623  1.1077
 8762TIP3   OH247700   3.302   3.872  13.664 -0.0833  0.2368  0.0753
 8762TIP3    H147701   3.366   3.917  13.608  0.6021 -2.9422 -1.8315
 8762TIP3    H247702   3.308   3.780  13.637 -2.5995 -0.7435  2.6905
 8763TIP3   OH247703   5.681   5.016   3.840  0.7374  0.0747  0.4736
 8763TIP3    H147704   5.683   4.981   3.929 -1.6305 -0.9609  0.1770
 8763TIP3    H247705   5.703   4.942   3.784  1.2488  0.4764  0.1365
 8764TIP3   OH247706   1.175   2.247  15.039 -0.7535 -0.1295  0.6901
 8764TIP3    H147707   1.100   2.259  15.097  1.4458 -0.4785  3.7160
 8764TIP3    H247708   1.169   2.155  15.010 -1.0499 -0.4015  1.5984
 8765TIP3   OH247709   6.084   5.717   2.839 -0.4543  0.1800  0.0762
 8765TIP3    H147710   6.178   5.722   2.822 -0.0643 -0.5615  1.8456
 8765TIP3    H247711   6.042   5.752   2.760  1.2940  0.0251 -0.9276
 8766TIP3   OH247712   0.307   2.011  11.991 -0.2948 -0.1132  0.3484
 8766TIP3    H147713   0.224   2.034  11.950 -0.2856 -2.5377 -1.0820
 8766TIP3    H247714   0.286   1.999  12.084 -1.2878  0.4010  0.1966
 8767TIP3   OH247715   6.059   2.982  14.992  0.2242  0.5131  0.4275
 8767TIP3    H147716   5.981   2.927  14.986 -1.1297  2.5924 -2.0539
 8767TIP3    H247717   6.050   3.028  15.076 -0.1425 -0.7814  1.1113
 8768TIP3   OH247718   2.179   5.002  13.650 -0.0201  0.2736  0.4058
 8768TIP3    H147719   2.146   5.067  13.711 -0.1752 -0.2383  0.8649
 8768TIP3    H247720   2.259   5.041  13.615 -0.8182  1.2896 -0.3254
 8769TIP3   OH247721   6.596   5.476   5.831  0.2501  0.1129 -0.8206
 8769TIP3    H147722   6.585   5.428   5.913  0.0331  0.1338 -0.8373
 8769TIP3    H247723   6.514   5.464   5.784  0.7632 -0.7627 -1.5010
 8770TIP3   OH247724   3.249   4.298   2.377 -0.1840 -0.2501  0.1254
 8770TIP3    H147725   3.318   4.275   2.439 -1.9843 -1.6702  1.6416
 8770TIP3    H247726   3.189   4.224   2.379 -0.4772 -0.1562 -3.0626
 8771TIP3   OH247727   6.574   0.460  17.092  0.0321  0.9139  0.4728
 8771TIP3    H147728   6.574   0.541  17.041 -0.4506  0.9872  0.5875
 8771TIP3    H247729   6.538   0.485  17.177 -1.7119  0.2402 -0.0401
 8772TIP3   OH247730   6.272   2.950  16.552  0.1096 -0.1325  0.3015
 8772TIP3    H147731   6.283   2.893  16.475  1.0837  0.3612  0.0648
 8772TIP3    H247732   6.335   2.916  16.616 -1.7723 -1.4996  1.4661
 8773TIP3   OH247733   5.391   1.575  16.536 -0.0430 -0.0800 -0.0753
 8773TIP3    H147734   5.474   1.556  16.491  0.9585  1.4073  1.0529
 8773TIP3    H247735   5.326   1.522  16.492  1.4619 -0.9543 -1.2738
 8774TIP3   OH247736   2.022   5.068  12.195  0.0753 -0.0507 -0.2004
 8774TIP3    H147737   2.091   5.125  12.228 -0.7530  1.4184 -0.9904
 8774TIP3    H247738   2.034   4.986  12.243  1.6750  0.5666  0.4642
 8775TIP3   OH247739   5.652   3.460   3.460 -0.1387  0.5591 -0.1783
 8775TIP3    H147740   5.612   3.502   3.383 -2.0855 -0.6947  0.1094
 8775TIP3    H247741   5.716   3.399   3.423 -0.5015  0.5379 -0.7840
 8776TIP3   OH247742   5.462   3.758   0.107 -0.6880  0.0165  0.2026
 8776TIP3    H147743   5.435   3.673   0.073  0.7447 -0.6580  0.7433
 8776TIP3    H247744   5.410   3.770   0.187 -1.5595  0.0778 -0.3651
 8777TIP3   OH247745   6.098   5.163  16.701  0.3678 -0.5529 -0.2384
 8777TIP3    H147746   6.023   5.105  16.692 -1.2619  1.2076  1.5120
 8777TIP3    H247747   6.167   5.122  16.648 -1.4869 -2.7333 -1.0340
 8778TIP3   OH247748   2.932   6.398  17.152 -0.0065  0.2831 -0.3554
 8778TIP3    H147749   3.006   6.439  17.107 -1.1223  1.5269 -1.0965
 8778TIP3    H247750   2.924   6.312  17.111  1.5871 -0.2213  0.3602
 8779TIP3   OH247751   0.207   4.644   1.633 -0.9250 -0.0637  0.1318
 8779TIP3    H147752   0.293   4.618   1.668 -0.2948  1.7077 -0.0763
 8779TIP3    H247753   0.153   4.565   1.643  0.4420 -0.8971  1.1713
 8780TIP3   OH247754   0.100   3.452  15.257  0.1194 -0.8162 -0.2963
 8780TIP3    H147755   0.046   3.453  15.178 -0.4760 -2.9843  0.0710
 8780TIP3    H247756   0.038   3.443  15.328  0.6973  0.6230  0.4117
 8781TIP3   OH247757   6.618   5.943   0.452  0.4083 -0.5920 -0.2285
 8781TIP3    H147758   6.662   5.934   0.536 -1.7197  0.3472  1.0178
 8781TIP3    H247759   6.611   6.038   0.438  0.3391 -0.7394 -1.2435
 8782TIP3   OH247760   1.605   5.620  14.658  0.4156 -0.3962  0.3418
 8782TIP3    H147761   1.552   5.607  14.737 -0.6027 -0.8798 -0.4077
 8782TIP3    H247762   1.582   5.547  14.601  0.8466  0.1618 -0.5702
 8783TIP3   OH247763   5.402   4.075  16.450 -0.0233  0.5034 -0.8425
 8783TIP3    H147764   5.368   4.151  16.404  0.7242  0.4305 -1.5340
 8783TIP3    H247765   5.365   4.000  16.403  0.1294  0.4338 -0.8506
 8784TIP3   OH247766   0.358   4.692   5.394 -0.3164  0.6811  0.1056
 8784TIP3    H147767   0.304   4.699   5.316 -0.9338  0.3501  0.5050
 8784TIP3    H247768   0.344   4.603   5.426 -2.3515  1.7192  2.2536
 8785TIP3   OH247769   1.649   4.615  12.610  0.4275  0.6370  0.7458
 8785TIP3    H147770   1.611   4.545  12.663  0.6781  1.0699  1.5094
 8785TIP3    H247771   1.743   4.600  12.614  0.3075 -1.7160 -2.9248
 8786TIP3   OH247772   0.728   1.673  11.893  0.2353 -0.3607 -0.2601
 8786TIP3    H147773   0.726   1.597  11.835  1.1899 -0.8626  0.3561
 8786TIP3    H247774   0.749   1.746  11.835  3.1625 -1.1473 -0.2869
 8787TIP3   OH247775   4.992   6.357   4.326 -0.0091 -0.7500  0.3639
 8787TIP3    H147776   5.037   6.381   4.245 -0.4770 -1.5716 -0.1406
 8787TIP3    H247777   5.040   6.403   4.395  0.9519 -0.7809 -0.2832
 8788TIP3   OH247778   3.222   1.493  13.000 -0.0158 -0.0413  0.6970
 8788TIP3    H147779   3.223   1.584  13.029  1.2805 -0.3788  1.7849
 8788TIP3    H247780   3.191   1.444  13.076 -0.8498 -0.4967  0.0692
 8789TIP3   OH247781   2.567   4.172   2.783 -0.6705  0.0131  0.4488
 8789TIP3    H147782   2.512   4.104   2.744 -2.6316  0.5105  2.2578
 8789TIP3    H247783   2.536   4.253   2.743  1.1184 -0.0153 -1.0935
 8790TIP3   OH247784   1.810   4.374   5.468 -0.2900  0.0402  0.1969
 8790TIP3    H147785   1.811   4.413   5.555  1.1974 -0.5548  0.4563
 8790TIP3    H247786   1.892   4.326   5.462  0.0776  0.8579 -1.8786
 8791TIP3   OH247787   5.769   6.064  14.802  0.8857 -0.5476 -0.4301
 8791TIP3    H147788   5.686   6.055  14.757  0.2146 -0.7146  0.8239
 8791TIP3    H247789   5.795   6.155  14.786  0.0026 -0.2257 -0.0356
 8792TIP3   OH247790   4.643   4.897  14.181 -0.7424 -0.2765  0.3710
 8792TIP3    H147791   4.551   4.877  14.194 -0.8579 -0.1189 -0.1955
 8792TIP3    H247792   4.656   4.893  14.086 -0.2882  0.2375  0.4070
 8793TIP3   OH247793   3.841   5.973   3.016 -0.1833  0.1763  0.0797
 8793TIP3    H147794   3.866   6.065   3.007  0.2159  0.2134  1.4027
 8793TIP3    H247795   3.924   5.927   3.029 -0.5080 -0.1592  0.9918
 8794TIP3   OH247796   4.208   5.899   0.582  0.1604  0.2921  0.4632
 8794TIP3    H147797   4.301   5.885   0.563  0.4464  1.6578  0.7835
 8794TIP3    H247798   4.207   5.944   0.667 -0.8073 -0.0085  0.6210
 8795TIP3   OH247799   3.744   4.923   4.257 -0.1734 -0.3413  0.3274
 8795TIP3    H147800   3.818   4.873   4.292  0.8158 -0.3586 -1.7001
 8795TIP3    H247801   3.784   5.002   4.220 -1.4484  0.7674  1.2974
 8796TIP3   OH247802   3.185   1.759  12.371 -0.0066  0.3563  0.9863
 8796TIP3    H147803   3.183   1.744  12.465 -2.8055 -1.0876  0.7582
 8796TIP3    H247804   3.204   1.674  12.333 -0.8801  0.5003  0.1964
 8797TIP3   OH247805   5.850   3.209   0.319 -0.2890 -0.2100  0.7836
 8797TIP3    H147806   5.779   3.177   0.375 -0.0303 -0.2672  1.0814
 8797TIP3    H247807   5.914   3.244   0.381 -0.8491  1.4478  0.4509
 8798TIP3   OH247808   3.721   4.653  12.344  0.3055 -0.4236 -0.1599
 8798TIP3    H147809   3.748   4.671  12.254  0.4882  1.5751  0.2839
 8798TIP3    H247810   3.734   4.736  12.390 -1.1327 -1.0360  1.3785
 8799TIP3   OH247811   4.859   4.454   0.375  0.2112 -0.0067 -0.8150
 8799TIP3    H147812   4.900   4.373   0.346  2.2777 -0.1200  2.2125
 8799TIP3    H247813   4.871   4.515   0.303 -0.0205 -1.9160 -2.5161
 8800TIP3   OH247814   0.582   0.463  11.513 -0.1566  0.0960 -0.2310
 8800TIP3    H147815   0.563   0.370  11.529 -1.6886  0.2973 -0.7978
 8800TIP3    H247816   0.584   0.502  11.600 -0.7675 -0.2458 -0.0578
 8801TIP3   OH247817   3.693   5.240   5.226  0.0579 -0.9582 -0.4059
 8801TIP3    H147818   3.659   5.255   5.138  0.9210  3.7399 -0.0676
 8801TIP3    H247819   3.784   5.214   5.211  0.2941  0.1208 -0.9469
 8802TIP3   OH247820   1.744   5.161  15.796  0.0688 -0.7714  0.5624
 8802TIP3    H147821   1.655   5.185  15.823  0.4166  1.6463 -0.3276
 8802TIP3    H247822   1.801   5.201  15.862  0.5633 -1.2999  0.4664
 8803TIP3   OH247823   5.849   0.391   3.765 -0.9766  0.0399 -0.1034
 8803TIP3    H147824   5.865   0.482   3.739 -0.8704 -0.3852 -1.6067
 8803TIP3    H247825   5.764   0.370   3.726 -0.8668 -0.5873 -0.0116
 8804TIP3   OH247826   0.729   2.488  16.564  0.0344  0.8038 -0.4186
 8804TIP3    H147827   0.747   2.414  16.506  0.0686  0.6630 -0.2262
 8804TIP3    H247828   0.678   2.450  16.635 -2.0173  1.3995 -1.5319
 8805TIP3   OH247829   2.696   5.747   2.733 -0.4835 -0.1892  0.4588
 8805TIP3    H147830   2.788   5.771   2.744  0.0635 -0.8877 -2.1751
 8805TIP3    H247831   2.648   5.828   2.748  0.6426  0.4072  0.8906
 8806TIP3   OH247832   2.220   5.982  15.107  0.8550  0.1118  0.2842
 8806TIP3    H147833   2.132   6.016  15.124  0.5824 -0.8908  0.8690
 8806TIP3    H247834   2.251   6.032  15.031 -0.1005  0.6640  0.2589
 8807TIP3   OH247835   3.551   4.119   1.761  0.3217  0.0375 -0.0314
 8807TIP3    H147836   3.514   4.033   1.779  0.3766  0.0618  0.1959
 8807TIP3    H247837   3.483   4.181   1.785 -0.3340  0.0084 -1.7223
 8808TIP3   OH247838   6.609   3.585   1.743 -0.0972 -0.2876  0.1708
 8808TIP3    H147839   6.544   3.546   1.684  0.8233 -1.0556 -0.3388
 8808TIP3    H247840   6.629   3.517   1.806 -1.8229  0.8628  2.0129
 8809TIP3   OH247841   6.079   4.965  14.599 -0.1427  0.1438  0.4111
 8809TIP3    H147842   6.004   4.908  14.616 -0.1617 -0.4275 -1.4876
 8809TIP3    H247843   6.125   4.970  14.683  0.7057 -3.9110  0.2861
 8810TIP3   OH247844   0.977   5.108  15.147  0.3410  0.2001  0.3367
 8810TIP3    H147845   0.910   5.120  15.215  1.2564 -0.4616  1.3639
 8810TIP3    H247846   1.055   5.080  15.194  0.2293 -3.0472 -1.2401
 8811TIP3   OH247847   3.670   2.440   3.623 -0.3021  0.2265  0.5115
 8811TIP3    H147848   3.705   2.491   3.550 -1.9955 -0.1303 -0.5866
 8811TIP3    H247849   3.747   2.415   3.674  0.9308  0.3722 -1.2367
 8812TIP3   OH247850   3.804   1.806   0.391  0.0702  0.4722 -0.5008
 8812TIP3    H147851   3.757   1.736   0.345 -1.3386  1.2856 -0.3214
 8812TIP3    H247852   3.842   1.859   0.322 -1.0082  0.9857 -0.7087
 8813TIP3   OH247853   5.243   5.952  16.032 -0.9590 -1.1354  0.6489
 8813TIP3    H147854   5.306   5.970  16.102 -0.4970 -0.6610  0.1151
 8813TIP3    H247855   5.297   5.920  15.960 -1.1164  0.9585 -0.4321
 8814TIP3   OH247856   1.419   0.362  13.320  0.1271 -0.0419  0.2718
 8814TIP3    H147857   1.477   0.386  13.392 -0.3570 -1.0953  1.0430
 8814TIP3    H247858   1.413   0.266  13.326  0.3435 -0.1635 -1.3761
 8815TIP3   OH247859   4.592   6.428  12.271 -0.1737 -0.4755  0.0797
 8815TIP3    H147860   4.518   6.387  12.316 -0.0576 -1.0877 -0.2785
 8815TIP3    H247861   4.667   6.373  12.294  0.0348 -0.2962 -0.1641
 8816TIP3   OH247862   2.931   6.360  13.943 -0.7348  0.4704  0.2640
 8816TIP3    H147863   2.903   6.269  13.960 -2.3158  0.7638 -0.6938
 8816TIP3    H247864   3.015   6.351  13.898 -0.6813 -0.5117  0.5335
 8817TIP3   OH247865   0.840   1.410  10.567  0.0800 -0.1093 -0.4066
 8817TIP3    H147866   0.749   1.396  10.543  0.2638  0.3796 -1.4225
 8817TIP3    H247867   0.867   1.487  10.516  0.5119  0.9058  1.2952
 8818TIP3   OH247868   6.559   3.560   3.745  0.1205 -0.2630 -0.0145
 8818TIP3    H147869   6.501   3.637   3.742  0.1146 -0.2577  0.2425
 8818TIP3    H247870   6.647   3.596   3.732  0.0973 -0.2392 -0.1128
 8819TIP3   OH247871   2.834   3.730  11.196 -0.5010  0.0417  0.4033
 8819TIP3    H147872   2.797   3.814  11.168  0.8756  0.3939 -0.4313
 8819TIP3    H247873   2.908   3.754  11.251 -1.1044 -0.6469  1.5229
 8820TIP3   OH247874   6.091   2.589   5.217 -0.8025 -0.0224 -0.2149
 8820TIP3    H147875   6.100   2.494   5.218  2.0459  0.1549 -2.6500
 8820TIP3    H247876   5.997   2.604   5.204 -1.5060 -2.4353  1.7189
 8821TIP3   OH247877   2.898   2.156   5.412  0.8155  0.1397  0.4470
 8821TIP3    H147878   2.979   2.169   5.363  0.2837 -1.4228 -0.8593
 8821TIP3    H247879   2.838   2.221   5.376  0.2713 -1.3213 -1.3676
 8822TIP3   OH247880   3.994   1.051  14.646 -0.0280 -0.2097 -0.6581
 8822TIP3    H147881   3.969   0.962  14.622  2.6025 -1.3808  0.8700
 8822TIP3    H247882   4.060   1.076  14.581 -0.3470  0.4336 -0.7432
 8823TIP3   OH247883   6.642   5.743   2.477  0.1542 -0.1255 -0.0197
 8823TIP3    H147884   6.732   5.770   2.460  0.0125  2.1327  2.4576
 8823TIP3    H247885   6.607   5.811   2.535 -2.3402 -2.2595  1.0960
 8824TIP3   OH247886   0.656   0.578  11.763 -0.2178  0.7690  0.1518
 8824TIP3    H147887   0.677   0.488  11.790 -0.8047  0.6377  0.1685
 8824TIP3    H247888   0.694   0.633  11.831  0.3695  0.5468  0.0089
 8825TIP3   OH247889   2.016   6.442  13.041  0.0033 -0.9430 -0.0970
 8825TIP3    H147890   2.020   6.382  13.116  1.6026  1.3528  1.7521
 8825TIP3    H247891   1.969   6.519  13.074 -1.3264 -0.8413 -2.1800
 8826TIP3   OH247892   6.685   4.657   4.110 -0.5582  0.1036 -0.1323
 8826TIP3    H147893   6.622   4.590   4.086  0.2262 -1.2026  1.3868
 8826TIP3    H247894   6.634   4.723   4.157 -1.2632  0.4317 -1.3260
 8827TIP3   OH247895   1.484   2.574  12.672  0.1638 -0.1092  0.0511
 8827TIP3    H147896   1.458   2.648  12.726  2.3434 -0.4492  1.6390
 8827TIP3    H247897   1.456   2.497  12.720 -0.3638 -0.3664 -0.6576
 8828TIP3   OH247898   5.757   5.723   2.382  0.2956  0.1722 -0.5448
 8828TIP3    H147899   5.750   5.785   2.454  1.6324  1.1525 -1.2254
 8828TIP3    H247900   5.851   5.722   2.361  0.4260 -2.7080  0.0016
 8829TIP3   OH247901   5.747   1.764   4.156  0.5766 -0.3952  0.5787
 8829TIP3    H147902   5.661   1.799   4.131 -0.6280 -4.2163 -1.0750
 8829TIP3    H247903   5.805   1.794   4.086  0.2109  0.7141  0.7386
 8830TIP3   OH247904   1.572   1.163   1.347 -0.1425 -0.4471 -0.3613
 8830TIP3    H147905   1.617   1.087   1.384 -0.6903  0.1687  1.6540
 8830TIP3    H247906   1.607   1.238   1.396  0.4062  0.6376 -2.3336
 8831TIP3   OH247907   2.156   4.244   1.607  0.5735 -0.5594  0.2522
 8831TIP3    H147908   2.176   4.271   1.697  2.3209 -0.1351 -0.2417
 8831TIP3    H247909   2.149   4.149   1.612 -1.4349 -0.3783  1.2218
 8832TIP3   OH247910   4.967   4.384  13.565  0.0490 -0.3204  0.3128
 8832TIP3    H147911   4.987   4.319  13.632  0.2768 -0.2972  0.2659
 8832TIP3    H247912   4.907   4.446  13.608 -0.8515 -1.0360  0.1013
 8833TIP3   OH247913   5.599   3.711  13.122 -0.3229  0.0772  0.0600
 8833TIP3    H147914   5.609   3.664  13.205 -1.5537 -0.1957  0.0663
 8833TIP3    H247915   5.620   3.645  13.055 -0.3317  0.0130  0.1188
 8834TIP3   OH247916   4.392   1.150   0.631 -0.0741 -0.0721 -0.0244
 8834TIP3    H147917   4.402   1.235   0.589  0.3231 -0.6917 -1.2011
 8834TIP3    H247918   4.380   1.170   0.724  1.1687  1.2164 -0.1293
 8835TIP3   OH247919   6.080   3.495   1.949 -0.2431 -0.3234 -0.4642
 8835TIP3    H147920   6.143   3.545   1.897 -1.2166  0.8560 -0.5421
 8835TIP3    H247921   6.003   3.552   1.954 -1.5504 -1.9983 -0.9364
 8836TIP3   OH247922   5.910   1.042  14.504  0.0424 -0.1400  0.1742
 8836TIP3    H147923   5.983   1.092  14.543  0.7154 -1.0878  0.1510
 8836TIP3    H247924   5.889   0.975  14.570  0.8058 -1.3883 -0.8253
 8837TIP3   OH247925   5.231   3.707  13.639 -0.1487  0.3601 -0.2400
 8837TIP3    H147926   5.290   3.743  13.705 -0.8319  1.9702 -0.4837
 8837TIP3    H247927   5.199   3.783  13.591 -1.0885 -0.6386 -1.2344
 8838TIP3   OH247928   5.850   3.129  11.909  0.1987 -0.1538 -0.9762
 8838TIP3    H147929   5.800   3.077  11.846 -2.6665  1.3639 -0.0325
 8838TIP3    H247930   5.855   3.074  11.987 -1.1573  0.1854 -0.6365
 8839TIP3   OH247931   3.133   2.949   5.412 -0.2522 -0.0472  0.2440
 8839TIP3    H147932   3.208   2.913   5.458  0.1347 -1.4030 -1.4095
 8839TIP3    H247933   3.166   3.029   5.370  0.4253 -0.8972 -0.8829
 8840TIP3   OH247934   0.797   5.338   6.670 -0.7606  0.0971 -0.6380
 8840TIP3    H147935   0.844   5.256   6.682 -2.4975 -1.1134 -1.9262
 8840TIP3    H247936   0.863   5.398   6.634  0.6365 -0.5581  0.7442
 8841TIP3   OH247937   3.957   6.175  11.881  0.2415  0.4143  0.1745
 8841TIP3    H147938   4.043   6.182  11.840 -0.6434 -0.1545 -1.8662
 8841TIP3    H247939   3.902   6.234  11.830 -0.7461  0.2108  0.9905
 8842TIP3   OH247940   3.739   3.001  14.797  0.2820  0.1574 -0.4246
 8842TIP3    H147941   3.655   3.014  14.841  0.1375  0.1159 -0.6850
 8842TIP3    H247942   3.727   3.042  14.711  0.8533  1.0215 -0.1010
 8843TIP3   OH247943   6.185   5.107  13.167  0.1358 -0.1105  0.4987
 8843TIP3    H147944   6.202   5.149  13.083 -0.8580  0.4341  0.5641
 8843TIP3    H247945   6.186   5.178  13.230  1.9219 -0.6560  1.1084
 8844TIP3   OH247946   6.164   4.432   4.838 -0.3708 -0.2530 -0.0741
 8844TIP3    H147947   6.230   4.448   4.770  0.3705 -1.1981  0.4033
 8844TIP3    H247948   6.127   4.518   4.857  0.0183  0.1393 -1.0759
 8845TIP3   OH247949   5.138   3.722  14.782  0.3552 -0.3690  0.1669
 8845TIP3    H147950   5.201   3.790  14.759  1.1895 -0.8123  1.0992
 8845TIP3    H247951   5.181   3.672  14.851 -0.1628 -1.9548 -0.6315
 8846TIP3   OH247952   4.584   2.745  12.513  0.0577 -0.0251  0.0339
 8846TIP3    H147953   4.512   2.751  12.451 -0.3958  0.8081  0.6179
 8846TIP3    H247954   4.623   2.832  12.513 -1.6449  0.8207  2.8884
 8847TIP3   OH247955   3.783   1.062  14.811 -0.0254  0.3650  0.3045
 8847TIP3    H147956   3.763   1.155  14.798 -2.1968 -0.3418 -1.7918
 8847TIP3    H247957   3.870   1.051  14.773 -0.3065  1.2970 -0.6323
 8848TIP3   OH247958   1.969   3.909  13.399  0.1668 -0.5024 -0.4088
 8848TIP3    H147959   2.010   3.932  13.316  0.4624 -0.6644 -0.3112
 8848TIP3    H247960   2.015   3.830  13.427  1.0495  0.3584  0.6129
 8849TIP3   OH247961   4.449   4.744  11.107 -0.0161 -0.1695  0.4541
 8849TIP3    H147962   4.482   4.680  11.043  0.8020  0.1629  0.5376
 8849TIP3    H247963   4.361   4.765  11.076  0.4004  0.0481 -0.6240
 8850TIP3   OH247964   4.075   2.219  12.979 -0.1939  0.5315  0.1022
 8850TIP3    H147965   4.127   2.290  12.940  1.0162 -1.0573 -1.2320
 8850TIP3    H247966   4.135   2.144  12.983 -1.4710 -0.4481  1.4580
 8851TIP3   OH247967   1.467   3.407  12.305  0.4163 -0.4011  0.3005
 8851TIP3    H147968   1.534   3.361  12.255  0.3366  1.0174 -1.1289
 8851TIP3    H247969   1.389   3.403  12.250 -0.9688 -2.7953  2.3148
 8852TIP3   OH247970   1.583   4.949  11.067 -0.5670 -0.0537 -0.7406
 8852TIP3    H147971   1.614   4.865  11.101 -0.1466  0.2378 -0.3869
 8852TIP3    H247972   1.625   5.014  11.123 -2.5638  0.3375  0.3596
 8853TIP3   OH247973   5.270   6.424  16.143  0.6989 -0.1243  0.3514
 8853TIP3    H147974   5.217   6.346  16.125  0.6304  0.0488 -0.1775
 8853TIP3    H247975   5.217   6.497  16.111  1.6721 -0.0242 -1.0263
 8854TIP3   OH247976   3.938   2.682  13.792  0.4269 -0.6495  0.1072
 8854TIP3    H147977   3.915   2.705  13.702 -0.2103 -0.2114  0.3752
 8854TIP3    H247978   4.033   2.671  13.791  0.5974  0.7114 -0.3224
 8855TIP3   OH247979   1.047   1.981  12.046  0.0550 -0.3064 -0.0833
 8855TIP3    H147980   1.035   2.049  12.112  1.3151  0.2711 -0.4435
 8855TIP3    H247981   0.996   1.907  12.078  0.0789  0.2144  1.1692
 8856TIP3   OH247982   1.633   6.357   1.274 -0.2794  0.0298 -0.5642
 8856TIP3    H147983   1.668   6.401   1.196 -0.2403  0.7141 -0.1702
 8856TIP3    H247984   1.686   6.278   1.284  1.0548  0.9678 -0.0714
 8857TIP3   OH247985   3.015   0.145  16.295  0.2340 -0.3715  0.2485
 8857TIP3    H147986   2.991   0.199  16.220  0.2414 -1.4607 -0.5625
 8857TIP3    H247987   3.104   0.171  16.316 -0.2149  0.8292  0.6867
 8858TIP3   OH247988   3.801   1.154   5.577  0.2716  0.4756 -0.4587
 8858TIP3    H147989   3.896   1.154   5.562  0.3324  0.6724 -0.0722
 8858TIP3    H247990   3.791   1.177   5.669 -0.2321  2.9183 -1.0921
 8859TIP3   OH247991   3.075   1.312  11.601  0.1925  0.0635  0.1944
 8859TIP3    H147992   2.994   1.274  11.567 -0.9987  2.4016  0.3919
 8859TIP3    H247993   3.068   1.302  11.696  1.4889 -2.3500  0.0899
 8860TIP3   OH247994   3.487   2.953  11.583 -0.5487  0.1239  0.1488
 8860TIP3    H147995   3.569   2.981  11.624 -0.6162  4.2123 -2.1911
 8860TIP3    H247996   3.419   2.987  11.640 -0.5958  1.3692 -0.6194
 8861TIP3   OH247997   5.890   3.892  14.000 -0.7230  0.2330 -0.3513
 8861TIP3    H147998   5.890   3.860  14.090  0.2881 -0.4692 -0.5896
 8861TIP3    H247999   5.835   3.970  14.002 -2.8596 -1.2343  0.3460
 8862TIP3   OH248000   2.697   6.733   4.295 -0.0580 -0.0787  0.5867
 8862TIP3    H148001   2.658   6.658   4.252  0.8456 -0.1897 -0.0264
 8862TIP3    H248002   2.780   6.701   4.330  0.1856  0.5495  0.5913
 8863TIP3   OH248003   3.561   2.234  12.978 -0.2713  0.2018  0.4229
 8863TIP3    H148004   3.498   2.185  13.031 -2.4444  2.2555 -0.2072
 8863TIP3    H248005   3.508   2.278  12.912  1.9252  1.3675 -0.6064
 8864TIP3   OH248006   0.588   2.266   2.505  0.2254  0.0055  0.1132
 8864TIP3    H148007   0.618   2.265   2.414 -0.0564  0.0496  0.0181
 8864TIP3    H248008   0.668   2.267   2.557  0.4212 -2.3202 -0.0956
 8865TIP3   OH248009   0.712   4.114   2.442  0.0281 -0.2763 -0.3858
 8865TIP3    H148010   0.766   4.106   2.520  2.0815  0.7381 -1.6625
 8865TIP3    H248011   0.752   4.053   2.379 -1.5118 -0.9810 -0.7095
 8866TIP3   OH248012   6.024   3.026   0.143  0.0304 -0.6573 -0.3086
 8866TIP3    H148013   5.943   3.049   0.098 -0.0425 -0.1816  0.0576
 8866TIP3    H248014   6.016   3.067   0.229  0.6329 -0.6637 -0.2460
 8867TIP3   OH248015   0.048   3.140   5.304  0.1321  0.3526  0.3093
 8867TIP3    H148016   0.002   3.213   5.264  1.0685  0.8604  0.1383
 8867TIP3    H248017  -0.018   3.095   5.356 -0.5082  1.1664  0.2055
 8868TIP3   OH248018   3.881   3.663   4.251  0.2036  0.0004  0.3294
 8868TIP3    H148019   3.891   3.643   4.158  1.4812 -0.4596  0.5502
 8868TIP3    H248020   3.909   3.754   4.260  1.2972 -0.3461  0.4611
 8869TIP3   OH248021   5.486   2.396   6.187 -0.2112 -0.4360  0.4931
 8869TIP3    H148022   5.568   2.425   6.227 -0.1249 -0.3479  0.2578
 8869TIP3    H248023   5.504   2.306   6.158  0.0021 -0.2043 -0.1056
 8870TIP3   OH248024   2.282   0.028   3.927 -0.1103  0.1227 -0.7622
 8870TIP3    H148025   2.337   0.084   3.872  0.5174 -0.2182 -0.4897
 8870TIP3    H248026   2.335   0.012   4.005  0.2963 -1.9883 -1.4343
 8871TIP3   OH248027   1.133   3.652  12.561  0.1749 -0.0811 -0.0045
 8871TIP3    H148028   1.221   3.631  12.532  1.8240  1.5189  3.4878
 8871TIP3    H248029   1.103   3.574  12.607  0.0371 -0.3923 -0.6253
 8872TIP3   OH248030   4.107   2.075   2.430 -0.6906 -0.0415 -0.1449
 8872TIP3    H148031   4.121   2.020   2.507 -0.3002  1.1349  0.6205
 8872TIP3    H248032   4.072   2.014   2.364  1.1748 -1.5276  0.1965
 8873TIP3   OH248033   5.181   2.384  11.330  0.1103  0.3896  0.1276
 8873TIP3    H148034   5.262   2.336  11.314 -1.7101 -2.1660 -1.9869
 8873TIP3    H248035   5.133   2.378  11.247 -2.4970  1.2488  1.5115
 8874TIP3   OH248036   4.710   5.380   4.081 -0.5225  0.8382  0.3562
 8874TIP3    H148037   4.667   5.417   4.157 -4.0541  0.2070 -1.2207
 8874TIP3    H248038   4.696   5.444   4.011  0.8249  0.4575 -0.2852
 8875TIP3   OH248039   4.454   4.172  14.291  0.2417 -0.4719  0.1934
 8875TIP3    H148040   4.432   4.221  14.212 -2.7848 -0.0899  1.2262
 8875TIP3    H248041   4.522   4.225  14.333  2.3113 -0.9668 -2.3602
 8876TIP3   OH248042   0.065   6.247  13.216 -0.2274 -0.3241 -0.0802
 8876TIP3    H148043   0.157   6.236  13.241 -0.5936  0.7042  1.7557
 8876TIP3    H248044   0.068   6.270  13.123  1.4474  0.9962  0.2816
 8877TIP3   OH248045   4.474   1.054  14.067 -0.1523 -0.2350 -0.3892
 8877TIP3    H148046   4.418   1.046  13.990 -1.1294  1.4638  0.1068
 8877TIP3    H248047   4.423   1.015  14.138 -0.6327  1.0820  0.0119
 8878TIP3   OH248048   1.667   1.679   0.235  0.0248  0.2498  0.2312
 8878TIP3    H148049   1.709   1.763   0.253  0.9030  0.2964 -1.8515
 8878TIP3    H248050   1.717   1.616   0.287  1.4414  0.5788 -0.6969
 8879TIP3   OH248051   5.490   4.396   3.606  0.3376 -0.1484  0.0152
 8879TIP3    H148052   5.554   4.424   3.541 -0.2107  0.5184 -0.2350
 8879TIP3    H248053   5.505   4.453   3.681 -1.3099  1.3737 -0.7861
 8880TIP3   OH248054   1.727   2.301  10.878 -0.4532 -0.2903  0.3348
 8880TIP3    H148055   1.818   2.281  10.857 -0.9007  0.3083 -2.3931
 8880TIP3    H248056   1.729   2.390  10.913  0.1110 -0.6451  1.2265
 8881TIP3   OH248057   0.535   5.098  16.285 -0.7330 -0.7350  0.5077
 8881TIP3    H148058   0.556   5.051  16.366 -1.5851 -0.8373  0.6700
 8881TIP3    H248059   0.581   5.049  16.217 -1.9196 -2.0252  0.6252
 8882TIP3   OH248060   6.311   5.700  14.325  0.9859 -0.6260 -0.2913
 8882TIP3    H148061   6.248   5.750  14.274  1.8018  0.6655 -0.0576
 8882TIP3    H248062   6.260   5.630  14.365 -0.2902  0.4078 -0.0989
 8883TIP3   OH248063   3.978   5.965  12.815  0.2925 -0.0446  0.3649
 8883TIP3    H148064   4.012   5.958  12.905 -0.6905 -1.2490  0.6636
 8883TIP3    H248065   3.897   6.014  12.824  1.0399  1.3160 -0.1166
 8884TIP3   OH248066   5.242   2.218  12.553  0.2440  0.5465  0.2570
 8884TIP3    H148067   5.266   2.220  12.460  0.0219 -0.8747  0.1475
 8884TIP3    H248068   5.322   2.243  12.599  0.7453 -0.0636 -0.2750
 8885TIP3   OH248069   0.105   3.013  13.562 -0.6673 -0.0703 -0.1200
 8885TIP3    H148070   0.139   3.089  13.610 -1.0771 -0.1152  0.2402
 8885TIP3    H248071   0.183   2.973  13.522 -0.5433  1.0224 -1.0131
 8886TIP3   OH248072   2.591   0.940  16.025 -0.4271 -0.1400 -0.6401
 8886TIP3    H148073   2.589   0.920  15.931 -0.4513  1.3107 -0.9532
 8886TIP3    H248074   2.510   0.989  16.041 -0.8779 -1.1702  0.3330
 8887TIP3   OH248075   6.604   2.598   1.794  0.1056  0.0106  0.1354
 8887TIP3    H148076   6.694   2.588   1.823 -0.3228 -1.2559  1.0644
 8887TIP3    H248077   6.601   2.686   1.756  1.2652  0.7955  1.8114
 8888TIP3   OH248078   2.482   5.248   0.439  0.1454 -0.1514 -0.3593
 8888TIP3    H148079   2.413   5.312   0.424 -2.1931 -2.9925 -2.6168
 8888TIP3    H248080   2.558   5.283   0.393 -0.4778  1.9312  0.1535
 8889TIP3   OH248081   5.727   1.158  15.357  0.3718 -0.0992 -0.1819
 8889TIP3    H148082   5.791   1.207  15.409  0.1545  1.2142 -1.1241
 8889TIP3    H248083   5.709   1.080  15.409  0.5039  0.9547  1.4999
 8890TIP3   OH248084   1.021   6.258  16.954 -0.6277  0.0080  0.0192
 8890TIP3    H148085   1.061   6.336  16.915 -1.0335 -0.3702 -1.1780
 8890TIP3    H248086   0.934   6.287  16.982 -0.5912  0.1152  0.0227
 8891TIP3   OH248087   0.251   0.664   5.886 -0.0304  0.2117 -0.0233
 8891TIP3    H148088   0.218   0.597   5.826  1.4438 -0.0223 -0.5730
 8891TIP3    H248089   0.278   0.615   5.964 -0.8315  0.3960  0.3847
 8892TIP3   OH248090   4.719   5.185  10.704 -0.1685  0.4678 -0.0777
 8892TIP3    H148091   4.783   5.251  10.732  1.2944 -0.9744  0.1043
 8892TIP3    H248092   4.766   5.133  10.639 -0.6879 -1.4400  1.0360
 8893TIP3   OH248093   3.549   3.921   0.640  0.3777  1.0333  0.6915
 8893TIP3    H148094   3.498   3.989   0.685  0.3751 -0.0303  2.3492
 8893TIP3    H248095   3.490   3.888   0.572 -1.4393 -0.5872  2.9526
 8894TIP3   OH248096   1.613   6.285  16.878 -0.3242 -0.1260  0.0886
 8894TIP3    H148097   1.548   6.275  16.947 -0.3711 -0.8258 -0.0509
 8894TIP3    H248098   1.573   6.245  16.801 -1.2555  2.7478 -1.0078
 8895TIP3   OH248099   0.564   6.738   0.781 -0.8282  0.1324 -0.4777
 8895TIP3    H148100   0.534   6.713   0.868 -1.7443  1.1425 -0.4838
 8895TIP3    H248101   0.659   6.736   0.786 -0.8715  0.6678  0.6953
 8896TIP3   OH248102   1.387   6.151   3.473 -0.0650  0.2394  0.5144
 8896TIP3    H148103   1.449   6.079   3.485  0.5018  0.7628  0.7779
 8896TIP3    H248104   1.335   6.152   3.553  0.6750  0.8271  0.9998
 8897TIP3   OH248105   3.641   0.880   0.746  0.1132  0.4210  0.2639
 8897TIP3    H148106   3.688   0.963   0.746  0.7327  0.0726  1.1035
 8897TIP3    H248107   3.549   0.905   0.740  0.3715  1.1108 -1.1106
 8898TIP3   OH248108   2.249   3.882   2.842  0.8215  0.1735 -0.1919
 8898TIP3    H148109   2.239   3.959   2.899 -1.6355 -0.0802 -0.2313
 8898TIP3    H248110   2.309   3.825   2.890  1.6920  1.5679  0.4190
 8899TIP3   OH248111   1.814   2.988   3.285 -0.5029  0.0790 -0.4467
 8899TIP3    H148112   1.762   3.044   3.227 -1.2129  0.8655  0.9137
 8899TIP3    H248113   1.877   3.047   3.326  0.5894 -0.6358 -1.0770
 8900TIP3   OH248114   5.091   4.910  13.458  0.4030  0.2956 -0.4877
 8900TIP3    H148115   5.033   4.849  13.413 -0.2431 -0.0683  0.8306
 8900TIP3    H248116   5.147   4.855  13.513  0.1764  0.8426  0.2959
 8901TIP3   OH248117   4.081   0.208  15.542 -0.0263  0.0381 -0.6741
 8901TIP3    H148118   4.005   0.198  15.485  0.1699 -1.2374 -0.7392
 8901TIP3    H248119   4.103   0.301  15.537 -0.5155  0.0925 -2.0196
 8902TIP3   OH248120   6.732   3.752  13.199 -0.3575  0.2726 -0.0610
 8902TIP3    H148121   6.764   3.823  13.144 -2.0210  1.2662  0.2098
 8902TIP3    H248122   6.642   3.778  13.222 -0.4636 -1.1913  1.2782
 8903TIP3   OH248123   5.831   0.573   2.011 -0.0097  0.0468  0.6985
 8903TIP3    H148124   5.917   0.610   1.991  0.1814 -0.8446 -0.1177
 8903TIP3    H248125   5.769   0.637   1.978  0.3218 -0.4094 -0.8183
 8904TIP3   OH248126   1.535   2.194   2.122  0.0282 -0.2401  0.2936
 8904TIP3    H148127   1.526   2.113   2.070 -2.0238  0.2925 -0.2553
 8904TIP3    H248128   1.624   2.224   2.105  0.2733 -1.5365 -0.7918
 8905TIP3   OH248129   6.000   1.010   1.917 -0.5775  0.0413  0.4931
 8905TIP3    H148130   5.994   1.082   1.854  2.2445  1.9697  2.3513
 8905TIP3    H248131   5.957   1.043   1.996  0.6291 -0.3424  1.3287
 8906TIP3   OH248132   6.615   5.843  13.862  0.3034  0.2137 -0.1975
 8906TIP3    H148133   6.705   5.832  13.893 -0.0231 -0.0581  0.6809
 8906TIP3    H248134   6.571   5.890  13.933 -0.6480 -1.0785  0.0949
 8907TIP3   OH248135   2.490   2.160  11.603 -0.3292 -0.0234 -0.3825
 8907TIP3    H148136   2.520   2.239  11.557  1.2198 -0.8042 -0.7707
 8907TIP3    H248137   2.504   2.090  11.539 -1.4119 -0.6578  0.0720
 8908TIP3   OH248138   2.952   2.538  15.219  0.1791  0.4291 -0.3815
 8908TIP3    H148139   3.011   2.525  15.293 -1.2555  1.5704  1.0141
 8908TIP3    H248140   2.899   2.614  15.244 -1.7254 -0.4198 -1.6818
 8909TIP3   OH248141   3.378   4.420   3.671  0.3759  0.3523  0.1961
 8909TIP3    H148142   3.346   4.400   3.759 -0.8703 -2.5509 -0.8736
 8909TIP3    H248143   3.434   4.346   3.648  1.9855  1.8401 -0.8775
 8910TIP3   OH248144   1.094   4.282   5.634  0.0556 -0.1729 -0.5301
 8910TIP3    H148145   1.072   4.232   5.713 -1.5671  1.8984  0.3633
 8910TIP3    H248146   1.178   4.323   5.654 -0.2498  0.1747  0.0379
 8911TIP3   OH248147   3.830   6.455   0.730 -0.4667 -0.5094 -0.7552
 8911TIP3    H148148   3.920   6.462   0.761 -0.5866  0.9086 -0.7057
 8911TIP3    H248149   3.800   6.370   0.762  0.9850 -1.1830 -1.1350
 8912TIP3   OH248150   6.549   4.084   0.408 -0.2823 -0.9763 -0.6553
 8912TIP3    H148151   6.619   4.023   0.431 -0.1751 -1.1738 -1.4888
 8912TIP3    H248152   6.470   4.030   0.404 -0.4767 -0.7587  0.2563
 8913TIP3   OH248153   6.617   2.845  15.544  0.2955  0.4156  0.4185
 8913TIP3    H148154   6.658   2.857  15.458 -0.1644 -1.6865 -0.1381
 8913TIP3    H248155   6.553   2.916  15.551  1.2671  1.3756 -0.4031
 8914TIP3   OH248156   6.691   5.421   4.093  0.6330 -1.0925  0.2038
 8914TIP3    H148157   6.746   5.469   4.156 -1.2825  1.1732  0.2000
 8914TIP3    H248158   6.644   5.357   4.147  2.1522 -2.0546  0.4208
 8915TIP3   OH248159   5.866   4.659   3.235 -0.4372 -0.2366 -0.2833
 8915TIP3    H148160   5.862   4.566   3.256 -2.1013 -0.0948  0.0620
 8915TIP3    H248161   5.956   4.672   3.203 -0.1616 -1.9311 -0.2603
 8916TIP3   OH248162   0.106   2.363  14.999 -0.1583  0.1458 -0.5212
 8916TIP3    H148163   0.111   2.426  15.072 -0.7348  1.5020 -1.6297
 8916TIP3    H248164   0.012   2.344  14.991 -0.1329  0.3071 -1.1759
 8917TIP3   OH248165   4.354   3.032   3.630  0.3698 -0.1320  0.4687
 8917TIP3    H148166   4.431   3.071   3.589  0.8815  1.7552  3.1497
 8917TIP3    H248167   4.281   3.088   3.604  0.1758 -0.8367 -0.5298
 8918TIP3   OH248168   0.327   6.351   2.549  0.1294  0.2037 -0.3799
 8918TIP3    H148169   0.338   6.445   2.557  3.0585 -0.2784  2.1092
 8918TIP3    H248170   0.269   6.327   2.621  0.9536 -0.1235  0.1838
 8919TIP3   OH248171   5.904   1.385   0.295  0.3964 -0.3439  0.0815
 8919TIP3    H148172   5.897   1.457   0.358  1.0065  0.5106 -0.8028
 8919TIP3    H248173   5.960   1.321   0.338 -2.1011 -1.4331  1.8856
 8920TIP3   OH248174   3.728   1.786   3.394  0.3052  0.5721 -0.2222
 8920TIP3    H148175   3.736   1.809   3.487  0.2895 -2.5009  0.5768
 8920TIP3    H248176   3.633   1.786   3.377  0.2226 -0.7074  0.2442
 8921TIP3   OH248177   2.360   6.257   4.061  0.3353  0.4656  0.2469
 8921TIP3    H148178   2.439   6.219   4.100 -0.6049 -0.9844  0.7645
 8921TIP3    H248179   2.298   6.262   4.133 -0.8356 -0.6005 -0.6723
 8922TIP3   OH248180   3.444   3.976  12.132  0.3101  0.6596 -0.2985
 8922TIP3    H148181   3.491   3.905  12.174 -0.5815 -0.5843 -1.3688
 8922TIP3    H248182   3.478   3.978  12.043  1.1964  2.3754  0.0609
 8923TIP3   OH248183   4.048   1.298   2.619 -0.2756  0.4009  0.5252
 8923TIP3    H148184   3.960   1.317   2.653  0.2002  0.5061  1.6953
 8923TIP3    H248185   4.071   1.377   2.570 -0.1050  1.1165  1.7234
 8924TIP3   OH248186   4.084   0.325  13.381 -0.1924  0.2956  0.3857
 8924TIP3    H148187   4.078   0.390  13.451  0.1556  1.7297 -0.8914
 8924TIP3    H248188   4.007   0.339  13.327  0.6262  0.6248 -0.7157
 8925TIP3   OH248189   2.732   2.649  11.276 -0.0502 -0.5203 -0.1103
 8925TIP3    H148190   2.817   2.645  11.320 -0.8457 -0.3059  1.4623
 8925TIP3    H248191   2.700   2.737  11.293 -1.9221 -1.5458  1.8410
 8926TIP3   OH248192   4.396   0.161  14.624 -0.5980  0.2023 -0.3399
 8926TIP3    H148193   4.362   0.083  14.668 -1.1506  1.1693  1.0202
 8926TIP3    H248194   4.338   0.232  14.654 -0.3650  1.0659 -1.8763
 8927TIP3   OH248195   5.067   2.482   2.305 -0.7998 -0.1734 -0.7601
 8927TIP3    H148196   5.006   2.431   2.252  0.1081 -0.4740 -1.5308
 8927TIP3    H248197   5.148   2.432   2.303 -0.2667  0.6778 -0.4852
 8928TIP3   OH248198   6.771   1.293   0.609  0.3424  0.0412 -0.2199
 8928TIP3    H148199   6.754   1.346   0.687 -0.9398 -0.0586 -0.4126
 8928TIP3    H248200   6.827   1.222   0.640  0.2115  0.2604  0.5241
 8929TIP3   OH248201   4.840   5.070  14.629 -0.3951 -0.1942  0.0719
 8929TIP3    H148202   4.792   5.134  14.576 -1.3905 -1.0010 -0.0165
 8929TIP3    H248203   4.772   5.012  14.664  0.3315 -0.1768  1.5573
 8930TIP3   OH248204   4.202   3.360  11.971  0.4738 -0.0718  0.4573
 8930TIP3    H148205   4.169   3.274  11.993  1.5420 -0.4458  0.6140
 8930TIP3    H248206   4.140   3.421  12.011 -0.7792 -0.7619 -0.4104
 8931TIP3   OH248207   0.970   6.209   0.894  0.6991 -0.3894 -0.5294
 8931TIP3    H148208   1.038   6.275   0.905  0.5305 -0.1492 -0.9218
 8931TIP3    H248209   0.888   6.256   0.907  0.6317 -0.8640  0.8468
 8932TIP3   OH248210   4.356   5.962  11.723 -0.1258 -0.0564  0.1739
 8932TIP3    H148211   4.315   5.878  11.745 -0.4041  0.2857  0.9891
 8932TIP3    H248212   4.450   5.943  11.718  0.1105  0.1011  3.0331
 8933TIP3   OH248213   5.096   1.945  16.962 -1.0301 -0.3873  0.5524
 8933TIP3    H148214   5.166   1.895  17.006 -1.0040  0.1196  1.0864
 8933TIP3    H248215   5.025   1.948  17.026 -1.6184 -1.0491 -0.0584
 8934TIP3   OH248216   2.467   1.802  15.683  0.3926  0.1090 -0.3365
 8934TIP3    H148217   2.487   1.854  15.605  0.3522 -0.6984 -0.8861
 8934TIP3    H248218   2.455   1.713  15.651  1.8483 -0.5173  0.7728
 8935TIP3   OH248219   4.229   3.715  15.498 -0.2231 -0.1340  0.1581
 8935TIP3    H148220   4.176   3.767  15.437 -1.2340  0.0806  1.2076
 8935TIP3    H248221   4.179   3.634  15.510 -0.5266  0.2444  1.4740
 8936TIP3   OH248222   2.275   6.303  16.607  0.0151 -0.5020  0.4733
 8936TIP3    H148223   2.245   6.232  16.664  0.0490  0.0679  1.2104
 8936TIP3    H248224   2.354   6.337  16.650 -0.0972  0.0955  0.2131
 8937TIP3   OH248225   3.377   5.309   4.761 -0.2252  0.3263  0.3258
 8937TIP3    H148226   3.437   5.324   4.689 -1.9264 -0.0177 -1.1850
 8937TIP3    H248227   3.296   5.354   4.736 -1.6045 -1.7266  0.9305
 8938TIP3   OH248228   6.611   0.905   1.660 -0.0948  0.4463 -0.1447
 8938TIP3    H148229   6.525   0.876   1.631  0.0031 -1.1889  1.1648
 8938TIP3    H248230   6.637   0.843   1.728  1.8810  1.2379 -0.1233
 8939TIP3   OH248231   3.934   5.539  13.180 -0.0928 -0.1174 -0.7222
 8939TIP3    H148232   3.899   5.580  13.101  2.6910  1.8456 -1.0245
 8939TIP3    H248233   4.025   5.568  13.183  0.1290 -0.9767  2.6734
 8940TIP3   OH248234   2.375   6.100  16.097  0.0319  0.0310 -0.2833
 8940TIP3    H148235   2.335   6.036  16.157  0.5503 -1.0816 -1.1034
 8940TIP3    H248236   2.429   6.155  16.153 -1.3867  0.5532  0.6206
 8941TIP3   OH248237   0.233   0.694   1.910  0.0828  0.3182  0.1514
 8941TIP3    H148238   0.318   0.652   1.899  0.6514  1.6576 -0.6752
 8941TIP3    H248239   0.194   0.691   1.823 -1.1184 -1.1143  0.7187
 8942TIP3   OH248240   1.341   0.408   3.632 -0.0343 -0.9332  0.6414
 8942TIP3    H148241   1.288   0.484   3.607  0.0134 -0.0611  3.0464
 8942TIP3    H248242   1.387   0.436   3.711  2.2023 -2.5144 -0.0537
 8943TIP3   OH248243   4.067   4.409   5.245  0.0641  0.9021 -0.0287
 8943TIP3    H148244   4.019   4.327   5.229 -0.4539  0.9002  1.4624
 8943TIP3    H248245   4.068   4.418   5.340  1.2686  1.9619 -0.1346
 8944TIP3   OH248246   3.099   3.247   4.051  0.1704 -0.0774  0.1959
 8944TIP3    H148247   3.067   3.304   3.982  0.6444  1.3373  1.1127
 8944TIP3    H248248   3.153   3.304   4.106 -0.1106 -1.1849  1.6673
 8945TIP3   OH248249   0.121   4.952  14.041  0.4314  0.5908  0.5023
 8945TIP3    H148250   0.127   4.984  13.951 -0.5401 -0.0083  0.2201
 8945TIP3    H248251   0.035   4.979  14.071 -0.5675 -1.9952  0.1425
 8946TIP3   OH248252   4.843   3.222  17.209  0.2941 -0.5539  0.1451
 8946TIP3    H148253   4.789   3.152  17.244 -1.3592 -0.1004 -1.4485
 8946TIP3    H248254   4.826   3.296  17.268  1.4538 -1.2348  1.3700
 8947TIP3   OH248255   6.536   3.213  13.707 -0.2740  0.1959  1.0530
 8947TIP3    H148256   6.560   3.145  13.770  4.4407 -0.5647 -1.3229
 8947TIP3    H248257   6.521   3.166  13.625 -0.8993  1.6844  0.2814
 8948TIP3   OH248258   0.222   0.672  11.428  0.2452 -0.3080  0.1340
 8948TIP3    H148259   0.217   0.635  11.340  0.6875  1.9177 -0.8497
 8948TIP3    H248260   0.166   0.749  11.425 -1.8549 -1.6299  2.5948
 8949TIP3   OH248261   3.876   0.982   2.185  0.0996 -0.3789 -0.3299
 8949TIP3    H148262   3.795   1.017   2.148 -0.1537 -0.8651 -0.2401
 8949TIP3    H248263   3.896   1.041   2.258 -0.4866 -0.5924  0.0069
 8950TIP3   OH248264   6.246   4.125  16.677  0.3449  0.0935 -0.1307
 8950TIP3    H148265   6.262   4.169  16.594 -0.9422  1.4776  0.3325
 8950TIP3    H248266   6.301   4.171  16.740  1.6114 -1.2011 -0.2712
 8951TIP3   OH248267   4.904   0.819   5.134 -0.6351  0.0884  0.1274
 8951TIP3    H148268   4.999   0.809   5.123 -0.6772 -0.1921  0.0068
 8951TIP3    H248269   4.895   0.894   5.192 -0.2976 -0.6982  1.2266
 8952TIP3   OH248270   2.991   1.998  12.876  0.7237  0.2013  0.1480
 8952TIP3    H148271   2.931   2.073  12.866  0.3516 -0.2456 -1.0720
 8952TIP3    H248272   3.005   1.968  12.786  0.1211 -1.7901  0.7035
 8953TIP3   OH248273   2.391   4.575  16.394  0.4494 -0.0321  0.5352
 8953TIP3    H148274   2.330   4.515  16.349 -0.6613 -0.6237  2.7511
 8953TIP3    H248275   2.350   4.661  16.385  1.5727  0.2970 -1.8400
 8954TIP3   OH248276   5.296   6.272   1.819 -0.3648 -0.5593  0.4488
 8954TIP3    H148277   5.361   6.328   1.776  0.3753 -0.3299  1.8176
 8954TIP3    H248278   5.212   6.308   1.793  0.0347 -0.9027 -1.4198
 8955TIP3   OH248279   5.034   6.098  15.195  0.1812 -0.0105  0.5803
 8955TIP3    H148280   4.941   6.111  15.177 -0.1967 -0.2548  2.2357
 8955TIP3    H248281   5.079   6.144  15.124 -1.1892 -0.8279 -0.8530
 8956TIP3   OH248282   0.503   3.231  11.860 -0.1461  0.2516  0.0965
 8956TIP3    H148283   0.464   3.271  11.938  1.8179  1.7814  0.3591
 8956TIP3    H248284   0.564   3.298  11.828  0.3698 -1.0679 -1.7224
 8957TIP3   OH248285   5.306   0.891   1.952  0.2049  0.1906  0.3806
 8957TIP3    H148286   5.399   0.905   1.968  0.2465  0.1244  0.1943
 8957TIP3    H248287   5.262   0.963   1.998  0.2649 -0.5249  1.5740
 8958TIP3   OH248288   2.361   3.987  12.096 -0.0123  0.1551  0.0288
 8958TIP3    H148289   2.286   4.011  12.149  0.0702  1.3383 -0.3729
 8958TIP3    H248290   2.341   3.900  12.063 -0.3379 -0.3360  1.4832
 8959TIP3   OH248291   5.447   3.162   0.039 -0.7731  0.0275  1.1912
 8959TIP3    H148292   5.373   3.139  -0.018  0.3248 -0.0539 -0.2111
 8959TIP3    H248293   5.429   3.252   0.066 -0.4854  0.6466 -0.6136
 8960TIP3   OH248294   4.810   4.797   0.276  0.3437 -0.1008  0.5662
 8960TIP3    H148295   4.785   4.873   0.224  0.4370  0.2655  1.0543
 8960TIP3    H248296   4.865   4.745   0.217 -0.3707 -0.1916 -0.0304
 8961TIP3   OH248297   0.514   0.545   5.602  0.0342  0.2387 -0.0549
 8961TIP3    H148298   0.508   0.502   5.687 -1.1765 -0.0951 -0.2957
 8961TIP3    H248299   0.479   0.480   5.540 -1.4131  1.4008 -0.4730
 8962TIP3   OH248300   3.753   5.106  16.745  0.1183 -0.2320 -0.2536
 8962TIP3    H148301   3.738   5.092  16.652  1.7910  0.8879 -0.7131
 8962TIP3    H248302   3.815   5.038  16.770  2.1535  1.4017 -0.7105
 8963TIP3   OH248303   4.925   1.742   2.033 -0.2820  0.2127 -0.2287
 8963TIP3    H148304   4.899   1.651   2.035 -0.4474  0.2722  1.6393
 8963TIP3    H248305   5.019   1.740   2.051 -0.3156  0.4128 -0.0227
 8964TIP3   OH248306   2.741   6.113  11.504 -0.2183  0.7755 -0.0040
 8964TIP3    H148307   2.749   6.078  11.415 -1.8746  1.2385 -0.3505
 8964TIP3    H248308   2.829   6.103  11.541  0.1208 -0.8233 -1.1589
 8965TIP3   OH248309   1.982   5.117  12.648 -0.0797  0.1968  0.4114
 8965TIP3    H148310   1.998   5.197  12.598  1.0326 -1.3363 -1.7898
 8965TIP3    H248311   2.067   5.095  12.686 -0.0943 -0.5571  0.0252
 8966TIP3   OH248312   5.718   4.234  16.929 -0.2092  0.3116  0.1787
 8966TIP3    H148313   5.736   4.327  16.938  1.9731 -0.0248 -0.4143
 8966TIP3    H248314   5.776   4.192  16.994 -1.9416 -0.5708  1.1937
 8967TIP3   OH248315   5.593   5.901   1.591 -0.5616  0.0715 -0.7592
 8967TIP3    H148316   5.664   5.956   1.624 -0.4477 -1.6395  2.1056
 8967TIP3    H248317   5.513   5.950   1.613 -0.3733  0.6457 -1.3303
 8968TIP3   OH248318   2.046   0.222   3.851 -0.5799 -0.2160  0.2435
 8968TIP3    H148319   2.101   0.157   3.806  1.4917  0.6306  1.5040
 8968TIP3    H248320   2.103   0.298   3.863 -1.7284  0.3325  2.4541
 8969TIP3   OH248321   6.558   2.719  16.508  0.6870  0.1937  0.2125
 8969TIP3    H148322   6.572   2.792  16.569 -0.7611  0.7386 -0.0964
 8969TIP3    H248323   6.484   2.747  16.453 -1.2373 -2.3265  1.4237
 8970TIP3   OH248324   1.120   3.388  13.571 -0.0929  0.1849 -0.1266
 8970TIP3    H148325   1.027   3.369  13.576  0.2053 -1.1678  0.5220
 8970TIP3    H248326   1.153   3.332  13.501  0.6430 -1.0993  1.2306
 8971TIP3   OH248327   3.673   4.313  13.218  0.1835 -0.1936  0.2821
 8971TIP3    H148328   3.590   4.361  13.218 -0.0099 -0.5018 -1.3800
 8971TIP3    H248329   3.646   4.221  13.223  0.4537 -0.2613  0.4659
 8972TIP3   OH248330   3.961   5.188   5.113 -0.3711  0.4934 -0.2368
 8972TIP3    H148331   4.045   5.144   5.121 -0.2606  0.6616 -0.4760
 8972TIP3    H248332   3.918   5.145   5.039 -0.6765  0.1122  0.1549
 8973TIP3   OH248333   0.317   4.156  13.554  0.5095  0.0360  0.0544
 8973TIP3    H148334   0.279   4.244  13.560  1.9476  0.6882 -0.0731
 8973TIP3    H248335   0.251   4.104  13.509 -0.4857  0.9715  0.4066
 8974TIP3   OH248336   1.064   0.822  13.799 -0.5630  0.0450  0.0625
 8974TIP3    H148337   1.058   0.726  13.801  0.9145 -0.1497 -2.4875
 8974TIP3    H248338   0.975   0.851  13.780 -0.7619 -0.9081 -0.5120
 8975TIP3   OH248339   5.806   1.970   4.838  0.2852 -0.2737  0.7008
 8975TIP3    H148340   5.880   1.915   4.866 -1.2302 -1.2182  3.0172
 8975TIP3    H248341   5.791   1.946   4.747  2.7011 -0.1953  0.2398
 8976TIP3   OH248342   1.928   0.102   1.559  0.5881 -0.1593 -0.4673
 8976TIP3    H148343   1.898   0.027   1.611  1.7661  1.7168  3.0683
 8976TIP3    H248344   2.022   0.085   1.546  0.6833  0.3011 -0.3750
 8977TIP3   OH248345   2.081   1.913  16.190  0.5911  0.0223 -0.2562
 8977TIP3    H148346   2.013   1.847  16.176  1.5217 -0.7306 -1.3633
 8977TIP3    H248347   2.163   1.866  16.177  1.2938  1.2070 -0.2129
 8978TIP3   OH248348   1.374   0.015   3.278  0.6624  0.0472  0.0561
 8978TIP3    H148349   1.357  -0.006   3.187  0.3623  1.9569 -0.3284
 8978TIP3    H248350   1.288   0.034   3.316  0.6868 -1.4963  0.9498
 8979TIP3   OH248351   3.816   0.348  14.020 -0.0711 -0.2218  0.1777
 8979TIP3    H148352   3.801   0.321  13.929 -0.1921  1.4287 -0.3266
 8979TIP3    H248353   3.728   0.356  14.057 -0.0318 -0.6232  0.3579
 8980TIP3   OH248354   3.338   1.300  15.395  0.6210  0.2474  0.3543
 8980TIP3    H148355   3.417   1.351  15.409  1.1463 -1.0114  2.1790
 8980TIP3    H248356   3.273   1.340  15.453 -0.2773  1.6501 -1.5776
 8981TIP3   OH248357   4.020   3.999   1.717 -0.4374  0.1070 -0.4203
 8981TIP3    H148358   4.023   4.045   1.634  0.1556 -1.5772 -1.3614
 8981TIP3    H248359   3.959   3.927   1.703 -0.5581 -0.0261  0.6923
 8982TIP3   OH248360   1.472   2.236  16.803 -0.1556  0.0738  0.2714
 8982TIP3    H148361   1.541   2.256  16.740 -1.3752 -1.2964 -1.5703
 8982TIP3    H248362   1.423   2.317  16.811  1.3483  0.9075  1.2034
 8983TIP3   OH248363   4.721   0.895  15.801 -0.3071  0.0984  0.2734
 8983TIP3    H148364   4.737   0.944  15.881 -1.3284  1.2335 -0.1962
 8983TIP3    H248365   4.641   0.934  15.764  1.1191  0.8201 -2.2052
 8984TIP3   OH248366   5.111   0.301  12.745  0.1969  0.0986  0.1998
 8984TIP3    H148367   5.164   0.238  12.697  1.4062  1.2811 -0.0504
 8984TIP3    H248368   5.042   0.249  12.785 -0.6563 -0.9575 -2.5437
 8985TIP3   OH248369   2.716   2.215   4.895 -0.1639 -0.0600 -0.1404
 8985TIP3    H148370   2.698   2.191   4.986 -1.5729 -0.3975 -0.5059
 8985TIP3    H248371   2.719   2.311   4.897 -1.0110 -0.0362  0.1077
 8986TIP3   OH248372   5.088   3.121   5.953 -0.0445  0.1693 -0.3389
 8986TIP3    H148373   5.126   3.070   6.024 -0.6797  0.6176  0.3365
 8986TIP3    H248374   5.061   3.057   5.888 -0.0041 -0.2888  0.0973
 8987TIP3   OH248375   3.092   4.829  14.418 -0.2974 -0.2995 -0.1553
 8987TIP3    H148376   3.053   4.828  14.505 -0.1517 -0.0462 -0.0867
 8987TIP3    H248377   3.046   4.760  14.370 -0.3580 -0.4564  0.1297
 8988TIP3   OH248378   3.843   2.623  16.395 -0.1549  0.1922  0.5177
 8988TIP3    H148379   3.753   2.609  16.368  0.1480  0.1636 -0.4907
 8988TIP3    H248380   3.891   2.548  16.361 -0.0336 -0.6628  2.5005
 8989TIP3   OH248381   2.407   2.586   5.880 -0.3904  0.3590  0.1203
 8989TIP3    H148382   2.503   2.580   5.875 -0.2354  0.9562  1.9701
 8989TIP3    H248383   2.391   2.644   5.954 -2.2075 -0.4660  0.3835
 8990TIP3   OH248384   6.141   4.954   4.446 -0.1329 -0.4262  0.3572
 8990TIP3    H148385   6.128   4.944   4.540  1.5702  1.2447  0.8069
 8990TIP3    H248386   6.183   5.040   4.436  0.3762 -0.8826 -1.8512
 8991TIP3   OH248387   6.409   3.702  15.130 -0.0846  0.0699 -0.1762
 8991TIP3    H148388   6.384   3.767  15.196  0.2640  0.0511 -0.0208
 8991TIP3    H248389   6.399   3.618  15.174  0.1808  0.0589 -0.1332
 8992TIP3   OH248390   5.090   1.853  15.170  0.0368 -0.3546  0.2562
 8992TIP3    H148391   5.054   1.935  15.139  1.2943  0.5293  1.0910
 8992TIP3    H248392   5.078   1.792  15.097  0.6659  1.0303 -1.0239
 8993TIP3   OH248393   4.137   3.197   3.562  0.1008  0.3613  0.0630
 8993TIP3    H148394   4.133   3.178   3.469  1.4044  2.8216 -0.5419
 8993TIP3    H248395   4.046   3.201   3.590 -0.2784 -1.8380 -0.7556
 8994TIP3   OH248396   4.800   2.200  16.753  0.4398 -0.4135 -0.3189
 8994TIP3    H148397   4.734   2.210  16.822 -0.2512  0.7761 -1.1122
 8994TIP3    H248398   4.878   2.169  16.798 -0.8068 -2.3427  0.5780
 8995TIP3   OH248399   4.208   4.392  15.164  0.1084  0.4052  0.5475
 8995TIP3    H148400   4.277   4.355  15.220  1.4326  1.6937 -0.1786
 8995TIP3    H248401   4.240   4.377  15.075  0.0236  2.0372  0.2208
 8996TIP3   OH248402   4.905   5.545   0.916  0.4596 -0.0399 -0.7631
 8996TIP3    H148403   4.979   5.605   0.923  1.3989 -1.2492 -0.1634
 8996TIP3    H248404   4.941   5.467   0.873 -0.4955 -0.5628 -0.6279
 8997TIP3   OH248405   6.249   4.151   3.118  0.0623  0.2423  0.7452
 8997TIP3    H148406   6.169   4.107   3.093  0.3859  0.2433 -0.3263
 8997TIP3    H248407   6.277   4.108   3.199  0.5867 -1.7773 -0.4940
 8998TIP3   OH248408   0.055   3.739   6.513  0.1222 -0.2194 -0.2695
 8998TIP3    H148409   0.087   3.649   6.502  0.9278 -0.1111  0.9891
 8998TIP3    H248410   0.126   3.794   6.479 -0.2331 -0.0597 -0.7458
 8999TIP3   OH248411   0.810   1.185   2.504 -0.0829  0.1884 -0.2500
 8999TIP3    H148412   0.829   1.217   2.416  0.5246 -0.4998 -0.3762
 8999TIP3    H248413   0.852   1.099   2.508 -0.8857 -0.1856  0.3980
 9000TIP3   OH248414   0.759   1.815   1.318 -0.9203 -0.0303 -0.0143
 9000TIP3    H148415   0.775   1.761   1.241  0.1943 -0.3764  0.4344
 9000TIP3    H248416   0.795   1.901   1.296 -1.2974  0.0855 -0.1678
 9001TIP3   OH248417   2.309   1.089  12.996 -0.0292 -0.1568 -0.4423
 9001TIP3    H148418   2.331   1.113  12.906  1.4772  0.2023  0.0083
 9001TIP3    H248419   2.354   1.005  13.010  1.1645  0.6294  0.5202
 9002TIP3   OH248420   1.753   4.852  16.079  0.2354  0.3078 -0.0762
 9002TIP3    H148421   1.699   4.903  16.140  0.9467 -0.2451  1.0250
 9002TIP3    H248422   1.841   4.856  16.116  0.5621 -0.5270 -0.7534
 9003TIP3   OH248423   6.517   1.276   5.537  0.6009 -0.0688  0.1308
 9003TIP3    H148424   6.486   1.339   5.473 -1.3562 -0.6804  0.4333
 9003TIP3    H248425   6.448   1.272   5.603  1.7431 -0.8121  1.3290
 9004TIP3   OH248426   5.320   5.879   5.349  0.2242  0.2355  0.2553
 9004TIP3    H148427   5.399   5.927   5.376  1.0852 -0.6941 -0.6013
 9004TIP3    H248428   5.305   5.817   5.420 -0.4335  1.2103  0.9860
 9005TIP3   OH248429   3.629   1.423  13.082 -0.3727  0.3098 -0.6129
 9005TIP3    H148430   3.699   1.393  13.139  0.0340  0.0001 -1.2665
 9005TIP3    H248431   3.569   1.349  13.076 -0.3665  0.3085 -0.6581
 9006TIP3   OH248432   5.860   0.198   1.661  0.0399  0.7022  0.3785
 9006TIP3    H148433   5.814   0.148   1.594 -1.5169  1.3529  0.9242
 9006TIP3    H248434   5.797   0.207   1.732  0.7454  2.2678  0.8406
 9007TIP3   OH248435   5.540   0.625  13.270 -0.2505 -0.7358  0.0508
 9007TIP3    H148436   5.608   0.690  13.256 -0.9661  0.5822  2.4386
 9007TIP3    H248437   5.534   0.578  13.187  1.4198  1.1449 -1.1714
 9008TIP3   OH248438   2.369   5.080   1.685 -0.5947  0.2129  0.3050
 9008TIP3    H148439   2.440   5.134   1.719  2.0723 -2.7422 -0.3450
 9008TIP3    H248440   2.389   5.071   1.592 -1.0988 -1.6884  0.3633
 9009TIP3   OH248441   6.225   5.619  11.232  0.1602  0.1823  0.0681
 9009TIP3    H148442   6.156   5.684  11.248  0.6092  0.7826 -0.4122
 9009TIP3    H248443   6.212   5.553  11.300 -1.1074  0.1110 -0.2196
 9010TIP3   OH248444   3.906   4.753  11.913 -0.0957 -0.1297  0.6693
 9010TIP3    H148445   3.876   4.819  11.975 -0.7664  0.3812 -0.1837
 9010TIP3    H248446   4.000   4.771  11.902 -0.2707  0.6755  0.4632
 9011TIP3   OH248447   1.262   4.915  15.518  0.5200 -0.1142 -0.4201
 9011TIP3    H148448   1.250   4.851  15.448  1.0409 -0.3855 -0.2623
 9011TIP3    H248449   1.357   4.921  15.529  0.4114 -0.9300  1.0589
 9012TIP3   OH248450   0.754   5.917   3.417  0.1046  0.3043  0.6988
 9012TIP3    H148451   0.742   5.823   3.405 -0.7097  0.4108  0.6292
 9012TIP3    H248452   0.848   5.929   3.428  0.5500 -0.2133 -2.1856
 9013TIP3   OH248453   4.849   0.948  16.772  0.0911 -0.2438 -0.0620
 9013TIP3    H148454   4.791   1.024  16.783 -0.0085 -0.1261 -1.2854
 9013TIP3    H248455   4.845   0.929  16.678  0.3637 -1.5737  0.1891
 9014TIP3   OH248456   1.837   2.002   6.576  0.2705 -0.1468 -0.2033
 9014TIP3    H148457   1.757   2.054   6.564 -0.0737 -0.6266 -0.0051
 9014TIP3    H248458   1.907   2.058   6.542 -0.1786  0.1795 -0.5987
 9015TIP3   OH248459   2.758   5.551  10.914 -0.0070 -0.2542 -0.5997
 9015TIP3    H148460   2.755   5.647  10.913 -0.3743 -0.2107  1.5242
 9015TIP3    H248461   2.667   5.524  10.917  0.0986 -0.5196  2.7712
 9016TIP3   OH248462   5.215   4.460  15.082 -0.2020  0.4240 -0.0066
 9016TIP3    H148463   5.255   4.546  15.066 -0.2232  0.2456 -1.0732
 9016TIP3    H248464   5.171   4.439  14.999 -1.5334  0.1060  0.7749
 9017TIP3   OH248465   0.945   6.731  14.247 -0.2482 -0.2228  0.9941
 9017TIP3    H148466   1.018   6.766  14.197 -0.3505  0.5266  1.3634
 9017TIP3    H248467   0.935   6.641  14.216 -1.5333  0.8033 -1.7342
 9018TIP3   OH248468   1.385   6.138   5.149  0.0837 -0.3794  0.2323
 9018TIP3    H148469   1.314   6.115   5.209 -0.0433 -1.0532 -0.1598
 9018TIP3    H248470   1.431   6.055   5.135  0.1099 -0.2285 -0.5907
 9019TIP3   OH248471   0.797   6.004   2.849 -0.0771  0.3008 -0.1003
 9019TIP3    H148472   0.710   6.043   2.856  0.0634  0.3882  1.1499
 9019TIP3    H248473   0.810   5.957   2.931  0.4116 -1.0604 -0.9280
 9020TIP3   OH248474   2.546   1.272   5.140 -0.3930 -0.1051  0.3667
 9020TIP3    H148475   2.579   1.212   5.073 -1.6907  0.8612 -1.1648
 9020TIP3    H248476   2.528   1.215   5.215  0.3694 -1.3197 -0.3403
 9021TIP3   OH248477   4.165   0.684   5.316  0.3754 -0.0855 -0.2543
 9021TIP3    H148478   4.231   0.744   5.348  0.5929  0.0569 -0.9674
 9021TIP3    H248479   4.113   0.735   5.254 -0.9578  0.0592  0.9355
 9022TIP3   OH248480   0.298   5.908   5.280  0.2925  0.3399 -0.0639
 9022TIP3    H148481   0.387   5.926   5.312  0.5884 -1.3451  0.1104
 9022TIP3    H248482   0.250   5.990   5.295  1.2694  0.6092  1.7524
 9023TIP3   OH248483   4.638   6.547   1.599  0.2715 -0.0652  0.2928
 9023TIP3    H148484   4.552   6.578   1.629  0.6774  0.3469  1.0296
 9023TIP3    H248485   4.664   6.481   1.663 -0.5011 -1.8384 -1.1645
 9024TIP3   OH248486   5.140   3.353  16.911  0.4570 -0.5969  0.3473
 9024TIP3    H148487   5.151   3.364  16.817  0.2779  0.9325  0.4839
 9024TIP3    H248488   5.050   3.380  16.928 -0.2455 -3.0737  0.6566
 9025TIP3   OH248489   0.702   2.939  14.347 -1.4845  0.1211  0.8392
 9025TIP3    H148490   0.728   2.982  14.428 -3.2502  0.3654  1.2864
 9025TIP3    H248491   0.659   3.007  14.296 -0.1858  0.0267 -0.4232
 9026TIP3   OH248492   5.849   4.440  13.388  0.3001 -0.3958  0.4725
 9026TIP3    H148493   5.890   4.409  13.468 -0.4366  0.6884  1.2811
 9026TIP3    H248494   5.891   4.524  13.369  0.0426 -0.3529  0.0748
 9027TIP3   OH248495   0.980   1.423   1.585  0.1282 -0.2427 -0.5048
 9027TIP3    H148496   0.935   1.469   1.656 -1.0108 -1.3275 -0.5045
 9027TIP3    H248497   1.002   1.338   1.622 -0.2968 -0.7378 -1.3782
 9028TIP3   OH248498   2.793   2.389  15.056  0.2556  0.1934  0.1350
 9028TIP3    H148499   2.708   2.405  15.097  0.0014 -1.8337  0.4216
 9028TIP3    H248500   2.855   2.432  15.115 -0.4991  1.1388  0.2683
 9029TIP3   OH248501   3.760   1.973  16.308 -0.1816  0.1937  0.6137
 9029TIP3    H148502   3.827   1.927  16.359 -0.7335 -1.6063 -0.2545
 9029TIP3    H248503   3.803   1.992  16.224 -0.8407 -1.2278 -0.0537
 9030TIP3   OH248504   0.270   1.430   4.248  0.1035  0.0961 -0.5412
 9030TIP3    H148505   0.262   1.512   4.296 -1.9417  0.1415 -0.9084
 9030TIP3    H248506   0.233   1.449   4.161  2.1431 -0.4609 -1.5703
 9031TIP3   OH248507   3.791   1.631   3.726 -0.1415  0.0709 -0.0985
 9031TIP3    H148508   3.842   1.660   3.651 -1.3861 -1.1800 -1.4446
 9031TIP3    H248509   3.746   1.710   3.756  0.0448  0.4896 -0.9101
 9032TIP3   OH248510   1.250   5.855  15.407 -0.1060  0.3336 -0.2680
 9032TIP3    H148511   1.324   5.856  15.466 -1.1010 -0.1236  1.0088
 9032TIP3    H248512   1.283   5.813  15.327  1.2520  1.0071 -0.0719
 9033TIP3   OH248513   0.010   1.318  14.556 -0.7328 -0.2426  0.0427
 9033TIP3    H148514   0.032   1.273  14.637 -0.0338  1.0743  0.5996
 9033TIP3    H248515  -0.069   1.274  14.524  0.8905 -2.9953 -0.3503
 9034TIP3   OH248516   0.464   3.639   0.822 -0.1539  0.8225  0.2602
 9034TIP3    H148517   0.541   3.691   0.800  0.0056  0.5893  0.2695
 9034TIP3    H248518   0.488   3.592   0.902 -0.4697  1.1029  0.5252
 9035TIP3   OH248519   0.254   0.374   5.107  0.0370 -0.2850 -0.4000
 9035TIP3    H148520   0.203   0.399   5.029 -1.3649 -1.3514  0.1437
 9035TIP3    H248521   0.229   0.438   5.174 -1.5570 -1.5287  0.2254
 9036TIP3   OH248522   5.019   3.058   5.509  0.4027  0.1163 -0.2807
 9036TIP3    H148523   5.095   3.103   5.474  0.2666  0.9518  0.4947
 9036TIP3    H248524   4.970   3.125   5.556  0.1722 -0.8170  0.8445
 9037TIP3   OH248525   3.748   1.168   0.785  1.1637 -0.4063 -0.0176
 9037TIP3    H148526   3.682   1.175   0.853  0.2521 -1.5520 -0.7567
 9037TIP3    H248527   3.830   1.193   0.827  0.2784  0.9578  0.9266
 9038TIP3   OH248528   6.525   5.509   5.380  0.5703  0.5570 -0.1375
 9038TIP3    H148529   6.615   5.527   5.353  0.2437  3.6372  0.6137
 9038TIP3    H248530   6.473   5.575   5.335 -0.8825  0.9514  2.0072
 9039TIP3   OH248531   5.732   2.969  11.496  0.2069 -0.2627  0.2976
 9039TIP3    H148532   5.715   2.967  11.591  0.3889 -1.1540  0.3162
 9039TIP3    H248533   5.826   2.953  11.488 -0.1837 -2.6671 -0.1161
 9040TIP3   OH248534   2.078   1.556   0.857 -0.7605  0.2082  0.7102
 9040TIP3    H148535   2.135   1.545   0.933  1.2282 -0.5410 -0.8196
 9040TIP3    H248536   2.120   1.627   0.807  0.2403 -1.9247 -1.6221
 9041TIP3   OH248537   2.360   1.107  12.716 -0.1426  0.2375 -0.1615
 9041TIP3    H148538   2.319   1.085  12.632  1.2162  1.1303 -1.0763
 9041TIP3    H248539   2.438   1.157  12.692  2.1780 -2.4576  1.4650
 9042TIP3   OH248540   5.612   6.698   3.584  0.0994 -0.0028 -0.3681
 9042TIP3    H148541   5.704   6.687   3.561 -0.2521 -0.3814 -1.5958
 9042TIP3    H248542   5.577   6.760   3.520 -0.2886  0.8420  0.6413
 9043TIP3   OH248543   2.244   5.824  11.737 -0.2922 -0.1093  0.1345
 9043TIP3    H148544   2.330   5.798  11.769 -0.0605 -1.0843 -1.2235
 9043TIP3    H248545   2.261   5.866  11.653 -0.9766  1.5403  0.7815
 9044TIP3   OH248546   5.791   5.413   3.797 -0.3083 -0.6278  0.0738
 9044TIP3    H148547   5.853   5.484   3.783  1.2410 -2.1122 -0.6646
 9044TIP3    H248548   5.796   5.360   3.717 -0.0842 -2.5952  1.3650
 9045TIP3   OH248549   2.569   1.198  11.428 -0.1515  0.5320 -0.0060
 9045TIP3    H148550   2.602   1.125  11.375  2.5228  1.1780  0.6623
 9045TIP3    H248551   2.535   1.261  11.364 -2.1428 -1.1053 -0.6070
 9046TIP3   OH248552   5.055   6.595   1.016 -0.1524 -0.5788  0.0973
 9046TIP3    H148553   5.099   6.553   1.090 -4.0018 -1.8117  1.8643
 9046TIP3    H248554   5.027   6.680   1.050  0.5803  0.0664 -0.8977
 9047TIP3   OH248555   0.407   3.649   3.555  0.6967  0.1510  0.6432
 9047TIP3    H148556   0.424   3.743   3.548  0.4981  0.1362 -0.1608
 9047TIP3    H248557   0.313   3.641   3.543  0.5585 -0.0612  1.7922
 9048TIP3   OH248558   4.421   3.916   1.150  0.4841  0.8859 -0.4792
 9048TIP3    H148559   4.410   3.963   1.067 -1.6858 -2.1195 -2.0089
 9048TIP3    H248560   4.370   3.968   1.213 -0.0847  1.7713 -1.6315
 9049TIP3   OH248561   5.361   3.859  14.762  0.2178  0.2026 -0.0902
 9049TIP3    H148562   5.455   3.840  14.763  0.7826  2.8876  1.7087
 9049TIP3    H248563   5.355   3.952  14.781 -2.7820  0.3594 -1.4896
 9050TIP3   OH248564   4.333   6.075  15.660  0.0213  0.5166 -0.4147
 9050TIP3    H148565   4.269   6.023  15.709  0.8903  0.7982  1.0802
 9050TIP3    H248566   4.331   6.039  15.571 -0.2382 -1.2976  0.2967
 9051TIP3   OH248567   1.195   5.608  14.495 -0.1842 -0.1801 -0.0592
 9051TIP3    H148568   1.183   5.594  14.401  0.3253  0.9648 -0.2965
 9051TIP3    H248569   1.269   5.552  14.518 -0.8243 -1.0873 -0.1705
 9052TIP3   OH248570   1.412   3.447  11.618  0.2708 -0.0264  0.1978
 9052TIP3    H148571   1.436   3.355  11.626  1.4003  0.3417  1.0639
 9052TIP3    H248572   1.470   3.481  11.550 -1.1407 -0.2784 -1.1828
 9053TIP3   OH248573   1.300   5.355  12.829  0.4202 -0.0268  0.2610
 9053TIP3    H148574   1.268   5.298  12.899 -0.2242  0.9111  0.7541
 9053TIP3    H248575   1.295   5.443  12.867  0.5855  0.4330 -0.7845
 9054TIP3   OH248576   4.419   2.322   3.491 -0.2428 -0.0396  0.2863
 9054TIP3    H148577   4.378   2.367   3.565 -1.0613 -0.5672  0.1508
 9054TIP3    H248578   4.513   2.332   3.507 -0.4157  0.7792  0.8300
 9055TIP3   OH248579   1.928   2.923  11.898 -0.3581  0.6065 -0.1147
 9055TIP3    H148580   2.021   2.925  11.877 -0.3610  0.9949 -0.1009
 9055TIP3    H248581   1.892   3.001  11.855 -0.5025  0.9963  0.7035
 9056TIP3   OH248582   5.819   3.542  16.006  0.3029 -0.3995 -0.5320
 9056TIP3    H148583   5.908   3.577  16.000  0.2271 -0.0302  0.3786
 9056TIP3    H248584   5.824   3.456  15.963  0.7558  0.2283 -1.7670
 9057TIP3   OH248585   0.847   2.991  13.560 -0.3126  0.3930 -0.0739
 9057TIP3    H148586   0.930   2.955  13.529 -0.3960  0.0470  0.1037
 9057TIP3    H248587   0.799   3.012  13.480  0.2436  1.2958 -0.1799
 9058TIP3   OH248588   0.905   2.589   0.233 -1.1329  0.1218  0.2923
 9058TIP3    H148589   0.989   2.634   0.221  0.6873 -3.3159 -0.5495
 9058TIP3    H248590   0.899   2.574   0.327 -1.0543  0.8139  0.4098
 9059TIP3   OH248591   0.309   2.221  15.740  0.2044  0.3863 -0.1799
 9059TIP3    H148592   0.242   2.214  15.672 -0.6155  0.4930  0.6150
 9059TIP3    H248593   0.392   2.222  15.692 -0.4529  2.9189 -1.3572
 9060TIP3   OH248594   3.208   4.434   5.348  0.5174 -0.3066 -0.0640
 9060TIP3    H148595   3.132   4.455   5.402  0.1684  0.4476 -0.8325
 9060TIP3    H248596   3.237   4.348   5.380  0.3200  0.1246  1.3021
 9061TIP3   OH248597   5.304   2.138   3.650  0.2271  0.0494  0.2830
 9061TIP3    H148598   5.272   2.221   3.614 -0.1918 -0.3889 -0.3859
 9061TIP3    H248599   5.332   2.088   3.572  2.6917  0.4730  0.8513
 9062TIP3   OH248600   2.654   3.618   4.175  0.3514  0.0234 -0.5575
 9062TIP3    H148601   2.726   3.652   4.123  0.7618  0.8255  0.5091
 9062TIP3    H248602   2.592   3.690   4.182 -0.4147 -0.5612 -1.2021
 9063TIP3   OH248603   3.417   1.702  14.304 -0.0627 -0.1004  0.3398
 9063TIP3    H148604   3.457   1.616  14.288 -0.0263 -0.1196  0.5366
 9063TIP3    H248605   3.479   1.765  14.266  0.8161 -0.0471  1.8498
 9064TIP3   OH248606   2.462   5.297   4.902 -1.0949  0.3435  0.0533
 9064TIP3    H148607   2.459   5.268   4.993 -1.3577  0.1789 -0.0065
 9064TIP3    H248608   2.371   5.291   4.872 -1.2820  1.9426  0.2606
 9065TIP3   OH248609   5.480   1.831   2.196 -0.2783  0.0287  0.6692
 9065TIP3    H148610   5.460   1.839   2.103  2.6882 -0.7026 -0.0756
 9065TIP3    H248611   5.431   1.754   2.225  0.7637 -1.2457 -0.8921
 9066TIP3   OH248612   5.654   1.105  11.463  0.2677  0.3417  0.8011
 9066TIP3    H148613   5.719   1.111  11.533  1.5055 -0.9518 -0.2077
 9066TIP3    H248614   5.584   1.049  11.499  0.7998 -0.1427  1.0848
 9067TIP3   OH248615   6.246   0.858   2.905  0.2911  0.0218 -0.2928
 9067TIP3    H148616   6.168   0.913   2.899  1.0186  1.2325  1.1755
 9067TIP3    H248617   6.256   0.841   2.998  0.4478 -2.0985 -0.6680
 9068TIP3   OH248618   2.501   1.430  15.081  0.2279  0.0648 -0.3406
 9068TIP3    H148619   2.439   1.495  15.048 -1.0050 -0.6309  0.5656
 9068TIP3    H248620   2.585   1.456  15.044 -0.5205  1.2984 -1.2032
 9069TIP3   OH248621   3.176   6.717   4.049 -0.1834 -0.3228 -0.1555
 9069TIP3    H148622   3.093   6.764   4.054 -0.1851 -0.3155 -0.2541
 9069TIP3    H248623   3.209   6.736   3.961  0.3871  0.4435  0.2309
 9070TIP3   OH248624   5.897   1.552   3.326 -0.7827 -0.3863 -0.3976
 9070TIP3    H148625   5.813   1.591   3.306 -1.1082 -1.5678 -1.4684
 9070TIP3    H248626   5.879   1.458   3.332  0.4598 -0.6652 -0.7547
 9071TIP3   OH248627   0.980   3.013   2.735 -0.0105 -0.1129 -0.2004
 9071TIP3    H148628   0.910   2.965   2.779 -2.6179  0.7219 -3.2883
 9071TIP3    H248629   0.946   3.101   2.723  1.1293  0.0316 -2.6947
 9072TIP3   OH248630   2.895   3.808  10.877 -0.2502  0.1932 -0.5523
 9072TIP3    H148631   2.881   3.877  10.812  0.2119  0.7746 -0.0425
 9072TIP3    H248632   2.924   3.855  10.955 -3.7524 -0.1905  1.0494
 9073TIP3   OH248633   6.585   3.307  14.086  0.1870  0.2738  0.8840
 9073TIP3    H148634   6.666   3.270  14.119 -0.4543 -0.1116  2.0589
 9073TIP3    H248635   6.544   3.235  14.038 -0.3923 -0.1366  1.9746
 9074TIP3   OH248636   6.187   5.635   4.773 -0.7463 -0.3770 -0.0710
 9074TIP3    H148637   6.128   5.564   4.749  0.0818 -1.6630  1.5619
 9074TIP3    H248638   6.130   5.704   4.805 -1.3869 -1.5107  1.2559
 9075TIP3   OH248639   5.579   5.210   2.566  0.7434  0.7257  0.1215
 9075TIP3    H148640   5.622   5.181   2.647  1.3069  0.5111 -0.2483
 9075TIP3    H248641   5.628   5.288   2.540 -0.9816  2.2190  1.2887
 9076TIP3   OH248642   2.165   0.137  13.333 -0.2191 -0.8016 -0.1174
 9076TIP3    H148643   2.148   0.210  13.274 -0.8344 -0.2945  0.6675
 9076TIP3    H248644   2.178   0.062  13.275  0.4582 -0.0715 -0.9305
 9077TIP3   OH248645   0.844   1.686   4.649  0.3809  0.2201  0.3895
 9077TIP3    H148646   0.907   1.679   4.577  0.4558 -0.9036  0.5551
 9077TIP3    H248647   0.761   1.709   4.607  0.2075 -1.4000 -0.1514
 9078TIP3   OH248648   4.031   0.279   2.913  0.5439  0.2097  0.3803
 9078TIP3    H148649   4.111   0.320   2.947  0.3280  2.1790 -1.4080
 9078TIP3    H248650   4.062   0.222   2.843  0.4264  0.6494 -0.0305
 9079TIP3   OH248651   1.065   6.160   1.225 -0.5066 -0.2792  0.1987
 9079TIP3    H148652   0.982   6.167   1.178 -1.7557  0.4327  2.4557
 9079TIP3    H248653   1.087   6.251   1.247  0.3300 -0.5647  0.5469
 9080TIP3   OH248654   3.577   3.745  15.054  0.2350  0.0427 -0.5901
 9080TIP3    H148655   3.646   3.802  15.087  0.1644  0.3022 -0.8897
 9080TIP3    H248656   3.507   3.751  15.119  1.1368 -1.4884  0.5521
 9081TIP3   OH248657   1.175   5.917   1.338 -0.3156 -0.2559 -0.7839
 9081TIP3    H148658   1.126   5.842   1.302 -1.2920 -0.0458  0.0673
 9081TIP3    H248659   1.132   5.994   1.301  1.1833 -0.1228 -2.2761
 9082TIP3   OH248660   4.906   1.529   3.072  0.1880 -0.1001 -0.5029
 9082TIP3    H148661   4.926   1.447   3.117  0.6447 -0.6075 -1.6183
 9082TIP3    H248662   4.816   1.518   3.041  0.4429 -0.4147 -1.1452
 9083TIP3   OH248663   0.076   5.025   5.786  0.0627  0.4022  0.5554
 9083TIP3    H148664   0.078   4.990   5.697  0.8286  0.8937  0.3736
 9083TIP3    H248665   0.156   4.991   5.827 -1.1906 -1.3226  1.6442
 9084TIP3   OH248666   2.452   0.648  12.389  0.1341  0.0949 -0.1935
 9084TIP3    H148667   2.483   0.657  12.299  1.8173  0.0787  0.3687
 9084TIP3    H248668   2.525   0.679  12.443  0.0590 -2.1043  1.2462
 9085TIP3   OH248669   5.765   0.647  14.985 -0.4582  0.1873 -0.1448
 9085TIP3    H148670   5.793   0.738  14.994 -1.8426  0.5594  0.4703
 9085TIP3    H248671   5.707   0.647  14.910 -0.1721 -0.2691 -0.3702
 9086TIP3   OH248672   6.187   5.141  12.195 -0.7653 -0.2639 -0.2100
 9086TIP3    H148673   6.156   5.065  12.144 -0.6790  1.1233 -2.4060
 9086TIP3    H248674   6.122   5.209  12.177 -0.1986  0.5387  0.7949
 9087TIP3   OH248675   1.704   1.398   1.421  0.3598  0.0989 -0.0296
 9087TIP3    H148676   1.717   1.434   1.333  1.2606  2.1874  0.9325
 9087TIP3    H248677   1.660   1.467   1.469  0.9458 -0.5668  1.4974
 9088TIP3   OH248678   5.579   0.069  10.565 -0.7038 -0.1019  0.1520
 9088TIP3    H148679   5.600   0.018  10.644 -0.5545  0.1321  0.2638
 9088TIP3    H248680   5.594   0.009  10.493 -0.0055 -0.0488  0.2505
 9089TIP3   OH248681   2.028   3.814   0.408  0.3378 -0.1869  0.1414
 9089TIP3    H148682   2.080   3.885   0.445  0.3330 -0.0790 -0.0618
 9089TIP3    H248683   1.943   3.855   0.388 -0.1580 -0.5775  1.3654
 9090TIP3   OH248684   1.037   3.624   1.135  0.1488  0.4849 -0.3308
 9090TIP3    H148685   1.131   3.609   1.140  0.1455  0.8434  0.8675
 9090TIP3    H248686   1.018   3.686   1.205 -0.7073  1.8350 -1.7083
 9091TIP3   OH248687   5.896   6.709   0.089  0.6714 -0.1787  0.2702
 9091TIP3    H148688   5.951   6.782   0.062  1.5440 -1.3711 -1.2476
 9091TIP3    H248689   5.816   6.718   0.038  1.3757 -1.0947 -1.0345
 9092TIP3   OH248690   1.930   1.748   2.482  0.2321 -0.4731  0.1986
 9092TIP3    H148691   1.883   1.685   2.428  1.1934  0.0149 -1.2317
 9092TIP3    H248692   2.019   1.748   2.446  1.8503 -2.6060  3.8360
 9093TIP3   OH248693   1.116   6.271   3.274  0.1030 -0.2642  0.1688
 9093TIP3    H148694   1.109   6.352   3.224  3.0629 -0.8659 -1.2873
 9093TIP3    H248695   1.155   6.298   3.358  0.6505 -0.0968 -0.1369
 9094TIP3   OH248696   4.073   4.550  14.392  0.3342 -0.1716  0.1892
 9094TIP3    H148697   4.013   4.566  14.318  0.9541  0.2366 -0.2295
 9094TIP3    H248698   4.080   4.455  14.397  1.3511 -0.1795 -1.1423
 9095TIP3   OH248699   1.048   3.342  12.189  0.1851 -0.1763 -0.0084
 9095TIP3    H148700   1.034   3.257  12.231 -1.3999  0.9950  1.9373
 9095TIP3    H248701   0.967   3.391  12.206  1.1958  1.8365 -0.8027
 9096TIP3   OH248702   4.499   3.049  16.070  0.2593  0.0283 -0.3004
 9096TIP3    H148703   4.450   2.982  16.024  1.9652 -0.5552 -1.3291
 9096TIP3    H248704   4.434   3.094  16.125 -1.0981 -1.7125 -0.4479
 9097TIP3   OH248705   0.727   5.780  13.409 -0.5471  0.2265 -0.5130
 9097TIP3    H148706   0.678   5.858  13.381 -0.2647  0.6511  0.1521
 9097TIP3    H248707   0.801   5.775  13.349  0.3413  1.4288  0.4648
 9098TIP3   OH248708   1.221   6.494  14.177 -0.1031  0.4646 -0.0567
 9098TIP3    H148709   1.150   6.476  14.116 -0.8107  1.7316  0.3823
 9098TIP3    H248710   1.297   6.511  14.121 -0.6996  1.4085 -0.5771
 9099TIP3   OH248711   3.690   6.230  16.368 -0.4668 -0.4011 -0.1882
 9099TIP3    H148712   3.770   6.179  16.359 -0.6526 -0.8682  0.8190
 9099TIP3    H248713   3.689   6.258  16.459 -1.2271 -0.0186 -0.3125
 9100TIP3   OH248714   5.567   4.697   4.165  0.3128 -0.0917 -0.3360
 9100TIP3    H148715   5.567   4.604   4.145  0.4643 -0.3844  0.9849
 9100TIP3    H248716   5.475   4.722   4.163  0.1441 -0.6027  0.7857
 9101TIP3   OH248717   0.696   4.156   4.872 -0.2648  0.5153 -0.5386
 9101TIP3    H148718   0.691   4.190   4.782  0.9682  0.5293 -0.6059
 9101TIP3    H248719   0.728   4.230   4.923 -1.5846  0.7071  0.0377
 9102TIP3   OH248720   0.404   5.917   5.824  0.5556 -0.5626  0.0936
 9102TIP3    H148721   0.309   5.909   5.837  0.4575 -1.5130 -1.1300
 9102TIP3    H248722   0.418   6.011   5.810 -0.4846 -0.6492 -1.6885
 9103TIP3   OH248723   1.379   3.653  14.924  0.7629 -0.1050 -0.1651
 9103TIP3    H148724   1.470   3.636  14.900  0.9559  1.2973 -0.4477
 9103TIP3    H248725   1.373   3.748  14.930 -0.4776 -0.2292  0.6900
 9104TIP3   OH248726   2.682   4.860   5.136  0.1620 -0.3194 -0.1857
 9104TIP3    H148727   2.674   4.778   5.184 -1.0143  0.3647  0.7836
 9104TIP3    H248728   2.769   4.893   5.160  1.1269 -1.8149 -1.4615
 9105TIP3   OH248729   1.255   2.409  13.128 -0.0141  0.1391 -0.1299
 9105TIP3    H148730   1.169   2.408  13.086 -0.5456  1.8044  0.8392
 9105TIP3    H248731   1.276   2.317  13.144 -0.8767 -0.3715 -1.8423
 9106TIP3   OH248732   5.529   3.834  13.535  0.5201  0.3507  0.2864
 9106TIP3    H148733   5.562   3.754  13.577 -0.9945 -0.6459 -0.3769
 9106TIP3    H248734   5.467   3.871  13.598  0.2981  0.3339  0.0800
 9107TIP3   OH248735   1.758   3.049  11.137  0.4059 -0.5142 -0.1710
 9107TIP3    H148736   1.852   3.068  11.135  0.1271  0.7590 -1.8959
 9107TIP3    H248737   1.733   3.037  11.046 -1.1600 -0.6416  0.2499
 9108TIP3   OH248738   3.707   6.587   0.309  0.3465 -0.5584 -0.2762
 9108TIP3    H148739   3.731   6.679   0.301 -2.7417  0.1699 -1.7633
 9108TIP3    H248740   3.673   6.578   0.398 -0.0454 -0.1000 -0.3813
 9109TIP3   OH248741   2.154   5.814   1.724  0.2815  0.1508  0.0320
 9109TIP3    H148742   2.083   5.784   1.668  1.4573 -1.5014 -0.6075
 9109TIP3    H248743   2.123   5.797   1.813 -0.7103  0.8154 -0.1740
 9110TIP3   OH248744   6.647   2.592   3.061 -0.2807  0.3577 -0.2842
 9110TIP3    H148745   6.653   2.502   3.093  0.4074 -0.4370 -2.5233
 9110TIP3    H248746   6.736   2.626   3.067 -0.1233  0.1715 -1.3460
 9111TIP3   OH248747   6.076   1.808  13.306  0.0798 -0.0729  0.2657
 9111TIP3    H148748   6.163   1.821  13.344 -0.5452 -0.8358  1.9839
 9111TIP3    H248749   6.036   1.739  13.359 -1.9312  0.8982  0.0731
 9112TIP3   OH248750   1.084   5.242   4.064 -0.1427  0.6493 -0.0816
 9112TIP3    H148751   1.119   5.220   3.977  0.7495 -0.1652  0.4814
 9112TIP3    H248752   0.998   5.199   4.066  0.0585  0.2272 -0.3637
 9113TIP3   OH248753   1.044   6.618  13.465 -0.0829  0.2679 -0.1888
 9113TIP3    H148754   0.956   6.579  13.464  0.0107  0.0170  0.7684
 9113TIP3    H248755   1.093   6.568  13.400 -0.4488 -0.0909 -0.1913
 9114TIP3   OH248756   1.108   5.050   1.398  0.4934 -0.0178 -0.5669
 9114TIP3    H148757   1.094   5.143   1.383 -0.8697 -0.1602 -0.2834
 9114TIP3    H248758   1.164   5.046   1.476  0.6972  0.5611 -0.6841
 9115TIP3   OH248759   1.847   5.834   4.058 -0.3705 -0.0975  0.1285
 9115TIP3    H148760   1.933   5.803   4.087  1.0347 -1.4667 -4.9264
 9115TIP3    H248761   1.800   5.754   4.035 -1.1197  0.9064 -1.8889
 9116TIP3   OH248762   1.196   6.496  12.195 -0.2905 -0.0781  0.1222
 9116TIP3    H148763   1.100   6.497  12.192 -0.2690 -0.1482 -0.7304
 9116TIP3    H248764   1.217   6.466  12.283 -1.0524  0.6085  0.5431
 9117TIP3   OH248765   0.127   3.960   4.314  0.0042 -0.5810  0.8788
 9117TIP3    H148766   0.084   3.931   4.233 -0.7395 -0.4562  1.2291
 9117TIP3    H248767   0.117   3.886   4.374  0.3229 -0.5724  0.9399
 9118TIP3   OH248768   3.950   3.097   2.655  0.9865  0.0582  0.1982
 9118TIP3    H148769   3.953   3.082   2.561  0.6914  0.4248  0.1316
 9118TIP3    H248770   4.042   3.097   2.682  1.0613 -0.2570 -0.0553
 9119TIP3   OH248771   3.568   0.240  16.318  0.2869  0.1236  0.1550
 9119TIP3    H148772   3.480   0.227  16.352  0.9040  0.3263  1.9118
 9119TIP3    H248773   3.584   0.165  16.261 -0.0753 -1.2712  1.8596
 9120TIP3   OH248774   2.478   4.682  16.987  0.4597  0.3322 -0.3800
 9120TIP3    H148775   2.495   4.731  16.907 -0.1843  1.7447  0.3267
 9120TIP3    H248776   2.492   4.745  17.058  1.3103 -0.9755  0.6446
 9121TIP3   OH248777   5.778   1.456   6.565  0.1451  0.5220 -0.2571
 9121TIP3    H148778   5.815   1.393   6.627 -1.3672 -0.4617 -0.3139
 9121TIP3    H248779   5.712   1.406   6.516 -1.5683  2.2864  0.1519
 9122TIP3   OH248780   1.706   4.843   3.917 -0.6922  0.3206 -0.7325
 9122TIP3    H148781   1.677   4.913   3.975 -1.7912 -0.2253 -0.6082
 9122TIP3    H248782   1.696   4.878   3.829 -1.5703  0.2016 -0.6818
 9123TIP3   OH248783   4.941   6.707  14.136 -0.3274  0.3250  0.1008
 9123TIP3    H148784   4.880   6.779  14.121 -0.0016  0.5444 -0.1712
 9123TIP3    H248785   5.021   6.734  14.091  0.2351  0.4145  1.1428
 9124TIP3   OH248786   1.537   2.593   1.202  0.7222 -0.2273  0.1873
 9124TIP3    H148787   1.576   2.552   1.125  0.9619 -0.1745  0.2770
 9124TIP3    H248788   1.539   2.686   1.184  1.5168 -0.1618  0.5899
 9125TIP3   OH248789   4.308   4.467   3.298  0.2014  0.0690 -0.2938
 9125TIP3    H148790   4.264   4.384   3.319  2.4893 -1.4900 -1.3931
 9125TIP3    H248791   4.335   4.502   3.383  0.3958 -1.0234  0.1138
 9126TIP3   OH248792   2.668   0.652   0.459 -0.6368 -0.5443 -0.3503
 9126TIP3    H148793   2.577   0.629   0.476 -0.3164  0.1293  2.5951
 9126TIP3    H248794   2.664   0.739   0.419 -1.2365 -0.0392  0.8102
 9127TIP3   OH248795   4.649   6.570   3.908  0.0111  0.4893  0.5293
 9127TIP3    H148796   4.598   6.590   3.829  0.5358  0.1190  0.0891
 9127TIP3    H248797   4.709   6.501   3.880 -0.3877 -0.2423  1.4879
 9128TIP3   OH248798   4.563   4.333  15.121 -0.1312  0.6874  0.4308
 9128TIP3    H148799   4.605   4.380  15.193  0.1947 -1.0816  1.4357
 9128TIP3    H248800   4.517   4.261  15.164 -0.8219  0.2349 -1.0434
 9129TIP3   OH248801   3.271   4.327   3.923  0.6570 -0.1533 -0.0403
 9129TIP3    H148802   3.276   4.232   3.935  0.0266 -0.2693 -0.6604
 9129TIP3    H248803   3.275   4.363   4.011  2.7394 -0.6654  0.1138
 9130TIP3   OH248804   0.403   2.292  14.471  0.5259  0.0677  0.1795
 9130TIP3    H148805   0.461   2.282  14.547 -1.2152 -0.1325  1.5241
 9130TIP3    H248806   0.338   2.356  14.499 -1.5929 -1.8248 -0.2155
 9131TIP3   OH248807   1.456   4.474  10.377 -0.4220  0.2573 -0.1337
 9131TIP3    H148808   1.381   4.521  10.339  0.0197 -1.9803 -3.9892
 9131TIP3    H248809   1.417   4.407  10.432 -1.2780 -0.1347 -1.1946
 9132TIP3   OH248810   0.600   5.569  13.530  0.5934  0.7056  0.6453
 9132TIP3    H148811   0.630   5.657  13.508  0.3697  0.5583 -0.2576
 9132TIP3    H248812   0.646   5.511  13.470 -0.5764  0.3678  0.0560
 9133TIP3   OH248813   4.176   0.304  16.569 -0.3620  0.0010  0.2322
 9133TIP3    H148814   4.127   0.375  16.528 -0.2686  0.3958  0.8126
 9133TIP3    H248815   4.128   0.283  16.648 -2.0344 -2.5571 -1.3758
 9134TIP3   OH248816   5.562   2.155   2.225 -0.2449 -0.5972  0.1231
 9134TIP3    H148817   5.595   2.241   2.252  0.3956 -0.4749 -0.9985
 9134TIP3    H248818   5.511   2.174   2.146  1.7449 -1.5171 -1.4258
 9135TIP3   OH248819   3.230   1.334   4.335 -0.2487 -0.2952  0.1135
 9135TIP3    H148820   3.138   1.360   4.326 -0.3931 -0.6786  0.4527
 9135TIP3    H248821   3.278   1.416   4.342 -0.7297 -0.1098  1.4522
 9136TIP3   OH248822   0.825   5.445  15.521  0.0526 -0.0571  0.3221
 9136TIP3    H148823   0.839   5.350  15.511 -0.6537 -0.0003 -1.4234
 9136TIP3    H248824   0.905   5.484  15.487 -0.5147  0.0132 -0.9688
 9137TIP3   OH248825   6.778   2.495   0.525 -0.1436 -0.3623  0.0654
 9137TIP3    H148826   6.761   2.403   0.542 -2.6469  0.3320  1.4954
 9137TIP3    H248827   6.790   2.534   0.612 -2.2164  1.2162 -0.3241
 9138TIP3   OH248828   1.082   4.242  11.502 -0.3050 -0.4375 -0.3366
 9138TIP3    H148829   1.088   4.151  11.473 -0.9376 -0.4505 -0.4363
 9138TIP3    H248830   1.114   4.240  11.592  0.1566 -0.6720 -0.5026
 9139TIP3   OH248831   1.015   0.541  15.183 -0.0184  0.4259 -0.4481
 9139TIP3    H148832   0.991   0.532  15.091  0.3700  1.4712 -0.6566
 9139TIP3    H248833   0.962   0.475  15.228 -0.5358  0.2099 -1.3579
 9140TIP3   OH248834   2.217   5.608  14.817 -0.2140 -0.2328  0.2906
 9140TIP3    H148835   2.308   5.616  14.844  0.0760 -1.9789 -0.1432
 9140TIP3    H248836   2.193   5.696  14.787  1.6119 -0.0086 -0.5383
 9141TIP3   OH248837   5.583   0.638  15.303  0.0103  0.3351 -0.2262
 9141TIP3    H148838   5.496   0.673  15.284  0.2619  0.8031 -0.5438
 9141TIP3    H248839   5.568   0.548  15.330 -0.4635  0.0080 -1.5437
 9142TIP3   OH248840   0.133   0.011  15.792 -0.5706  0.0695 -1.4340
 9142TIP3    H148841   0.060  -0.032  15.835  0.1993  0.4448  0.3066
 9142TIP3    H248842   0.157   0.083  15.851  1.2775 -0.1336 -1.8937
 9143TIP3   OH248843   6.436   3.409   0.342 -0.2512 -0.1073  0.6280
 9143TIP3    H148844   6.426   3.364   0.258  1.1757  1.3837 -0.3778
 9143TIP3    H248845   6.348   3.405   0.381 -1.4277  0.7740 -1.7803
 9144TIP3   OH248846   3.359   1.087   2.326 -0.4581  0.0712 -0.3878
 9144TIP3    H148847   3.406   1.013   2.364  1.2996  0.5655 -1.5501
 9144TIP3    H248848   3.287   1.047   2.277 -0.8844 -0.7244  0.8553
 9145TIP3   OH248849   0.392   0.859  15.303  0.0035  0.2304 -0.0657
 9145TIP3    H148850   0.364   0.768  15.307  1.3839 -0.1565  1.5978
 9145TIP3    H248851   0.311   0.910  15.306 -0.7122 -0.9215  0.2072
 9146TIP3   OH248852   4.547   5.288   1.472  0.0081 -0.1300  0.0297
 9146TIP3    H148853   4.487   5.241   1.530 -3.9848  2.7672 -1.5175
 9146TIP3    H248854   4.569   5.225   1.403  0.6402 -1.9361  1.8335
 9147TIP3   OH248855   2.681   3.917   0.167 -0.1747 -0.4935 -0.5513
 9147TIP3    H148856   2.735   3.838   0.176 -0.4421 -0.7074 -0.8250
 9147TIP3    H248857   2.723   3.981   0.225 -0.0397 -0.8783 -0.2185
 9148TIP3   OH248858   2.908   5.917  16.876 -0.0517 -0.1743 -0.2001
 9148TIP3    H148859   2.907   5.856  16.949  1.4853  1.4143  1.2017
 9148TIP3    H248860   2.922   5.862  16.799  3.4507 -1.4381  1.2374
 9149TIP3   OH248861   1.756   1.394  10.502 -0.0845 -1.2308  0.0065
 9149TIP3    H148862   1.818   1.341  10.452  2.0337  1.0382  0.1295
 9149TIP3    H248863   1.742   1.472  10.449 -0.4533 -0.3204  1.3954
 9150TIP3   OH248864   2.682   0.204  16.642  0.0397 -0.3202  0.7587
 9150TIP3    H148865   2.751   0.269  16.656 -0.2566  0.6540 -1.9908
 9150TIP3    H248866   2.600   0.253  16.657 -0.1351 -0.6655  0.9404
 9151TIP3   OH248867   3.001   4.165  16.750 -0.3035 -0.0056  0.1358
 9151TIP3    H148868   2.929   4.195  16.695  0.0659 -0.7728 -0.7730
 9151TIP3    H248869   2.958   4.126  16.826 -0.8141  0.7313  0.2346
 9152TIP3   OH248870   0.478   5.946   1.363  0.4163 -0.7093 -0.6542
 9152TIP3    H148871   0.427   5.887   1.420 -3.1601  0.6494 -2.2746
 9152TIP3    H248872   0.475   5.904   1.277  0.2144  0.4578 -1.2166
 9153TIP3   OH248873   3.602   5.403   3.620  0.2553 -0.1556  0.0965
 9153TIP3    H148874   3.588   5.488   3.577 -1.0382 -0.3020  0.2134
 9153TIP3    H248875   3.673   5.363   3.570  0.7339  0.8998 -0.0947
 9154TIP3   OH248876   2.753   5.400   3.096  0.5276 -0.1051 -0.1668
 9154TIP3    H148877   2.707   5.471   3.051 -0.5771  0.4046  1.6760
 9154TIP3    H248878   2.686   5.332   3.108  1.0481 -0.6078 -0.1054
 9155TIP3   OH248879   3.439   1.763  16.372 -0.2765  0.2122 -0.2811
 9155TIP3    H148880   3.496   1.803  16.437 -0.2307  0.7494 -0.6441
 9155TIP3    H248881   3.489   1.769  16.290 -0.9591  0.9199 -0.6489
 9156TIP3   OH248882   2.751   1.833   3.012  0.6088  0.5051  0.1545
 9156TIP3    H148883   2.685   1.789   2.958 -0.1392 -1.1697  2.3495
 9156TIP3    H248884   2.720   1.923   3.020 -0.8334  0.0099  0.2290
 9157TIP3   OH248885   5.112   0.885  12.380 -0.9048  0.7383 -0.3626
 9157TIP3    H148886   5.090   0.975  12.355 -0.0779  1.3191  0.9641
 9157TIP3    H248887   5.191   0.864  12.329  0.8391  1.9575  1.7671
 9158TIP3   OH248888   4.672   1.691   3.605 -0.4404  0.4294  0.8709
 9158TIP3    H148889   4.689   1.743   3.683  0.9026  0.4027  0.6095
 9158TIP3    H248890   4.682   1.600   3.633  0.5301  0.4356  0.5651
 9159TIP3   OH248891   1.106   5.339   6.308  0.1347  0.0516 -0.5001
 9159TIP3    H148892   1.169   5.410   6.324  0.7442 -0.4313 -0.7202
 9159TIP3    H248893   1.157   5.272   6.261 -0.8078  0.0845 -1.5738
 9160TIP3   OH248894   0.941   1.829   2.157 -0.0465  0.1404  0.3361
 9160TIP3    H148895   0.863   1.838   2.102  1.1501 -0.7126 -1.5496
 9160TIP3    H248896   0.965   1.919   2.179 -0.7033  0.4891 -0.3395
 9161TIP3   OH248897   0.834   1.966  16.060 -0.2887  0.0837  0.3491
 9161TIP3    H148898   0.793   1.968  15.974 -1.0276  2.1638  0.7395
 9161TIP3    H248899   0.920   2.006  16.046  0.4988 -1.6321  0.1338
 9162TIP3   OH248900   2.522   0.388   5.347  0.2387  0.1499 -0.5111
 9162TIP3    H148901   2.564   0.472   5.327 -0.4468  0.0199 -2.5999
 9162TIP3    H248902   2.448   0.383   5.288 -2.0874 -0.1731  2.3279
 9163TIP3   OH248903   5.422   0.277   5.915 -0.2546 -0.0419 -0.0815
 9163TIP3    H148904   5.418   0.326   5.997  2.3898  0.0493  0.0296
 9163TIP3    H248905   5.421   0.344   5.847 -1.7750 -0.0952 -0.1501
 9164TIP3   OH248906   0.311   1.132   1.448 -0.4168  0.2263 -0.3051
 9164TIP3    H148907   0.269   1.218   1.447  0.8909  0.9388  1.6491
 9164TIP3    H248908   0.386   1.143   1.508  0.1953 -2.0661 -0.5986
 9165TIP3   OH248909   3.482   5.206  13.698  0.0381  0.1567 -0.1021
 9165TIP3    H148910   3.420   5.272  13.728 -0.4418 -0.7961  1.0700
 9165TIP3    H248911   3.475   5.208  13.603  0.3412  2.0726 -0.1006
 9166TIP3   OH248912   2.938   4.749   5.256  0.1268  0.2226  0.0909
 9166TIP3    H148913   3.014   4.731   5.311  0.4412  1.0799 -0.0581
 9166TIP3    H248914   2.945   4.842   5.235 -1.5624  0.5817  1.0064
 9167TIP3   OH248915   5.729   1.868  11.046 -0.2533  0.3680 -0.2519
 9167TIP3    H148916   5.765   1.842  11.131 -1.2029  2.7870  0.9453
 9167TIP3    H248917   5.712   1.786  11.000  1.1424 -0.9447  1.5337
 9168TIP3   OH248918   5.085   5.150  12.800  0.0479 -0.1246  0.3889
 9168TIP3    H148919   5.151   5.216  12.821  0.3791 -0.5120  0.5771
 9168TIP3    H248920   5.023   5.154  12.873  0.0176  0.0410  0.3548
 9169TIP3   OH248921   1.146   5.895  14.443 -0.1016  0.0918 -0.7851
 9169TIP3    H148922   1.151   5.813  14.492  0.0302  0.1949 -0.6250
 9169TIP3    H248923   1.080   5.878  14.375 -1.6127  0.5338  0.5358
 9170TIP3   OH248924   3.659   5.965  14.357  0.0924  0.0650 -0.3435
 9170TIP3    H148925   3.593   5.950  14.425 -1.2658  0.8079 -1.4483
 9170TIP3    H248926   3.682   5.878  14.325 -3.7806 -0.1371 -3.0691
 9171TIP3   OH248927   2.303   3.230  13.230 -0.0193 -0.4664  0.1003
 9171TIP3    H148928   2.310   3.145  13.187 -0.3752  0.6819 -2.3347
 9171TIP3    H248929   2.357   3.289  13.177  0.4805  0.7684  1.9263
 9172TIP3   OH248930   4.246   2.251  10.363 -0.2805 -0.2126  0.2517
 9172TIP3    H148931   4.277   2.167  10.329 -0.6078 -0.9157  1.6592
 9172TIP3    H248932   4.181   2.227  10.430 -1.8233  1.1845 -0.7063
 9173TIP3   OH248933   4.259   0.463   3.915  1.0966  0.2107 -0.1352
 9173TIP3    H148934   4.204   0.473   3.838  2.5696  1.0723 -1.0988
 9173TIP3    H248935   4.342   0.429   3.881  0.8066 -2.1210  1.4210
 9174TIP3   OH248936   6.397   6.175  10.273 -0.3325  0.1335  0.3982
 9174TIP3    H148937   6.347   6.224  10.338 -1.3426 -0.1069 -0.2021
 9174TIP3    H248938   6.483   6.218  10.271 -0.5711  0.6471  1.2924
 9175TIP3   OH248939   4.362   4.064   0.495 -0.4396 -0.7197  0.4453
 9175TIP3    H148940   4.357   4.110   0.579 -1.5726 -0.9040  0.4891
 9175TIP3    H248941   4.383   3.974   0.519 -1.6863 -0.9756  0.6019
 9176TIP3   OH248942   5.259   2.701  13.283  0.4284 -0.3118 -0.3139
 9176TIP3    H148943   5.274   2.647  13.360 -1.5500 -0.6000 -0.1068
 9176TIP3    H248944   5.220   2.782  13.318 -3.4302 -1.6862 -1.2369
 9177TIP3   OH248945   3.098   4.047   3.765  0.3200 -0.2797 -0.0079
 9177TIP3    H148946   3.019   4.101   3.767  0.3076 -0.2855 -0.4187
 9177TIP3    H248947   3.126   4.042   3.857  0.7839  1.1053 -0.0697
 9178TIP3   OH248948   1.803   6.764  14.622 -0.3946 -0.1251 -0.5013
 9178TIP3    H148949   1.752   6.704  14.676 -1.9501  2.3220  0.8725
 9178TIP3    H248950   1.766   6.757  14.535 -2.2023  0.6130  0.1916
 9179TIP3   OH248951   2.375   6.613   0.648  0.2043  0.1391  0.4825
 9179TIP3    H148952   2.382   6.629   0.742 -1.1430  0.3893  0.5603
 9179TIP3    H248953   2.285   6.638   0.627  0.2807 -0.5807 -0.7420
 9180TIP3   OH248954   3.777   4.873  13.161 -0.4575  0.0683 -0.0413
 9180TIP3    H148955   3.850   4.891  13.220 -1.4047 -1.5672  1.7016
 9180TIP3    H248956   3.809   4.802  13.105  0.2078  1.1768 -1.1045
 9181TIP3   OH248957   1.068   4.471  13.126 -1.1507 -0.3873 -0.2265
 9181TIP3    H148958   1.074   4.400  13.190 -0.5207 -1.8342 -1.8405
 9181TIP3    H248959   1.089   4.429  13.042  0.6960  1.9987 -1.0274
 9182TIP3   OH248960   3.808   1.362  15.251  0.5603  0.3887 -0.3605
 9182TIP3    H148961   3.833   1.448  15.285 -1.9685  0.3729  1.6921
 9182TIP3    H248962   3.883   1.306  15.272  2.0206  1.9452 -1.2715
 9183TIP3   OH248963   2.706   1.085   0.868 -0.3127  0.3505 -0.1712
 9183TIP3    H148964   2.681   1.036   0.790  2.1711  0.0146 -0.7816
 9183TIP3    H248965   2.733   1.018   0.931  1.1811  0.8098 -0.3097
 9184TIP3   OH248966   0.647   6.527   0.560 -0.6256  0.1186  0.3678
 9184TIP3    H148967   0.677   6.578   0.485 -1.3239 -0.3295 -0.2208
 9184TIP3    H248968   0.582   6.584   0.602 -2.1353 -0.6644 -0.8567
 9185TIP3   OH248969   0.442   2.676  12.738  0.2620  1.1820  0.5822
 9185TIP3    H148970   0.504   2.738  12.698  2.3713 -0.2601  1.5297
 9185TIP3    H248971   0.423   2.614  12.668  1.5847  0.4030  0.8928
 9186TIP3   OH248972   2.617   5.819   0.591  0.1452  0.1444  0.4105
 9186TIP3    H148973   2.550   5.876   0.554 -1.2686 -1.2780  0.7569
 9186TIP3    H248974   2.608   5.829   0.685 -0.4998 -1.0879  0.4854
 9187TIP3   OH248975   1.331   3.308   1.818 -0.2055  0.1065  0.0858
 9187TIP3    H148976   1.390   3.251   1.769 -2.1082  0.4034 -2.6515
 9187TIP3    H248977   1.382   3.388   1.833  0.2583  0.2314 -1.9751
 9188TIP3   OH248978   2.889   4.870   3.314 -0.3650  0.4607  0.2008
 9188TIP3    H148979   2.939   4.936   3.362  0.3397  0.2534 -0.2323
 9188TIP3    H248980   2.817   4.847   3.372 -0.7831  1.8185  0.2469
 9189TIP3   OH248981   3.277   5.969  16.854 -0.0055 -0.1176 -0.2657
 9189TIP3    H148982   3.230   6.043  16.815 -0.1443  1.0352  1.9707
 9189TIP3    H248983   3.337   6.010  16.917  2.5906 -1.6949 -1.6283
 9190TIP3   OH248984   0.650   6.613  16.180 -0.0224 -0.2636 -0.3512
 9190TIP3    H148985   0.625   6.701  16.207  1.2681 -0.3988  1.3941
 9190TIP3    H248986   0.644   6.561  16.261  2.8122 -0.9715 -0.5578
 9191TIP3   OH248987   1.288   0.647  16.931 -0.1241  0.4103  0.2834
 9191TIP3    H148988   1.327   0.607  17.009 -0.8314  0.6567  0.7648
 9191TIP3    H248989   1.322   0.737  16.932 -0.6865  0.6207  0.6957
 9192TIP3   OH248990   0.753   5.858   0.663  0.5213  0.3911  0.6733
 9192TIP3    H148991   0.760   5.763   0.674 -2.0684  0.2267  1.2477
 9192TIP3    H248992   0.820   5.894   0.720  0.5687 -1.0777  1.5699
 9193TIP3   OH248993   1.767   6.029   5.776  0.3587  0.1884 -0.0874
 9193TIP3    H148994   1.755   6.002   5.685 -0.3732  1.2000 -0.3095
 9193TIP3    H248995   1.703   5.978   5.825  1.5900 -1.2521  0.0405
 9194TIP3   OH248996   0.568   3.715   0.265 -0.6885  0.1042 -0.3892
 9194TIP3    H148997   0.535   3.797   0.228  0.7903  0.4942 -0.9142
 9194TIP3    H248998   0.566   3.654   0.191 -0.3911  0.0955 -0.3921
 9195TIP3   OH248999   1.628   2.486   5.038  0.0407  0.5795  0.2004
 9195TIP3    H149000   1.554   2.427   5.055  0.7766 -0.1739  0.8554
 9195TIP3    H249001   1.597   2.571   5.068 -1.4902  0.8137 -1.8984
 9196TIP3   OH249002   6.006   6.747   2.448  0.0869 -0.1883 -0.5087
 9196TIP3    H149003   6.022   6.784   2.535  1.4560  0.7390 -1.1334
 9196TIP3    H249004   6.068   6.793   2.391 -0.4710 -1.1258 -1.8916
 9197TIP3   OH249005   6.680   5.536   1.586 -0.1344  0.8213 -0.1972
 9197TIP3    H149006   6.674   5.519   1.680 -3.1030  0.6421 -0.3814
 9197TIP3    H249007   6.772   5.560   1.572  0.3268  0.9733  2.7558
 9198TIP3   OH249008   1.558   4.124   1.856  0.4399 -0.2836 -0.1018
 9198TIP3    H149009   1.529   4.203   1.903  2.9439  1.6467 -1.6604
 9198TIP3    H249010   1.650   4.115   1.881 -0.2730 -3.8256  1.4695
 9199TIP3   OH249011   5.005   1.287  13.160 -0.0777 -1.3270 -0.6787
 9199TIP3    H149012   4.949   1.316  13.089 -1.1358 -1.0669  0.2364
 9199TIP3    H249013   5.054   1.365  13.187 -0.9397 -1.0063 -0.0013
 9200TIP3   OH249014   2.025   6.545   6.736 -0.4852  0.0481  0.8525
 9200TIP3    H149015   2.079   6.467   6.738 -2.0600 -1.0597  2.7065
 9200TIP3    H249016   1.988   6.547   6.648 -0.7977 -1.5602  0.9400
 9201TIP3   OH249017   3.356   5.913   2.329  0.1013  0.2911  0.6334
 9201TIP3    H149018   3.416   5.853   2.374  1.7475  1.6697  0.3571
 9201TIP3    H249019   3.290   5.857   2.290  1.2297 -1.2878  0.9657
 9202TIP3   OH249020   0.700   3.242  14.776  0.3430  0.0951 -0.3563
 9202TIP3    H149021   0.760   3.294  14.830  1.1706  0.5192 -1.6449
 9202TIP3    H249022   0.707   3.154  14.811  1.0050  0.3355  0.1297
 9203TIP3   OH249023   4.354   6.464  16.839 -0.1240 -0.3341  0.6512
 9203TIP3    H149024   4.348   6.525  16.765  1.4940 -1.5517 -0.5278
 9203TIP3    H249025   4.263   6.435  16.852 -0.3233 -0.8570 -1.5593
 9204TIP3   OH249026   3.337   5.834   5.924  0.5621 -0.2884  0.1847
 9204TIP3    H149027   3.271   5.876   5.869 -1.3412 -1.9173  1.1551
 9204TIP3    H249028   3.345   5.891   6.000  1.1579  0.5344 -0.4904
 9205TIP3   OH249029   1.595   2.096  16.548  0.2775  0.4480  0.2817
 9205TIP3    H149030   1.679   2.139  16.531  0.1766  0.7732  0.5897
 9205TIP3    H249031   1.535   2.138  16.487  0.4909 -0.3087 -0.4658
 9206TIP3   OH249032   1.906   0.930   3.645 -0.2968 -0.0546  0.2150
 9206TIP3    H149033   1.952   0.849   3.623 -2.1723 -0.9054 -0.6620
 9206TIP3    H249034   1.902   0.931   3.741 -2.6158 -2.3641  0.1736
 9207TIP3   OH249035   6.697   3.331  11.612  0.4915  0.2884 -0.2387
 9207TIP3    H149036   6.702   3.398  11.681  2.5856 -0.7892  0.7168
 9207TIP3    H249037   6.779   3.342  11.563 -0.3024  0.0606 -1.6378
 9208TIP3   OH249038   1.642   5.207   3.886  0.3845 -0.4777  0.0556
 9208TIP3    H149039   1.652   5.263   3.808 -0.0252 -0.8449 -0.2651
 9208TIP3    H249040   1.728   5.209   3.928 -0.0765  1.7258  0.9430
 9209TIP3   OH249041   2.997   5.187  16.029 -0.1864  0.3922 -0.0790
 9209TIP3    H149042   3.051   5.116  15.996 -1.4705 -0.7810  0.3105
 9209TIP3    H249043   3.058   5.243  16.077  1.0429  0.2020 -1.4094
 9210TIP3   OH249044   6.754   1.498  16.212 -0.6960  0.1033  0.0470
 9210TIP3    H149045   6.754   1.407  16.182  0.8727  0.0619  0.1195
 9210TIP3    H249046   6.797   1.496  16.298 -0.9239  0.8572  0.1874
 9211TIP3   OH249047   4.445   3.667   4.736  0.6167  0.1941 -0.1217
 9211TIP3    H149048   4.443   3.587   4.684 -1.2606  0.1423  0.0086
 9211TIP3    H249049   4.530   3.706   4.716  2.0404 -2.3657  0.6364
 9212TIP3   OH249050   4.261   5.336  12.304  0.4885  0.2184 -0.3066
 9212TIP3    H149051   4.289   5.246  12.321  2.4543  1.0380  0.9567
 9212TIP3    H249052   4.227   5.367  12.387 -1.8522  0.1069 -1.1786
 9213TIP3   OH249053   4.897   2.567   0.573  0.7771  0.0459 -0.3731
 9213TIP3    H149054   4.869   2.616   0.650  1.6029  1.1162 -0.7418
 9213TIP3    H249055   4.828   2.502   0.560  1.6656 -1.5746  2.5081
 9214TIP3   OH249056   0.624   6.708   3.540  0.1420 -0.6678 -0.0996
 9214TIP3    H149057   0.548   6.663   3.578  2.0665 -2.3699  1.8755
 9214TIP3    H249058   0.623   6.794   3.582  0.3421 -1.3477  1.3470
 9215TIP3   OH249059   5.285   5.084   2.519 -0.0275  0.2689  0.4270
 9215TIP3    H149060   5.231   5.143   2.466 -2.2691  0.5037  2.8643
 9215TIP3    H249061   5.368   5.131   2.530  0.5062  0.1840 -2.8379
 9216TIP3   OH249062   2.918   5.120   5.419 -0.1841  0.3176  0.2870
 9216TIP3    H149063   2.984   5.189   5.404 -0.7045  0.5003 -1.3339
 9216TIP3    H249064   2.933   5.058   5.347  0.6934 -1.6025  2.0961
 9217TIP3   OH249065   3.017   2.741  16.483 -0.2291 -0.1379  0.1813
 9217TIP3    H149066   3.050   2.716  16.569 -1.2526 -3.7694 -0.3839
 9217TIP3    H249067   3.089   2.720  16.423 -0.4656 -0.0894 -0.1231
 9218TIP3   OH249068   3.384   1.390  12.765  0.0207 -0.2059  0.2674
 9218TIP3    H149069   3.477   1.379  12.744 -0.3622  0.7279 -2.1476
 9218TIP3    H249070   3.384   1.429  12.853  1.8566 -1.2747  0.7704
 9219TIP3   OH249071   5.013   2.079  13.120 -0.0964 -0.6530  0.3323
 9219TIP3    H149072   5.091   2.076  13.176 -0.1450 -2.0404  0.3409
 9219TIP3    H249073   4.939   2.068  13.180 -0.3979  1.8536  0.4773
 9220TIP3   OH249074   4.547   6.094   2.794 -0.2414 -0.5595 -0.0278
 9220TIP3    H149075   4.516   6.168   2.846  0.3947  0.4976 -1.1389
 9220TIP3    H249076   4.479   6.027   2.805 -1.1584  0.4346  0.4333
 9221TIP3   OH249077   4.988   0.484  12.952  0.1740 -0.1774 -0.0743
 9221TIP3    H149078   5.010   0.403  12.905 -0.8837 -0.5845  0.1307
 9221TIP3    H249079   5.065   0.540  12.940 -0.6542  0.3466 -3.6117
 9222TIP3   OH249080   0.879   2.674  12.878 -0.0099 -0.6191  0.4020
 9222TIP3    H149081   0.854   2.733  12.949  2.3750 -0.2662  0.9979
 9222TIP3    H249082   0.927   2.603  12.922  1.1934 -0.5704 -0.8093
 9223TIP3   OH249083   1.657   2.289  15.271  0.1259 -0.1130 -0.5353
 9223TIP3    H149084   1.685   2.318  15.357  0.6523 -1.3425 -0.2793
 9223TIP3    H249085   1.669   2.366  15.215 -2.0205  1.2667  0.8396
 9224TIP3   OH249086   3.366   4.781  14.143  0.2044  0.2373 -0.3940
 9224TIP3    H149087   3.456   4.749  14.131 -0.1817 -0.9668 -0.2191
 9224TIP3    H249088   3.370   4.832  14.224  0.3203 -1.5787  0.7944
 9225TIP3   OH249089   6.149   2.058   0.861  1.2161  0.3104  0.9451
 9225TIP3    H149090   6.124   2.150   0.851  1.1668  0.3108  1.0644
 9225TIP3    H249091   6.084   2.010   0.809  0.9361  0.3077  1.2940
 9226TIP3   OH249092   6.439   5.437   3.497 -0.3166 -0.2013  0.2719
 9226TIP3    H149093   6.399   5.407   3.415  0.0109 -0.7331  0.3051
 9226TIP3    H249094   6.478   5.521   3.474  0.9502 -0.9756 -0.4692
 9227TIP3   OH249095   5.489   1.845  15.349  0.5484  0.3850 -0.4231
 9227TIP3    H149096   5.526   1.761  15.325  0.7156  1.0965 -2.7450
 9227TIP3    H249097   5.561   1.893  15.389  0.8895  0.0749 -0.6715
 9228TIP3   OH249098   5.532   2.416   5.236  0.4270 -0.0429 -0.5297
 9228TIP3    H149099   5.453   2.412   5.182  1.0616 -1.8788 -1.3649
 9228TIP3    H249100   5.508   2.371   5.317  0.5287 -0.3388 -0.6641
 9229TIP3   OH249101   6.022   3.698   5.333  0.3707 -0.5518  0.1094
 9229TIP3    H149102   6.094   3.731   5.387  1.5480 -1.7458 -0.7112
 9229TIP3    H249103   5.963   3.655   5.395  0.1086  0.8409  0.8469
 9230TIP3   OH249104   0.173   0.178   0.503  0.1470 -0.0910  0.9338
 9230TIP3    H149105   0.261   0.180   0.540  0.6168  0.7493 -0.2368
 9230TIP3    H249106   0.159   0.265   0.466 -0.8930 -0.4502  0.4440
 9231TIP3   OH249107   3.157   1.291   5.735  0.3516 -0.1779 -0.2918
 9231TIP3    H149108   3.104   1.329   5.806 -0.4236 -2.4385  0.4004
 9231TIP3    H249109   3.108   1.311   5.656 -0.6646 -0.7262  0.1797
 9232TIP3   OH249110   0.141   0.653  13.974  0.2339 -0.5790  0.8190
 9232TIP3    H149111   0.200   0.728  13.980 -0.0235 -0.4331  1.6075
 9232TIP3    H249112   0.153   0.607  14.057  0.4553 -1.4598  0.2995
 9233TIP3   OH249113   2.152   0.471   3.586  0.4997  0.4299  0.3476
 9233TIP3    H149114   2.157   0.392   3.532  0.2721  1.5739 -1.3771
 9233TIP3    H249115   2.238   0.478   3.626  0.2444 -1.1704  1.2208
 9234TIP3   OH249116   6.660   2.721  11.889  0.4760  0.3000 -0.0911
 9234TIP3    H149117   6.580   2.763  11.857  0.0858 -0.5094 -0.1810
 9234TIP3    H249118   6.704   2.690  11.810  0.8132  0.6196 -0.0300
 9235TIP3   OH249119   3.394   6.176  16.421  0.1888  0.0813  0.2877
 9235TIP3    H149120   3.485   6.198  16.400 -0.8232  0.3742 -4.2897
 9235TIP3    H249121   3.388   6.081  16.408 -0.2547  0.1392  0.0358
 9236TIP3   OH249122   4.802   6.651   0.355  0.3200  0.0182  0.0228
 9236TIP3    H149123   4.882   6.704   0.355 -0.0860  0.6437  0.2123
 9236TIP3    H249124   4.782   6.637   0.448  0.8091 -1.0582 -0.0333
 9237TIP3   OH249125   1.973   3.079  12.558  0.0176 -0.5536 -0.1838
 9237TIP3    H149126   1.922   3.121  12.627  3.3742  1.3620  1.2224
 9237TIP3    H249127   1.969   3.139  12.484  1.2101  0.2176  0.3572
 9238TIP3   OH249128   3.448   6.110   2.522  0.0404 -0.0582 -0.0330
 9238TIP3    H149129   3.360   6.139   2.545  0.3687  1.3640 -0.5428
 9238TIP3    H249130   3.436   6.057   2.443 -0.1729  1.4733 -1.0320
 9239TIP3   OH249131   2.165   3.978   3.449  0.1030  0.5918 -0.0874
 9239TIP3    H149132   2.114   3.928   3.384  1.4760 -0.9712 -0.0029
 9239TIP3    H249133   2.103   3.996   3.519 -0.3925 -1.2008 -0.0281
 9240TIP3   OH249134   1.925   1.203   0.506 -0.3022 -0.4082  0.0448
 9240TIP3    H149135   1.998   1.260   0.531 -0.8719  1.0004 -1.4683
 9240TIP3    H249136   1.848   1.260   0.507 -1.5572 -2.0565  2.3998
 9241TIP3   OH249137   1.846   2.852   0.169  0.3734  0.4905 -0.0646
 9241TIP3    H149138   1.936   2.820   0.156  0.4165  1.2922 -1.8528
 9241TIP3    H249139   1.851   2.945   0.148 -0.9417  0.4695 -0.4978
 9242TIP3   OH249140   0.735   5.855  12.047  0.0121 -0.1425  0.1328
 9242TIP3    H149141   0.640   5.856  12.061 -0.2664 -0.2097 -1.6549
 9242TIP3    H249142   0.746   5.885  11.957  1.7726  0.9877  0.7111
 9243TIP3   OH249143   2.936   2.571  13.547  0.4694 -0.0298  0.1366
 9243TIP3    H149144   2.965   2.523  13.625  0.7097  1.3951  0.9410
 9243TIP3    H249145   2.880   2.641  13.581  2.0922  1.7724 -0.7891
 9244TIP3   OH249146   2.512   1.631  16.344  0.3682  0.3938 -0.4034
 9244TIP3    H149147   2.503   1.545  16.305 -1.0761  0.3546 -0.0028
 9244TIP3    H249148   2.427   1.673  16.332 -0.2741  0.2328  3.0004
 9245TIP3   OH249149   3.713   1.683   5.864  0.6545 -0.1274  0.1129
 9245TIP3    H149150   3.760   1.637   5.934 -0.0912 -1.1679 -0.0610
 9245TIP3    H249151   3.624   1.692   5.898  0.1411 -1.1576 -0.9331
 9246TIP3   OH249152   2.284   3.856   2.509  0.5815  0.1118 -0.2521
 9246TIP3    H149153   2.263   3.871   2.417 -2.5905 -1.3435  0.1691
 9246TIP3    H249154   2.375   3.827   2.508  0.3251 -0.7566 -3.0199
 9247TIP3   OH249155   3.702   3.828  14.679 -0.1621 -0.7911  0.3742
 9247TIP3    H149156   3.659   3.759  14.729  0.5128 -0.8395  0.8877
 9247TIP3    H249157   3.794   3.823  14.704 -0.2656  0.9682  1.2241
 9248TIP3   OH249158   3.501   4.573   1.145 -0.0600 -0.2990 -0.1249
 9248TIP3    H149159   3.595   4.577   1.128 -0.0459  0.2410  0.0877
 9248TIP3    H249160   3.480   4.480   1.135  0.4102 -0.3596 -0.6148
 9249TIP3   OH249161   0.530   6.254  13.059 -0.1990  0.4926 -0.3844
 9249TIP3    H149162   0.557   6.344  13.075 -1.0763  0.5981  0.5628
 9249TIP3    H249163   0.586   6.202  13.116 -2.6252  0.7926  2.4269
 9250TIP3   OH249164   4.626   6.513  11.605 -0.8590 -0.0670 -0.3602
 9250TIP3    H149165   4.660   6.452  11.540 -1.3077 -1.4313  0.6529
 9250TIP3    H249166   4.580   6.580  11.554  1.7559  0.8133 -1.6238
 9251TIP3   OH249167   3.150   5.594   3.114 -0.1657  0.1097  0.6957
 9251TIP3    H149168   3.102   5.659   3.165  0.6125 -0.4820  2.2179
 9251TIP3    H249169   3.095   5.578   3.037 -0.8948  1.7232  0.8611
 9252TIP3   OH249170   2.731   3.488   0.066  0.1262  1.0179  0.5236
 9252TIP3    H149171   2.655   3.460   0.015 -0.0436  0.5180  1.0440
 9252TIP3    H249172   2.787   3.533   0.003 -0.7587  1.6824  0.2049
 9253TIP3   OH249173   0.745   4.831  10.808  0.3048  0.7032 -0.0268
 9253TIP3    H149174   0.818   4.771  10.794  1.2167  1.4030  1.5818
 9253TIP3    H249175   0.681   4.780  10.858  0.4119  0.6092  0.0130
 9254TIP3   OH249176   1.716   0.469  12.020 -0.0696 -0.3666  0.0445
 9254TIP3    H149177   1.767   0.389  12.013  1.2681  0.5431 -0.8464
 9254TIP3    H249178   1.676   0.480  11.934 -1.1240 -0.6516  0.4973
 9255TIP3   OH249179   4.952   5.542   4.322 -0.0506  0.1428 -0.2422
 9255TIP3    H149180   4.874   5.543   4.266  0.4603  0.6423 -0.9596
 9255TIP3    H249181   4.925   5.493   4.400 -1.7707  2.2374  0.5239
 9256TIP3   OH249182   1.466   6.682   2.141 -0.7291  0.3362  0.3021
 9256TIP3    H149183   1.541   6.740   2.128 -1.3939  0.8009 -1.5592
 9256TIP3    H249184   1.500   6.611   2.197  0.6564  1.3653  0.7908
 9257TIP3   OH249185   4.311   2.062   3.553 -0.3817  0.0294  0.1630
 9257TIP3    H149186   4.338   2.096   3.467 -0.1562  1.0333  0.6221
 9257TIP3    H249187   4.319   1.967   3.545 -0.0710  0.1350 -0.8327
 9258TIP3   OH249188   0.208   0.511   3.692 -0.8367  0.2372  0.5061
 9258TIP3    H149189   0.137   0.451   3.668 -0.2649  0.0932 -0.8605
 9258TIP3    H249190   0.256   0.525   3.611  0.3517  0.8040  1.2955
 9259TIP3   OH249191   1.585   1.814  14.231  0.0066  0.1903 -0.2210
 9259TIP3    H149192   1.527   1.876  14.188 -0.3701 -1.6174 -2.4030
 9259TIP3    H249193   1.550   1.806  14.320  0.7002  3.8435  0.4940
 9260TIP3   OH249194   4.736   6.187   3.617  0.4263 -0.0270 -0.7286
 9260TIP3    H149195   4.679   6.140   3.678 -1.2486  1.4510 -1.0982
 9260TIP3    H249196   4.739   6.132   3.539 -0.9529  0.1154 -0.8948
 9261TIP3   OH249197   3.407   3.042   4.581 -0.4034  0.6868 -0.5718
 9261TIP3    H149198   3.492   3.052   4.537 -1.2692  2.7050 -1.8320
 9261TIP3    H249199   3.374   2.958   4.550  2.0262 -1.1069  1.5149
 9262TIP3   OH249200   4.194   0.109  16.375  0.4352 -0.1352 -0.1662
 9262TIP3    H149201   4.287   0.105  16.397  0.4268 -0.2977 -0.1548
 9262TIP3    H249202   4.154   0.159  16.446  0.5930  0.3652 -0.4317
 9263TIP3   OH249203   3.625   6.500  12.866  0.2744  0.5540  0.0882
 9263TIP3    H149204   3.681   6.425  12.844  0.8676  1.3784 -1.2721
 9263TIP3    H249205   3.655   6.528  12.953  0.5386 -0.3228  0.2863
 9264TIP3   OH249206   2.368   4.435   4.437  0.6737 -0.1761  0.3915
 9264TIP3    H149207   2.459   4.404   4.437  0.9028  0.4852  0.2183
 9264TIP3    H249208   2.328   4.393   4.361  1.5063  1.4462 -0.9688
 9265TIP3   OH249209   6.323   4.954   1.706  0.3747  0.2888 -0.2190
 9265TIP3    H149210   6.371   4.991   1.632  1.1902 -0.8242 -0.2606
 9265TIP3    H249211   6.372   4.876   1.730 -0.0072  0.5099  1.3598
 9266TIP3   OH249212   2.741   1.228   4.562 -0.4626 -0.0008  0.1797
 9266TIP3    H149213   2.680   1.266   4.499  0.1701  1.5236  0.4550
 9266TIP3    H249214   2.825   1.268   4.540 -0.0708 -0.1177  1.4429
 9267TIP3   OH249215   1.523   4.539   4.695  0.6145  0.1340  0.4472
 9267TIP3    H149216   1.470   4.558   4.617 -0.2683 -0.7661  0.8205
 9267TIP3    H249217   1.503   4.610   4.756  0.2515  0.0809  0.3869
 9268TIP3   OH249218   1.218   5.155   4.940 -0.5128 -0.5525 -0.4468
 9268TIP3    H149219   1.213   5.156   5.035 -0.9421  0.3623 -0.4815
 9268TIP3    H249220   1.309   5.129   4.921 -0.3353 -0.4111  0.2050
 9269TIP3   OH249221   0.260   6.410   2.816 -0.3343  0.3432  0.0351
 9269TIP3    H149222   0.342   6.426   2.864  0.2487  0.1340 -0.8718
 9269TIP3    H249223   0.209   6.489   2.829 -1.1178 -0.5826  2.8361
 9270TIP3   OH249224   1.899   6.288   1.178 -0.1461 -0.0951  0.0274
 9270TIP3    H149225   1.892   6.195   1.157 -1.6489  0.1024 -0.4395
 9270TIP3    H249226   1.900   6.332   1.092 -0.4527  0.3702  0.2594
 9271TIP3   OH249227   3.276   0.729  16.670 -0.1521  0.1293 -0.7909
 9271TIP3    H149228   3.213   0.759  16.736  0.2382 -2.4334  0.8441
 9271TIP3    H249229   3.360   0.766  16.698 -0.4266  1.1328 -1.2943
 9272TIP3   OH249230   4.494   3.512   5.366 -0.3205 -0.3310  0.0740
 9272TIP3    H149231   4.543   3.439   5.402 -1.2893 -0.6936  0.6752
 9272TIP3    H249232   4.419   3.471   5.322  0.5444  0.1295 -1.8853
 9273TIP3   OH249233   6.350   0.402   0.508  0.0807 -0.9127  0.3815
 9273TIP3    H149234   6.345   0.377   0.601 -0.4984 -0.8305  0.3761
 9273TIP3    H249235   6.259   0.407   0.480  0.2582 -1.0964 -0.2397
 9274TIP3   OH249236   6.219   5.982  17.087 -0.0358 -0.0329  0.1237
 9274TIP3    H149237   6.210   5.974  17.182 -1.3629 -2.9551 -0.2004
 9274TIP3    H249238   6.301   5.938  17.066  0.3776  0.8223 -0.0619
 9275TIP3   OH249239   2.575   1.278  13.226  0.3096  0.0192  0.2087
 9275TIP3    H149240   2.539   1.190  13.232 -0.1137  0.1432 -0.5418
 9275TIP3    H249241   2.499   1.335  13.216  0.6713  0.3290 -0.8404
 9276TIP3   OH249242   4.658   3.045   4.597  0.3748  0.2239  0.6475
 9276TIP3    H149243   4.605   2.983   4.546  0.3738  1.0576 -0.3591
 9276TIP3    H249244   4.605   3.124   4.602 -0.3832 -0.3774  3.4129
 9277TIP3   OH249245   3.256   1.519   3.075  0.1366  0.1001  0.2773
 9277TIP3    H149246   3.162   1.517   3.061  0.4744  0.0055 -2.1679
 9277TIP3    H249247   3.292   1.460   3.009  1.9210  0.1823  1.1330
 9278TIP3   OH249248   5.313   5.974   3.819 -0.1033  0.2658 -0.0945
 9278TIP3    H149249   5.290   6.027   3.743  0.0883 -1.4403 -1.3615
 9278TIP3    H249250   5.272   5.889   3.803 -0.2520 -0.0667  1.8170
 9279TIP3   OH249251   1.108   4.208  15.578 -0.8028  0.7212 -0.2009
 9279TIP3    H149252   1.028   4.162  15.554 -0.3574  0.3766 -1.0238
 9279TIP3    H249253   1.167   4.140  15.608 -0.2674  0.7993 -1.0844
 9280TIP3   OH249254   3.654   1.603   0.286 -0.0848  0.2317 -0.0555
 9280TIP3    H149255   3.670   1.526   0.341  0.9920 -1.6165 -2.8378
 9280TIP3    H249256   3.572   1.641   0.320 -0.7176 -2.2302  1.2668
 9281TIP3   OH249257   0.535   3.957  12.025  0.2698  0.0292  0.3012
 9281TIP3    H149258   0.527   4.051  12.043 -0.3915  0.1816 -0.7373
 9281TIP3    H249259   0.452   3.920  12.055  0.3565 -0.1582  0.3063
 9282TIP3   OH249260   4.480   3.202   4.411 -0.3488  0.4024  0.0649
 9282TIP3    H149261   4.392   3.170   4.428  0.3006 -2.2475 -1.3601
 9282TIP3    H249262   4.470   3.261   4.337 -0.8678 -0.0870 -0.2543
 9283TIP3   OH249263   4.372   5.005  12.366  0.4884 -0.4164  0.0771
 9283TIP3    H149264   4.341   4.919  12.394 -2.0665  0.2376 -0.5846
 9283TIP3    H249265   4.313   5.029  12.294  0.9208  2.0654  0.5204
 9284TIP3   OH249266   2.899   1.274   1.934  0.0972  0.4189 -0.1938
 9284TIP3    H149267   2.890   1.223   1.853 -1.8915  1.6272 -0.7847
 9284TIP3    H249268   2.817   1.259   1.980  0.6854  0.7929  0.9811
 9285TIP3   OH249269   5.666   5.858   2.639 -0.5055  0.1540 -0.1541
 9285TIP3    H149270   5.580   5.837   2.674  0.2089  1.3159  2.4088
 9285TIP3    H249271   5.659   5.950   2.614 -0.6875 -0.3827 -2.1716
 9286TIP3   OH249272   3.674   2.554  12.681 -0.3497  0.2547  0.4718
 9286TIP3    H149273   3.640   2.522  12.765 -0.6442  0.4092  0.4139
 9286TIP3    H249274   3.648   2.486  12.618  0.0663  0.0303  0.5423
 9287TIP3   OH249275   6.579   2.301  12.032 -0.1455  0.0805 -0.1203
 9287TIP3    H149276   6.511   2.237  12.053  0.5304 -0.2705  1.0050
 9287TIP3    H249277   6.600   2.342  12.115 -1.5483  2.7789 -1.0258
 9288TIP3   OH249278   1.291   2.692   1.624  0.4833  0.1351 -0.3660
 9288TIP3    H149279   1.250   2.652   1.547  0.8828 -1.7985  0.4070
 9288TIP3    H249280   1.240   2.771   1.641  0.3103  0.5208 -2.5365
 9289TIP3   OH249281   1.113   2.083   3.045  0.2252  0.2311 -0.1823
 9289TIP3    H149282   1.184   2.024   3.072 -0.5407 -1.0904 -0.9601
 9289TIP3    H249283   1.135   2.107   2.955 -0.1793  0.0109 -0.3431
 9290TIP3   OH249284   0.673   1.423  14.169  0.1087  0.2521  0.3981
 9290TIP3    H149285   0.639   1.512  14.171  0.2259  0.4582 -3.1810
 9290TIP3    H249286   0.768   1.433  14.165  0.1140 -0.0102 -0.2181
 9291TIP3   OH249287   6.109   3.031  14.051 -1.0771  0.2091 -0.4223
 9291TIP3    H149288   6.096   3.107  13.994  0.5961  1.4102  0.7424
 9291TIP3    H249289   6.091   3.065  14.139 -2.2150 -1.2509 -0.0792
 9292TIP3   OH249290   2.522   3.784   1.658 -0.0826  0.0797  0.1505
 9292TIP3    H149291   2.613   3.766   1.681 -0.0542  0.7677  0.6140
 9292TIP3    H249292   2.493   3.706   1.611  1.2654  0.5427 -1.5099
 9293TIP3   OH249293   3.506   4.962  16.174  0.3470  0.3468  0.1833
 9293TIP3    H149294   3.544   4.875  16.188  0.9852  0.3682 -1.3572
 9293TIP3    H249295   3.484   4.993  16.262  1.2870 -0.8476  0.8574
 9294TIP3   OH249296   1.726   2.238  13.283 -0.3839  0.1100 -0.6089
 9294TIP3    H149297   1.675   2.220  13.204  0.1574 -1.3520 -0.6409
 9294TIP3    H249298   1.778   2.158  13.297  0.8229  1.0145  0.2288
 9295TIP3   OH249299   0.397   3.421  15.293 -0.3763 -0.2433  0.4237
 9295TIP3    H149300   0.371   3.507  15.324  0.0607 -0.0475  0.2543
 9295TIP3    H249301   0.488   3.411  15.322  0.3138  0.2763 -1.4683
 9296TIP3   OH249302   0.087   1.972   3.053  0.4800 -0.4905  0.3252
 9296TIP3    H149303   0.153   1.915   3.014 -1.0737 -1.5903 -0.7642
 9296TIP3    H249304   0.115   2.061   3.031  0.7885 -1.0089 -1.4427
 9297TIP3   OH249305   5.034   5.813  12.668 -0.3664  0.8979 -0.4408
 9297TIP3    H149306   5.063   5.877  12.733  2.1959 -0.4233 -0.2365
 9297TIP3    H249307   5.004   5.738  12.720  1.4833 -0.0748 -0.7472
 9298TIP3   OH249308   5.819   6.518   1.355 -0.1742 -0.5063  0.2008
 9298TIP3    H149309   5.911   6.533   1.331  0.4082 -3.4788  0.4501
 9298TIP3    H249310   5.773   6.508   1.272  0.0393 -0.8358  0.1239
 9299TIP3   OH249311   0.779   6.148   1.159  0.1988  0.0433  0.2512
 9299TIP3    H149312   0.783   6.085   1.232 -1.1502 -0.8867 -0.4672
 9299TIP3    H249313   0.721   6.107   1.095  1.8497  0.5886 -1.6235
 9300TIP3   OH249314   2.103   2.148   0.134 -0.0110 -0.5395  0.3549
 9300TIP3    H149315   2.040   2.159   0.063  1.4033 -0.5741 -0.9350
 9300TIP3    H249316   2.076   2.211   0.201 -0.1298  1.0068 -1.1169
 9301TIP3   OH249317   4.038   5.526  13.737  0.4414  0.2608 -0.1132
 9301TIP3    H149318   3.968   5.494  13.794 -0.8245 -0.4440 -1.9890
 9301TIP3    H249319   3.996   5.594  13.684  1.6505  1.0619 -0.0545
 9302TIP3   OH249320   2.042   2.667   2.105 -0.2223  0.2722  0.3752
 9302TIP3    H149321   2.014   2.576   2.099 -0.1358  0.3185 -0.9752
 9302TIP3    H249322   2.109   2.668   2.173 -1.4767 -0.3429  1.6505
 9303TIP3   OH249323   3.099   2.170  14.078 -0.1887 -0.0159  0.2328
 9303TIP3    H149324   3.071   2.246  14.129  0.3577 -0.2375  0.8680
 9303TIP3    H249325   3.032   2.103  14.095  0.2285 -0.2361  1.0107
 9304TIP3   OH249326   5.198   6.188  11.710  0.3388 -0.1542 -0.7044
 9304TIP3    H149327   5.222   6.097  11.693  0.5996 -0.3112  0.4888
 9304TIP3    H249328   5.228   6.236  11.632  3.4804 -0.5329  0.1873
 9305TIP3   OH249329   1.496   4.269   5.551 -0.3292 -0.5403 -0.0301
 9305TIP3    H149330   1.429   4.315   5.601  0.7579 -0.1246  1.0756
 9305TIP3    H249331   1.578   4.312   5.575  0.5072 -1.9503 -0.2957
 9306TIP3   OH249332   5.912   3.839  12.109 -0.0759  0.0931  0.1119
 9306TIP3    H149333   5.978   3.902  12.139  0.2311 -0.1675 -0.0169
 9306TIP3    H249334   5.829   3.885  12.119 -0.0165 -0.1325  1.7420
 9307TIP3   OH249335   1.679   5.186  11.232 -0.0680  0.5601 -0.2891
 9307TIP3    H149336   1.727   5.268  11.242 -0.8175  0.9066  0.6620
 9307TIP3    H249337   1.741   5.118  11.257  0.4057  0.8804 -0.5958
 9308TIP3   OH249338   3.329   4.432  16.657 -0.1558  0.2580  0.0847
 9308TIP3    H149339   3.334   4.372  16.731  1.7033 -2.1546 -1.9326
 9308TIP3    H249340   3.259   4.397  16.602 -0.6257  1.2795  0.0194
 9309TIP3   OH249341   2.256   0.407   1.395 -0.0220 -0.6917 -0.5633
 9309TIP3    H149342   2.161   0.403   1.398 -0.0147 -0.8973 -0.5577
 9309TIP3    H249343   2.283   0.434   1.482  0.0001 -2.3302 -0.0373
 9310TIP3   OH249344   2.130   2.932   6.764  0.1883 -0.2533 -0.2674
 9310TIP3    H149345   2.162   3.018   6.734 -0.1919  0.4483  1.3089
 9310TIP3    H249346   2.183   2.869   6.716 -0.2717  0.8364 -2.3102
 9311TIP3   OH249347   1.857   6.549   5.913 -0.3638 -0.2085  0.3320
 9311TIP3    H149348   1.774   6.510   5.941 -0.4760 -1.0904 -1.1449
 9311TIP3    H249349   1.922   6.511   5.972 -0.9757  0.3984  1.4254
 9312TIP3   OH249350   2.608   3.813   5.252 -1.1378 -0.0794 -0.5959
 9312TIP3    H149351   2.658   3.769   5.184 -1.4678 -1.8245  0.2438
 9312TIP3    H249352   2.582   3.896   5.214  1.3240  0.2962 -1.4750
 9313TIP3   OH249353   4.052   2.652   5.653 -0.2481  0.0077  0.5398
 9313TIP3    H149354   4.053   2.738   5.695  1.0157  0.6508 -0.7316
 9313TIP3    H249355   4.144   2.623   5.655 -0.5963 -1.1016  0.5634
 9314TIP3   OH249356   2.602   3.324   4.959 -0.0908  0.6932 -0.1444
 9314TIP3    H149357   2.545   3.400   4.971  0.6215  0.9878  1.3724
 9314TIP3    H249358   2.586   3.297   4.868 -3.9970 -0.2924  0.7078
 9315TIP3   OH249359   4.266   5.750   2.483 -0.0298  0.2906 -0.6215
 9315TIP3    H149360   4.290   5.669   2.440  1.2672 -0.0048  0.6198
 9315TIP3    H249361   4.265   5.729   2.576 -1.7066  1.1868 -0.3963
 9316TIP3   OH249362   6.210   1.734   5.359  0.4576  0.2534 -0.0976
 9316TIP3    H149363   6.184   1.671   5.427  1.9243  2.3492  2.4907
 9316TIP3    H249364   6.134   1.789   5.346  0.1230 -0.2477 -0.2733
 9317TIP3   OH249365   4.528   3.488  12.210 -0.0067 -0.1393 -0.8942
 9317TIP3    H149366   4.518   3.432  12.287  1.2242  0.4649 -0.2926
 9317TIP3    H249367   4.438   3.517  12.190 -0.2559  0.2432  0.7103
 9318TIP3   OH249368   6.760   3.440  12.857 -0.0595  0.7363 -0.0107
 9318TIP3    H149369   6.691   3.460  12.795  0.5157  0.2169 -0.8384
 9318TIP3    H249370   6.810   3.370  12.815 -0.1137 -0.1601  1.3696
 9319TIP3   OH249371   0.354   5.214  14.264  0.2202 -0.2396 -0.4862
 9319TIP3    H149372   0.369   5.138  14.208 -0.7260  0.7541 -2.1524
 9319TIP3    H249373   0.352   5.288  14.203 -2.8459  0.6553  0.6264
 9320TIP3   OH249374   1.300   4.382   5.303  0.3132 -0.2553 -0.3595
 9320TIP3    H149375   1.359   4.420   5.368  0.4514  0.3044 -0.8120
 9320TIP3    H249376   1.340   4.298   5.281 -0.4852 -1.1062  1.3303
 9321TIP3   OH249377   2.743   5.363  13.655 -0.3409  0.3975 -0.3910
 9321TIP3    H149378   2.793   5.339  13.733 -0.1715 -0.7746 -0.8613
 9321TIP3    H249379   2.683   5.432  13.686  0.8110  1.0528  0.4120
 9322TIP3   OH249380   3.070   3.809  11.369  0.6476 -0.4378  0.4497
 9322TIP3    H149381   3.135   3.767  11.313  0.9767  0.7782 -0.0839
 9322TIP3    H249382   3.115   3.823  11.452  1.1368  0.5820  0.0185
 9323TIP3   OH249383   3.588   2.810   3.609 -0.1932 -0.7072 -0.4424
 9323TIP3    H149384   3.525   2.739   3.596 -0.1045 -0.8878  0.1275
 9323TIP3    H249385   3.657   2.792   3.545 -0.4696 -0.7974 -0.7149
 9324TIP3   OH249386   4.378   3.990  15.486  0.4768 -0.2647  0.2133
 9324TIP3    H149387   4.406   3.909  15.529 -1.5008 -1.1740 -0.1793
 9324TIP3    H249388   4.283   3.985  15.485  0.3584  1.7479 -0.4616
 9325TIP3   OH249389   5.980   2.869   3.258  0.3167  0.7932 -0.7248
 9325TIP3    H149390   6.021   2.942   3.304  1.7177 -0.2967 -0.2359
 9325TIP3    H249391   6.044   2.843   3.192 -0.1491 -0.0498 -0.8432
 9326TIP3   OH249392   2.798   0.597  12.298  0.6153 -0.0207 -0.2069
 9326TIP3    H149393   2.750   0.672  12.266 -0.3555 -0.4129  0.3226
 9326TIP3    H249394   2.761   0.522  12.250  0.8874 -0.2878 -0.0041
 9327TIP3   OH249395   3.069   4.439  11.247  0.3972  0.6481  0.5282
 9327TIP3    H149396   3.099   4.390  11.171 -2.5017  0.4697 -0.5643
 9327TIP3    H249397   3.122   4.519  11.247  0.4451  0.6406 -1.6487
 9328TIP3   OH249398   3.231   4.944  12.033 -0.3812 -0.5462  0.7271
 9328TIP3    H149399   3.143   4.906  12.040  0.1228 -2.0827 -0.8521
 9328TIP3    H249400   3.227   5.000  11.955  0.3879 -1.6770 -0.1450
 9329TIP3   OH249401   5.879   5.005  16.017 -0.1001  0.0063  0.3488
 9329TIP3    H149402   5.846   5.026  16.104 -2.2631 -3.3415  0.4252
 9329TIP3    H249403   5.946   4.938  16.032 -0.3308 -0.4327 -0.5711
 9330TIP3   OH249404   1.907   0.002   5.790 -0.2424 -0.9409 -0.0179
 9330TIP3    H149405   1.981  -0.050   5.759 -0.4641 -0.4942 -1.3418
 9330TIP3    H249406   1.859  -0.058   5.847  0.7542 -1.4581  0.2867
 9331TIP3   OH249407   1.550   0.505  12.217  0.3158  0.3092  0.1648
 9331TIP3    H149408   1.545   0.412  12.240  1.9198  0.3045  0.5871
 9331TIP3    H249409   1.597   0.506  12.134  0.4550  0.7444  0.2478
 9332TIP3   OH249410   0.475   3.425   5.508 -0.2865 -0.2217  0.6305
 9332TIP3    H149411   0.510   3.428   5.419 -0.1248 -0.3216  0.6898
 9332TIP3    H249412   0.551   3.408   5.564 -0.5093 -1.0109  0.7027
 9333TIP3   OH249413   1.238   4.553  11.649  0.4995 -0.2973  0.1816
 9333TIP3    H149414   1.162   4.558  11.706 -0.2271  1.9903 -0.9244
 9333TIP3    H249415   1.275   4.466  11.665 -1.3589 -0.7880  1.9580
 9334TIP3   OH249416   5.460   2.584   3.178  0.1447 -0.0634  0.2324
 9334TIP3    H149417   5.394   2.543   3.122  0.2133  1.2027 -0.7822
 9334TIP3    H249418   5.537   2.528   3.169 -0.0813 -0.2807 -0.3542
 9335TIP3   OH249419   0.684   3.290  15.240 -0.2498 -0.0409 -0.2107
 9335TIP3    H149420   0.627   3.334  15.176 -2.4266 -1.4818  0.6589
 9335TIP3    H249421   0.681   3.198  15.215  1.4750 -0.1927  0.0730
 9336TIP3   OH249422   6.609   0.270   0.881 -0.0030  0.1937 -0.7752
 9336TIP3    H149423   6.689   0.315   0.851 -0.8745  1.2086 -1.6086
 9336TIP3    H249424   6.610   0.187   0.834 -0.2696  0.8997 -2.0767
 9337TIP3   OH249425   1.256   6.580  15.994 -0.1147  0.1449  0.4939
 9337TIP3    H149426   1.301   6.604  15.913 -0.2593 -0.8224  0.1216
 9337TIP3    H249427   1.326   6.566  16.057 -0.0100  1.1262  0.6066
 9338TIP3   OH249428   3.400   1.488  16.556  0.2827 -0.2773  0.0245
 9338TIP3    H149429   3.320   1.538  16.542 -0.8483 -1.4887  1.9240
 9338TIP3    H249430   3.421   1.451  16.470  0.5898  2.5974 -1.1876
 9339TIP3   OH249431   6.651   3.471   0.076  0.1675 -0.1835 -0.3011
 9339TIP3    H149432   6.716   3.434   0.136  0.4646  0.0848 -0.4533
 9339TIP3    H249433   6.575   3.413   0.084 -0.5268  0.9622  1.7854
 9340TIP3   OH249434   2.069   4.759  13.585 -0.3000  0.1721  0.5143
 9340TIP3    H149435   2.028   4.760  13.498  0.6976  0.3650  0.0389
 9340TIP3    H249436   2.126   4.835  13.586  1.0399 -0.8278  0.6861
 9341TIP3   OH249437   4.053   0.712   2.164  0.1124  0.8019 -0.3453
 9341TIP3    H149438   3.991   0.676   2.101 -1.4345  3.0761 -0.1936
 9341TIP3    H249439   4.130   0.735   2.111 -0.1908  0.3541 -0.9897
 9342TIP3   OH249440   0.336   4.587  13.705  0.1217  0.2546  0.1822
 9342TIP3    H149441   0.379   4.643  13.769 -0.3679 -1.0176  1.6829
 9342TIP3    H249442   0.398   4.516  13.689 -0.2888 -0.1277  0.2651
 9343TIP3   OH249443   4.474   3.411   3.436  0.6379  0.3169  0.6802
 9343TIP3    H149444   4.383   3.438   3.424  1.5371  3.2345  0.0365
 9343TIP3    H249445   4.498   3.367   3.355 -0.3134 -0.9567  1.0596
 9344TIP3   OH249446   4.210   3.430  12.918 -0.3397 -0.1441 -0.1317
 9344TIP3    H149447   4.280   3.431  12.852 -1.2487  2.3850 -1.1042
 9344TIP3    H249448   4.143   3.373  12.880 -0.2327  0.1276 -0.7330
 9345TIP3   OH249449   6.346   0.200  16.081  0.1622 -0.2909  0.1877
 9345TIP3    H149450   6.429   0.156  16.101  0.9799  0.9006 -0.4574
 9345TIP3    H249451   6.361   0.291  16.107 -0.7308  0.0583 -0.4944
 9346TIP3   OH249452   6.330   5.372   2.951 -0.1523 -0.0824  0.2830
 9346TIP3    H149453   6.365   5.437   3.012 -0.8395  0.8742 -0.3237
 9346TIP3    H249454   6.402   5.311   2.936  0.0265 -0.3392  2.0646
 9347TIP3   OH249455   4.191   1.045  15.783  0.4682 -0.1793 -0.2667
 9347TIP3    H149456   4.215   1.128  15.825  1.9807 -0.9111  0.3465
 9347TIP3    H249457   4.125   1.007  15.841 -3.7589  2.6740 -2.8577
 9348TIP3   OH249458   1.274   6.774  12.431  0.0503  0.5215 -0.2613
 9348TIP3    H149459   1.289   6.779  12.337 -0.5650  1.0000 -0.3356
 9348TIP3    H249460   1.317   6.852  12.466  0.7325  0.0693 -0.0860
 9349TIP3   OH249461   1.439   6.430  11.584  0.3581 -0.1355 -0.5365
 9349TIP3    H149462   1.498   6.473  11.522 -0.4888  0.5187 -0.8868
 9349TIP3    H249463   1.394   6.502  11.628 -0.9024 -0.6531 -0.9722
 9350TIP3   OH249464   6.024   5.539  15.859  0.4362 -0.2488  0.0441
 9350TIP3    H149465   6.042   5.627  15.892  1.7683 -0.4312 -0.1776
 9350TIP3    H249466   5.993   5.491  15.936  0.3558  0.2297  0.3142
 9351TIP3   OH249467   5.204   4.832   2.450 -0.1554  0.3749 -0.6155
 9351TIP3    H149468   5.230   4.793   2.367  1.6164  2.4768 -1.0800
 9351TIP3    H249469   5.257   4.911   2.457 -1.5577  1.1466  1.6890
 9352TIP3   OH249470   4.193   6.139   2.353  0.8325  0.3891 -0.1260
 9352TIP3    H149471   4.265   6.091   2.393  1.3423  1.8299  0.7226
 9352TIP3    H249472   4.115   6.109   2.399  1.0631 -0.1101 -0.0646
 9353TIP3   OH249473   2.548   5.743   5.726  0.4378 -0.2329 -0.3144
 9353TIP3    H149474   2.574   5.798   5.800  1.1773  1.3852 -1.7378
 9353TIP3    H249475   2.452   5.744   5.728  0.4523  0.1104  0.3986
 9354TIP3   OH249476   5.951   2.743  13.746  0.6778  0.1037 -0.4531
 9354TIP3    H149477   5.876   2.684  13.752  0.1398  0.8116 -0.1131
 9354TIP3    H249478   5.994   2.719  13.665 -1.2912  1.2780 -1.8887
 9355TIP3   OH249479   3.021   1.765   5.290 -0.1364  0.1704 -0.1281
 9355TIP3    H149480   3.017   1.697   5.357 -1.3919  0.4877  0.1315
 9355TIP3    H249481   3.104   1.751   5.246 -0.7998 -2.1165 -0.6915
 9356TIP3   OH249482   3.520   4.556   5.423  0.5911 -0.2746  0.4011
 9356TIP3    H149483   3.523   4.651   5.413  0.7282 -0.2928  0.2751
 9356TIP3    H249484   3.518   4.542   5.518 -1.2520 -0.0940  0.3907
 9357TIP3   OH249485   5.870   0.765   4.918  0.0167 -0.0246 -0.1403
 9357TIP3    H149486   5.816   0.745   4.994  1.0905  1.0053  0.9325
 9357TIP3    H249487   5.896   0.857   4.930  2.0198 -0.4952 -0.5751
 9358TIP3   OH249488   4.162   1.987  12.759  0.4337  0.7461  0.0613
 9358TIP3    H149489   4.246   2.005  12.802 -0.8772  3.2895  1.7369
 9358TIP3    H249490   4.162   2.046  12.683  0.0291  0.9567  0.2282
 9359TIP3   OH249491   0.437   1.324   1.816  0.2073 -0.2172  0.4206
 9359TIP3    H149492   0.453   1.230   1.826  0.6733 -0.1887 -0.0585
 9359TIP3    H249493   0.349   1.329   1.778  1.2261 -0.5765 -2.1477
 9360TIP3   OH249494   1.939   4.836   1.830 -0.2994 -0.1400  0.2467
 9360TIP3    H149495   2.017   4.850   1.776 -1.2109  1.7834 -0.6478
 9360TIP3    H249496   1.927   4.919   1.877 -2.3311 -0.0522 -0.3529
 9361TIP3   OH249497   5.482   0.857   4.163  0.0531  0.5159 -0.8364
 9361TIP3    H149498   5.401   0.807   4.152 -0.9018  1.8549 -0.0855
 9361TIP3    H249499   5.452   0.946   4.182  1.7149  1.1029 -0.9195
 9362TIP3   OH249500   2.297   5.179  11.503  0.1046  0.6538 -0.1279
 9362TIP3    H149501   2.329   5.092  11.481 -0.4400  0.9709 -2.3579
 9362TIP3    H249502   2.202   5.168  11.510  0.0162  1.0919 -0.6082
 9363TIP3   OH249503   2.402   6.759  15.800  0.0903  0.0029 -0.2375
 9363TIP3    H149504   2.365   6.765  15.888 -0.2318  0.5452 -0.4076
 9363TIP3    H249505   2.433   6.847  15.780 -1.7114  0.4076 -1.4693
 9364TIP3   OH249506   2.205   3.367  15.588 -0.2201 -0.3078 -0.2812
 9364TIP3    H149507   2.218   3.273  15.600 -1.2065 -0.5122 -0.7704
 9364TIP3    H249508   2.118   3.385  15.624  0.2420  0.5389  0.4313
 9365TIP3   OH249509   4.958   5.233  16.654  0.2288 -0.1647  0.1437
 9365TIP3    H149510   4.935   5.326  16.666  2.1799  0.3741 -0.0818
 9365TIP3    H249511   4.880   5.194  16.616 -0.4135  1.5312 -0.3289
 9366TIP3   OH249512   1.001   0.530   5.131 -0.3368  0.5406  0.1379
 9366TIP3    H149513   0.950   0.500   5.056  0.7609 -1.3131  0.1063
 9366TIP3    H249514   1.092   0.511   5.108 -0.0903 -1.5209  2.5287
 9367TIP3   OH249515   5.830   3.168   4.509  0.1960 -0.0005  0.4279
 9367TIP3    H149516   5.758   3.171   4.445 -0.2153  0.7376  0.9182
 9367TIP3    H249517   5.874   3.085   4.492 -1.2895 -0.8602  0.6709
 9368TIP3   OH249518   3.223   6.573   1.229  0.1793  0.1353  0.1099
 9368TIP3    H149519   3.312   6.607   1.228  1.0361 -2.0281  0.5733
 9368TIP3    H249520   3.214   6.532   1.315 -1.0382 -0.2832 -0.2030
 9369TIP3   OH249521   1.122   3.260   3.059  0.0731 -0.0740  0.1806
 9369TIP3    H149522   1.035   3.220   3.063 -0.0691  0.0799 -1.2191
 9369TIP3    H249523   1.150   3.247   2.969  0.9764  0.9820  0.3052
 9370TIP3   OH249524   1.814   5.072  13.508  0.4511 -0.0396 -0.3128
 9370TIP3    H149525   1.719   5.070  13.505  0.3818  1.2568  0.6790
 9370TIP3    H249526   1.842   5.037  13.423 -0.9131  0.9958 -1.1896
 9371TIP3   OH249527   2.220   5.045   5.595 -0.4477  0.1386  0.1960
 9371TIP3    H149528   2.145   5.033   5.653 -0.4526  0.2150  0.2056
 9371TIP3    H249529   2.263   5.124   5.627 -0.3051  0.0397  0.2530
 9372TIP3   OH249530   0.626   2.789  15.048  0.2262  0.1244  0.2568
 9372TIP3    H149531   0.700   2.729  15.042  0.2683  0.3535 -1.9220
 9372TIP3    H249532   0.557   2.738  15.090  0.5347 -1.2070 -0.8133
 9373TIP3   OH249533   3.453   3.360   4.142 -0.6837  0.6876  0.2883
 9373TIP3    H149534   3.367   3.390   4.112 -1.2915 -2.2612 -1.0808
 9373TIP3    H249535   3.434   3.282   4.194  1.2897 -1.2945 -1.8806
 9374TIP3   OH249536   3.993   4.356  15.360 -0.7246 -0.3937  0.3768
 9374TIP3    H149537   3.973   4.444  15.393 -0.0303 -0.5906  1.3394
 9374TIP3    H249538   4.068   4.368  15.302 -1.4816 -0.1567 -0.5645
 9375TIP3   OH249539   1.509   3.010  12.589 -0.1295 -0.4812 -0.1310
 9375TIP3    H149540   1.557   3.090  12.566  1.2893 -1.0669  0.7123
 9375TIP3    H249541   1.552   2.941  12.541 -0.3809 -0.9664  0.3348
 9376TIP3   OH249542   3.648   2.833  13.110 -0.1299 -0.3651 -0.3521
 9376TIP3    H149543   3.559   2.830  13.075 -0.6159  0.0107  0.8305
 9376TIP3    H249544   3.702   2.862  13.036 -1.0381 -0.2316 -0.9710
 9377TIP3   OH249545   0.463   3.474   4.821 -0.3576  0.1933 -0.3064
 9377TIP3    H149546   0.411   3.425   4.758 -2.9481  0.2683  1.6699
 9377TIP3    H249547   0.433   3.564   4.812 -0.1182  0.3466  0.3676
 9378TIP3   OH249548   5.252   5.046  15.376 -0.4715  0.5190 -0.5282
 9378TIP3    H149549   5.164   5.063  15.344  0.2260  2.1427 -1.6645
 9378TIP3    H249550   5.305   5.117  15.339  1.5704 -1.2009 -0.9848
 9379TIP3   OH249551   3.151   3.945  12.127  0.1952  0.2296 -0.3488
 9379TIP3    H149552   3.147   3.857  12.090 -0.3018 -0.2930  0.9299
 9379TIP3    H249553   3.245   3.961  12.139  0.1908 -1.1594  1.8006
 9380TIP3   OH249554   2.212   0.209  11.970  0.1575  0.1654 -0.4630
 9380TIP3    H149555   2.259   0.279  12.016  0.1134 -0.0283 -0.1272
 9380TIP3    H249556   2.268   0.132  11.979 -0.5655 -0.2492  0.5641
 9381TIP3   OH249557   5.158   0.698  17.016 -0.0550  0.0117  0.7621
 9381TIP3    H149558   5.093   0.644  17.061 -1.5141  0.4853 -0.7091
 9381TIP3    H249559   5.122   0.787  17.020  1.6989  0.7108  2.0441
 9382TIP3   OH249560   1.225   0.946  14.997  0.4368  0.2702  0.6702
 9382TIP3    H149561   1.277   0.896  15.060  1.7108  0.8638  0.1253
 9382TIP3    H249562   1.279   0.946  14.918 -0.0944  1.4769  0.3043
 9383TIP3   OH249563   3.848   2.308  15.754  0.0971  0.1859  0.0980
 9383TIP3    H149564   3.887   2.235  15.706 -1.9177 -0.3732 -0.7611
 9383TIP3    H249565   3.805   2.266  15.829 -0.0300  0.6300  0.2698
 9384TIP3   OH249566   3.785   2.836  13.961  0.2013  0.2735  0.0579
 9384TIP3    H149567   3.844   2.782  13.907  0.8251 -0.5210  1.4988
 9384TIP3    H249568   3.725   2.773  14.001 -0.0285  0.8108  0.5691
 9385TIP3   OH249569   0.071   4.049   1.738  0.5864 -0.1832  0.0562
 9385TIP3    H149570   0.078   4.080   1.648 -3.3033  1.1229  0.1139
 9385TIP3    H249571   0.015   3.972   1.733 -0.8237  0.7200  1.5010
 9386TIP3   OH249572   0.907   5.413   1.012 -0.2320  0.8606  0.1591
 9386TIP3    H149573   0.997   5.380   1.014 -0.2970  0.6796  0.1869
 9386TIP3    H249574   0.869   5.380   1.093 -0.6579 -0.0348 -0.3966
 9387TIP3   OH249575   1.294   1.441   1.833 -0.6897 -0.2587 -0.0121
 9387TIP3    H149576   1.252   1.511   1.784 -0.2860  1.0624  1.4661
 9387TIP3    H249577   1.224   1.405   1.888 -0.3497  0.6625  1.0449
 9388TIP3   OH249578   3.860   2.319  16.683 -0.2625 -0.2688 -0.6195
 9388TIP3    H149579   3.827   2.272  16.606 -1.1827  0.8673 -0.9399
 9388TIP3    H249580   3.841   2.411  16.664  2.4224  0.3497 -0.4477
 9389TIP3   OH249581   1.414   6.297  15.827 -0.1036  0.3224  0.0310
 9389TIP3    H149582   1.423   6.293  15.731 -1.3109 -0.1482 -0.0733
 9389TIP3    H249583   1.468   6.371  15.853 -1.0053  1.4426 -1.2001
 9390TIP3   OH249584   2.903   0.029  14.598  0.0620 -0.3123  0.2245
 9390TIP3    H149585   2.915   0.033  14.693  0.2640 -0.4627  0.2038
 9390TIP3    H249586   2.953   0.104  14.565  0.4310 -0.5700  0.1936
 9391TIP3   OH249587   2.469   1.846   4.228  0.7179  0.2532 -0.0760
 9391TIP3    H149588   2.411   1.866   4.155  0.7225  0.1964 -0.0949
 9391TIP3    H249589   2.452   1.914   4.293  0.6606  0.2605 -0.0995
 9392TIP3   OH249590   5.337   2.922   5.784 -0.0481 -0.2390 -0.3274
 9392TIP3    H149591   5.378   2.891   5.865 -1.6233  2.0516  1.4349
 9392TIP3    H249592   5.244   2.928   5.806 -0.3116  1.6384 -1.8926
 9393TIP3   OH249593   1.921   4.595  15.163  1.0995 -0.1638 -0.2868
 9393TIP3    H149594   1.940   4.586  15.256 -0.1711  1.7548  0.1759
 9393TIP3    H249595   1.943   4.686  15.142 -1.8736  0.4185 -1.0743
 9394TIP3   OH249596   3.672   2.147   4.735 -0.0376 -0.0086 -0.3121
 9394TIP3    H149597   3.673   2.077   4.800 -1.2282  0.7976  0.6006
 9394TIP3    H249598   3.587   2.137   4.691 -0.1476  0.7545 -0.2765
 9395TIP3   OH249599   1.612   2.362   4.211  0.0010 -0.0478 -0.0504
 9395TIP3    H149600   1.534   2.309   4.226  0.8163 -1.3574 -0.2991
 9395TIP3    H249601   1.646   2.380   4.298 -0.2756  0.0500  0.0370
 9396TIP3   OH249602   2.156   5.446   5.320 -0.3433 -0.9175  0.2275
 9396TIP3    H149603   2.090   5.428   5.387  0.2712  0.5515  1.2664
 9396TIP3    H249604   2.131   5.531   5.284  0.9892 -0.3098  0.6779
 9397TIP3   OH249605   1.397   2.065   0.665  0.6389  0.4121 -0.2431
 9397TIP3    H149606   1.390   2.054   0.760 -1.4175 -0.2854 -0.4464
 9397TIP3    H249607   1.482   2.027   0.642 -0.1339 -2.0925  0.9512
 9398TIP3   OH249608   3.889   4.570  10.344  0.0812 -0.3599  0.1994
 9398TIP3    H149609   3.898   4.666  10.346  0.2442 -0.3464 -1.0480
 9398TIP3    H249610   3.800   4.554  10.377  0.2205  0.1828  0.8655
 9399TIP3   OH249611   1.089   3.402   2.249  0.2497 -0.2106 -0.2476
 9399TIP3    H149612   1.146   3.479   2.254 -0.0900 -0.0383  1.2467
 9399TIP3    H249613   1.112   3.360   2.167  1.4508  0.7039 -0.3866
 9400TIP3   OH249614   5.499   2.767  15.584  0.2870 -0.0747 -0.0772
 9400TIP3    H149615   5.593   2.747  15.586 -0.0193 -1.6304 -0.9533
 9400TIP3    H249616   5.465   2.718  15.510 -1.3152  0.1155  0.5073
 9401TIP3   OH249617   5.981   0.515   0.923  0.0596 -0.0027  0.4104
 9401TIP3    H149618   5.977   0.564   1.005 -0.5002 -0.0051  0.3812
 9401TIP3    H249619   6.067   0.538   0.886  1.0444 -1.3212  1.8131
 9402TIP3   OH249620   3.062   5.807  11.229 -0.6587 -0.0653 -0.2887
 9402TIP3    H149621   3.021   5.724  11.207 -2.3927  1.2797 -2.2976
 9402TIP3    H249622   3.046   5.818  11.323 -0.7361 -1.7834 -0.0832
 9403TIP3   OH249623   2.588   4.107  11.573 -0.3962 -0.4038 -0.3516
 9403TIP3    H149624   2.607   4.066  11.657 -0.4370 -0.2720 -0.2775
 9403TIP3    H249625   2.506   4.068  11.544 -1.0386  0.4618  0.2706
 9404TIP3   OH249626   6.652   6.470   3.532  0.2630  0.1060  0.0762
 9404TIP3    H149627   6.721   6.470   3.598 -0.6124 -1.8984  1.0572
 9404TIP3    H249628   6.681   6.405   3.467 -0.2771 -0.1256  0.0588
 9405TIP3   OH249629   1.776   1.982  10.760 -0.3339  0.1984 -0.6410
 9405TIP3    H149630   1.810   1.925  10.690 -0.4773  1.8615 -2.0862
 9405TIP3    H249631   1.726   2.049  10.714 -0.6622  1.1671  1.1004
 9406TIP3   OH249632   2.856   6.226  13.439  0.5566 -0.0254  0.1282
 9406TIP3    H149633   2.774   6.262  13.471 -0.2552 -0.7471 -1.1156
 9406TIP3    H249634   2.833   6.140  13.405  2.0454 -0.7281  0.8425
 9407TIP3   OH249635   2.849   2.122  15.308 -0.1524  0.1724 -0.4912
 9407TIP3    H149636   2.887   2.189  15.364 -0.3927  0.0544 -0.1824
 9407TIP3    H249637   2.923   2.072  15.276  0.1173  1.2218 -1.5532
 9408TIP3   OH249638   5.266   0.325   4.374 -1.3685  0.2279 -0.0089
 9408TIP3    H149639   5.357   0.310   4.350 -1.3374  0.6259 -0.1485
 9408TIP3    H249640   5.256   0.421   4.374 -1.1350  0.2878  2.4492
 9409TIP3   OH249641   0.956   4.593   3.080  0.0385  0.1878  0.1345
 9409TIP3    H149642   0.933   4.625   2.993 -1.1631 -1.8527 -0.3444
 9409TIP3    H249643   1.042   4.552   3.069 -1.1091 -2.0983 -0.6603
 9410TIP3   OH249644   1.003   1.200   1.757 -0.3988  0.0683  0.1978
 9410TIP3    H149645   1.049   1.163   1.832 -1.4390 -1.8587 -0.0705
 9410TIP3    H249646   0.960   1.125   1.716  1.0079  0.8780 -2.9597
 9411TIP3   OH249647   3.399   0.022  13.424 -0.3642  0.2183  0.2010
 9411TIP3    H149648   3.406   0.025  13.329  1.0092  2.6500  0.3334
 9411TIP3    H249649   3.489   0.008  13.454 -0.7694 -0.3818  1.1426
 9412TIP3   OH249650   1.588   4.375   6.253 -0.7620  0.0626 -0.6904
 9412TIP3    H149651   1.641   4.447   6.221  0.5641 -0.0779  1.1076
 9412TIP3    H249652   1.515   4.418   6.299  0.0293  0.2824  0.3854
 9413TIP3   OH249653   5.373   6.532   0.931 -0.4315  0.4126 -0.0672
 9413TIP3    H149654   5.293   6.497   0.891  0.1479 -0.0123 -0.8627
 9413TIP3    H249655   5.439   6.464   0.915  0.4254  1.3632 -0.6138
 9414TIP3   OH249656   0.145   3.203  16.359 -0.0413 -0.5151 -0.9640
 9414TIP3    H149657   0.132   3.244  16.273 -1.8718  0.3077 -0.3094
 9414TIP3    H249658   0.158   3.276  16.419  1.5374 -1.1022 -0.5780
 9415TIP3   OH249659   1.597   1.160  12.407 -0.3687  0.5024 -0.2877
 9415TIP3    H149660   1.512   1.176  12.448 -0.4395  0.6070 -0.4752
 9415TIP3    H249661   1.615   1.067  12.425 -2.2756 -0.5512 -3.4937
 9416TIP3   OH249662   1.413   6.492   4.667 -0.2807  0.2537 -0.7456
 9416TIP3    H149663   1.355   6.474   4.740  1.4270  1.9056  1.0726
 9416TIP3    H249664   1.357   6.486   4.589 -2.2856 -0.7167  0.7240
 9417TIP3   OH249665   0.473   0.229   1.162  0.1309  0.7065 -0.1034
 9417TIP3    H149666   0.564   0.257   1.177  0.1715  1.0803 -1.0380
 9417TIP3    H249667   0.427   0.310   1.140 -0.4274  0.5123  0.3437
 9418TIP3   OH249668   0.328   3.211   1.015  0.6063  0.3755 -0.1649
 9418TIP3    H149669   0.414   3.237   0.983  0.1246  1.8891 -0.2696
 9418TIP3    H249670   0.341   3.124   1.053  2.5393  1.3190  1.4001
 9419TIP3   OH249671   4.209   3.217   1.232 -0.2190 -0.2724  0.0305
 9419TIP3    H149672   4.280   3.158   1.258 -0.7403 -0.3888  1.2225
 9419TIP3    H249673   4.133   3.159   1.221 -0.6742  0.1276  0.9690
 9420TIP3   OH249674   1.546   5.952  17.192 -0.0531 -0.1391 -0.6902
 9420TIP3    H149675   1.600   6.029  17.213  0.9085 -0.9728 -0.0403
 9420TIP3    H249676   1.487   5.982  17.123 -0.3476  1.4650  0.2241
 9421TIP3   OH249677   3.016   2.556   1.542 -0.5570 -0.3312  0.0207
 9421TIP3    H149678   3.112   2.556   1.547 -0.6091 -1.1692  1.2373
 9421TIP3    H249679   2.996   2.510   1.461  0.0927  0.6593 -0.7050
 9422TIP3   OH249680   3.542   2.962   3.322 -0.0112  0.0375 -0.0220
 9422TIP3    H149681   3.555   2.992   3.232  1.3374  0.7277  0.3923
 9422TIP3    H249682   3.546   2.867   3.317 -2.7631 -0.0671 -1.1091
 9423TIP3   OH249683   2.417   3.242   0.964 -0.0116  0.5910 -0.0119
 9423TIP3    H149684   2.398   3.269   1.054 -1.8572 -0.9419  0.0957
 9423TIP3    H249685   2.429   3.324   0.916 -0.3635  1.4585  1.3586
 9424TIP3   OH249686   3.124   5.032   4.246 -0.6353  0.2339 -0.1034
 9424TIP3    H149687   3.182   4.979   4.300 -1.4444 -0.1976  0.3533
 9424TIP3    H249688   3.116   4.982   4.164  2.3868  1.9766 -1.5445
 9425TIP3   OH249689   2.754   1.256   5.351  0.1526  0.5708 -0.3389
 9425TIP3    H149690   2.790   1.207   5.277 -1.6138 -2.5302  0.7583
 9425TIP3    H249691   2.831   1.284   5.401  1.2175 -1.2616 -0.9045
 9426TIP3   OH249692   2.679   1.181  14.495 -0.1752 -0.1271 -0.0705
 9426TIP3    H149693   2.695   1.260  14.547 -3.0403 -0.4296  1.3847
 9426TIP3    H249694   2.684   1.211  14.404  0.5163  1.3469  0.4388
 9427TIP3   OH249695   1.748   4.027  15.011 -0.0646 -0.5234 -0.2504
 9427TIP3    H149696   1.730   4.121  15.008 -0.8431 -0.6997 -1.6682
 9427TIP3    H249697   1.843   4.021  15.019 -0.0871  0.3921  0.7969
 9428TIP3   OH249698   6.309   1.573   3.843  0.0113 -0.1054  0.6834
 9428TIP3    H149699   6.375   1.541   3.782  0.6155 -0.1184  1.3374
 9428TIP3    H249700   6.269   1.647   3.798  0.0025 -0.5103  0.0054
 9429TIP3   OH249701   0.691   3.624  12.053  0.1566  0.0765 -0.3370
 9429TIP3    H149702   0.699   3.682  11.977  1.0120  0.0069 -0.2988
 9429TIP3    H249703   0.660   3.681  12.123 -2.8360 -0.2900 -1.2875
 9430TIP3   OH249704   0.600   0.175  17.074 -0.2105  0.0869 -0.0174
 9430TIP3    H149705   0.670   0.176  17.008  0.9533  0.8926  1.2115
 9430TIP3    H249706   0.580   0.267  17.090  0.4429 -0.0552  1.7118
 9431TIP3   OH249707   5.631   4.142   2.778  0.1985  0.1170 -0.4546
 9431TIP3    H149708   5.626   4.232   2.810  0.8230  0.9757 -2.6864
 9431TIP3    H249709   5.541   4.118   2.759  0.0537  0.3411 -0.0587
 9432TIP3   OH249710   0.254   2.106  17.160  0.2255  0.0242 -0.5157
 9432TIP3    H149711   0.219   2.078  17.244 -1.5473  1.8499 -0.5993
 9432TIP3    H249712   0.340   2.143  17.182 -0.4946  1.0870  0.6104
 9433TIP3   OH249713   4.359   1.747   4.934  0.0042 -0.2493 -0.4308
 9433TIP3    H149714   4.353   1.682   4.864 -0.7592  1.4388 -1.9767
 9433TIP3    H249715   4.272   1.786   4.937  0.5379  0.8846  0.2824
 9434TIP3   OH249716   2.297   2.246   4.202  0.4282  0.1322 -0.5827
 9434TIP3    H149717   2.272   2.212   4.116 -1.9010  1.0860 -0.3054
 9434TIP3    H249718   2.214   2.263   4.247  1.5989  0.2495  1.6305
 9435TIP3   OH249719   1.115   1.684   3.311  0.0241 -0.1543  0.1082
 9435TIP3    H149720   1.045   1.652   3.255  0.6827  0.1289 -0.8799
 9435TIP3    H249721   1.185   1.619   3.302  0.8121  0.8007 -0.7897
 9436TIP3   OH249722   3.089   4.760  13.058 -0.2643 -0.1047 -0.0511
 9436TIP3    H149723   3.175   4.761  13.018 -0.1391  1.1261  0.2124
 9436TIP3    H249724   3.038   4.698  13.005  0.0679  1.0278 -1.7392
 9437TIP3   OH249725   2.211   5.512  13.527  0.0293 -0.3128  0.1852
 9437TIP3    H149726   2.155   5.439  13.503 -1.6158  0.5642  1.2135
 9437TIP3    H249727   2.199   5.576  13.458  0.6443 -0.5700 -0.1646
 9438TIP3   OH249728   1.911   4.860  12.014 -0.2411 -0.1361  0.0968
 9438TIP3    H149729   1.851   4.795  11.977  0.4859 -0.0701 -1.2646
 9438TIP3    H249730   1.983   4.807  12.050  0.7447 -0.0990 -1.7284
 9439TIP3   OH249731   5.659   2.006  16.456  0.2582 -0.5666  0.0481
 9439TIP3    H149732   5.571   1.971  16.447 -0.0733  0.5901 -1.3408
 9439TIP3    H249733   5.649   2.100  16.441  2.0239 -0.6920 -2.2066
 9440TIP3   OH249734   5.137   4.708  16.084 -0.1545 -0.2643 -0.1935
 9440TIP3    H149735   5.042   4.703  16.079 -0.2465  1.2242 -0.1571
 9440TIP3    H249736   5.163   4.755  16.005  0.6685 -1.7040 -0.8116
 9441TIP3   OH249737   5.951   3.408  11.938  0.2008  0.0963 -0.8439
 9441TIP3    H149738   6.035   3.363  11.949 -0.0155  0.3088  2.1598
 9441TIP3    H249739   5.886   3.340  11.951 -0.1063  0.8070  1.5858
 9442TIP3   OH249740   0.169   4.810   1.344  0.2490  0.2307 -0.1706
 9442TIP3    H149741   0.176   4.906   1.345 -2.3438  0.4737  1.2478
 9442TIP3    H249742   0.189   4.784   1.434  0.3565 -0.4962 -0.4018
 9443TIP3   OH249743   4.009   3.422  13.867  0.2085 -0.2192 -0.4123
 9443TIP3    H149744   4.089   3.473  13.876 -0.1503  0.3731 -0.5756
 9443TIP3    H249745   4.038   3.341  13.824  0.6657  0.1367 -0.7907
 9444TIP3   OH249746   5.016   2.507   2.902  0.4602 -0.3923  0.1179
 9444TIP3    H149747   4.950   2.439   2.912  0.6799 -0.9466 -1.9075
 9444TIP3    H249748   5.041   2.502   2.810  1.8125  1.2062  0.3801
 9445TIP3   OH249749   0.082   4.206   3.003 -0.5981 -0.4041 -0.0521
 9445TIP3    H149750   0.178   4.201   3.001 -0.6884 -2.5553  0.1875
 9445TIP3    H249751   0.056   4.179   2.915 -1.0592 -2.5797  0.7136
 9446TIP3   OH249752   4.394   1.569   3.875  0.1349  0.2062  0.3526
 9446TIP3    H149753   4.370   1.529   3.959  0.2890  2.5915  1.5578
 9446TIP3    H249754   4.337   1.526   3.811  1.4377 -3.1317  1.3162
 9447TIP3   OH249755   3.410   5.315   5.325 -0.5959  0.0258  0.2157
 9447TIP3    H149756   3.373   5.399   5.298  1.9532  1.4401  0.9690
 9447TIP3    H249757   3.504   5.324   5.311 -0.1582 -2.3241  1.3332
 9448TIP3   OH249758   1.533   3.814  14.418  0.0335 -0.3577  0.1474
 9448TIP3    H149759   1.557   3.722  14.414 -0.7380 -0.5849  0.7994
 9448TIP3    H249760   1.594   3.852  14.481 -1.5286 -1.0154  2.1040
 9449TIP3   OH249761   2.628   2.740   2.595  0.0770 -0.1456  0.2575
 9449TIP3    H149762   2.653   2.740   2.687 -0.1487 -0.6616  0.3196
 9449TIP3    H249763   2.538   2.708   2.594 -0.8310  2.3708  0.0976
 9450TIP3   OH249764   4.139   2.712  14.057  0.1362  0.4322  0.0358
 9450TIP3    H149765   4.202   2.773  14.094  0.7930  0.2865 -0.8277
 9450TIP3    H249766   4.185   2.670  13.984 -0.7319 -0.1612 -0.1900
 9451TIP3   OH249767   0.156   3.848   0.142  0.2966  0.0189 -0.4250
 9451TIP3    H149768   0.138   3.935   0.108  0.2520  0.1117 -0.1630
 9451TIP3    H249769   0.187   3.862   0.231  1.5193 -0.1545 -0.8232
 9452TIP3   OH249770   4.352   0.837  16.567 -0.4987  0.2703  0.2771
 9452TIP3    H149771   4.342   0.809  16.658  0.2647 -1.4515 -0.1576
 9452TIP3    H249772   4.302   0.773  16.516  1.9263 -0.8596 -0.7928
 9453TIP3   OH249773   0.899   4.532   2.560  0.1221  0.2583 -0.3667
 9453TIP3    H149774   0.975   4.519   2.618  1.8358  1.1932 -2.3451
 9453TIP3    H249775   0.921   4.484   2.480  0.6158  4.1169 -2.6544
 9454TIP3   OH249776   5.856   1.273   3.267 -0.0218  0.0219  0.2384
 9454TIP3    H149777   5.830   1.266   3.359  0.6510 -0.6383  0.3880
 9454TIP3    H249778   5.776   1.295   3.220  0.0349  2.6659  1.2679
 9455TIP3   OH249779   4.460   0.304  15.529  0.2225 -0.0349 -0.2491
 9455TIP3    H149780   4.549   0.271  15.539 -0.4637 -1.7006  0.7176
 9455TIP3    H249781   4.414   0.235  15.480 -0.1566  1.5208 -2.1596
 9456TIP3   OH249782   6.701   3.919  15.021 -0.1712 -0.0657 -0.2238
 9456TIP3    H149783   6.728   3.829  15.003 -0.9063 -0.2737 -0.2845
 9456TIP3    H249784   6.697   3.961  14.935  1.6494  0.4515 -0.0790
 9457TIP3   OH249785   0.762   0.177   0.949 -0.4049  0.1221  0.1840
 9457TIP3    H149786   0.756   0.108   1.015  1.0725  1.2810  1.5689
 9457TIP3    H249787   0.748   0.132   0.865 -1.0041 -1.5793  1.1822
 9458TIP3   OH249788   2.923   0.838   2.001  0.2083  0.2578 -0.7558
 9458TIP3    H149789   2.843   0.853   2.051  0.8745 -1.8503  1.0260
 9458TIP3    H249790   2.915   0.748   1.968  0.6812  0.9246 -2.8030
 9459TIP3   OH249791   2.027   3.734   4.203 -0.4334  0.2994  1.0085
 9459TIP3    H149792   1.968   3.769   4.270  0.1728  0.4727  1.4607
 9459TIP3    H249793   2.115   3.747   4.240 -0.1903 -1.5172  1.0784
 9460TIP3   OH249794   3.442   1.074   1.172 -0.3120  0.3747  0.0235
 9460TIP3    H149795   3.372   1.068   1.107 -0.5470  1.0228  0.2190
 9460TIP3    H249796   3.513   1.121   1.127  0.0295 -0.3441 -0.1985
 9461TIP3   OH249797   3.893   4.432   3.801 -0.0973 -0.2949 -0.5059
 9461TIP3    H149798   3.825   4.487   3.841 -0.8419 -1.6240  0.0817
 9461TIP3    H249799   3.888   4.451   3.708  0.2138  1.2554 -0.2165
 9462TIP3   OH249800   0.180   3.135   4.893 -0.6599  0.2499 -0.5114
 9462TIP3    H149801   0.145   3.220   4.920 -1.6979 -0.2589 -0.2641
 9462TIP3    H249802   0.108   3.074   4.904 -0.3125 -0.4444 -1.9275
 9463TIP3   OH249803   6.445   2.533  15.858  0.5792  0.4597 -0.7338
 9463TIP3    H149804   6.479   2.555  15.945 -2.1612 -0.6086  0.6946
 9463TIP3    H249805   6.461   2.439  15.850  0.2443  0.4361 -1.1145
 9464TIP3   OH249806   1.799   3.384   6.188 -0.3482 -0.4457 -0.6445
 9464TIP3    H149807   1.714   3.354   6.157 -0.7163 -0.5260  0.4245
 9464TIP3    H249808   1.848   3.304   6.207  0.1728 -0.4050 -1.8074
 9465TIP3   OH249809   2.886   5.530   3.649 -0.1562 -0.0263 -0.1035
 9465TIP3    H149810   2.970   5.568   3.622  0.0159 -0.2846  0.0643
 9465TIP3    H249811   2.850   5.594   3.710  0.8523 -0.8349  1.3750
 9466TIP3   OH249812   4.421   6.352   0.642  0.1470  0.0775 -0.3788
 9466TIP3    H149813   4.362   6.348   0.717  1.5348  0.7355  0.7712
 9466TIP3    H249814   4.477   6.428   0.659  1.1340 -0.3558 -1.5803
 9467TIP3   OH249815   2.149   1.102   0.275  0.3224 -0.2256 -0.6607
 9467TIP3    H149816   2.053   1.099   0.267  0.2612  0.3255 -0.1122
 9467TIP3    H249817   2.173   1.189   0.242  0.6624 -0.4563 -1.0352
 9468TIP3   OH249818   1.805   4.826  13.740 -0.1551  0.1073  0.1134
 9468TIP3    H149819   1.886   4.857  13.700 -0.8251  1.3913 -0.2831
 9468TIP3    H249820   1.811   4.856  13.831  1.3183 -2.7174  1.0185
 9469TIP3   OH249821   6.416   3.336   0.079 -0.0292  0.1845 -0.1792
 9469TIP3    H149822   6.400   3.252   0.035 -1.3363 -0.1740  0.9435
 9469TIP3    H249823   6.348   3.394   0.044  1.2716  0.9608 -1.4281
 9470TIP3   OH249824   0.023   5.489   5.330 -0.6342 -0.4176  0.3231
 9470TIP3    H149825   0.017   5.520   5.240  1.3862  0.4467  0.4560
 9470TIP3    H249826   0.077   5.555   5.375  0.0466 -1.8588  1.6823
 9471TIP3   OH249827   1.759   4.250   1.023  0.2628 -0.2649 -0.0351
 9471TIP3    H149828   1.687   4.307   0.994 -0.0154 -0.3516  0.4843
 9471TIP3    H249829   1.790   4.291   1.104  0.6645 -0.3443 -0.1487
 9472TIP3   OH249830   5.834   5.467  11.651 -0.3995 -0.2462 -0.1748
 9472TIP3    H149831   5.791   5.544  11.687  0.9396 -0.1440  1.2298
 9472TIP3    H249832   5.880   5.499  11.573  0.5898  0.4737  0.7055
 9473TIP3   OH249833   3.908   2.503  14.985  0.0600  0.2572 -0.0954
 9473TIP3    H149834   3.973   2.556  15.032 -0.9543 -0.2650  1.9647
 9473TIP3    H249835   3.826   2.550  14.995 -0.0701  0.4757 -1.9782
 9474TIP3   OH249836   6.357   2.191   1.977  0.7046 -0.1636 -0.4016
 9474TIP3    H149837   6.421   2.124   2.003  0.1324 -0.8643 -0.7587
 9474TIP3    H249838   6.381   2.269   2.027 -0.1285 -1.3473  1.9167
 9475TIP3   OH249839   5.076   5.073  14.213  0.2378 -0.0103  0.1263
 9475TIP3    H149840   5.077   5.015  14.289  1.3309  2.4739  2.0948
 9475TIP3    H249841   5.026   5.025  14.147 -1.0032 -2.1121  2.4914
 9476TIP3   OH249842   2.976   0.082   1.715  0.6848  0.7566 -0.4367
 9476TIP3    H149843   3.056   0.050   1.673  0.6076  0.2062 -0.1599
 9476TIP3    H249844   2.972   0.175   1.690  1.7483  0.9473  0.0728
 9477TIP3   OH249845   6.641   2.427  13.810 -0.2311 -0.8407 -0.4624
 9477TIP3    H149846   6.576   2.367  13.848 -0.1207 -0.0270  1.0647
 9477TIP3    H249847   6.722   2.376  13.808  0.0355 -0.5198  1.5289
 9478TIP3   OH249848   5.078   5.797  13.599  0.1791 -0.0280 -0.5024
 9478TIP3    H149849   4.988   5.829  13.602 -0.2336 -1.2000 -0.1944
 9478TIP3    H249850   5.116   5.839  13.522 -0.8600 -0.1296 -1.0783
 9479TIP3   OH249851   4.193   2.737  15.725 -0.1056  0.3239  0.7832
 9479TIP3    H149852   4.204   2.728  15.631 -2.0480  0.0721  0.5670
 9479TIP3    H249853   4.228   2.655  15.761  1.2194  0.6827  0.3606
 9480TIP3   OH249854   6.481   4.597   1.065 -0.5751  0.0569  0.3935
 9480TIP3    H149855   6.508   4.516   1.022 -1.1097  0.1535 -0.1310
 9480TIP3    H249856   6.554   4.657   1.050 -0.9314  0.2260 -0.7692
 9481TIP3   OH249857   6.405   1.593   3.569 -0.6508  0.2956  0.5358
 9481TIP3    H149858   6.323   1.641   3.583  0.1148  1.5680  0.7934
 9481TIP3    H249859   6.454   1.648   3.507  0.6481  0.3460  1.5863
 9482TIP3   OH249860   1.924   0.164   2.310  0.6700  0.1679  0.0086
 9482TIP3    H149861   2.000   0.113   2.282  1.7690 -0.1373  3.2253
 9482TIP3    H249862   1.877   0.105   2.370 -0.6026  1.3185  0.1659
 9483TIP3   OH249863   6.345   1.968  12.367  0.2135  0.4953  0.0753
 9483TIP3    H149864   6.344   1.878  12.401  0.6176  0.3721 -0.2372
 9483TIP3    H249865   6.437   1.985  12.348 -0.1447  0.1293 -2.0875
 9484TIP3   OH249866   3.872   5.443  14.979  0.0752 -0.1518  0.2974
 9484TIP3    H149867   3.844   5.535  14.979  1.2935  0.2576  2.2469
 9484TIP3    H249868   3.964   5.446  15.003  0.2410 -1.8723 -0.0757
 9485TIP3   OH249869   5.071   0.167  15.577  0.3413  0.4458 -0.1194
 9485TIP3    H149870   5.021   0.243  15.547  0.8935  0.3811 -1.2445
 9485TIP3    H249871   5.137   0.203  15.636 -0.0344  0.7125  0.1452
 9486TIP3   OH249872   6.327   4.794  15.583  0.1112 -0.3695  0.6426
 9486TIP3    H149873   6.247   4.785  15.531 -0.2450 -0.0179  1.1304
 9486TIP3    H249874   6.305   4.858  15.650  1.4636  1.3383 -0.5039
 9487TIP3   OH249875   3.223   4.517  15.677  0.3517  0.2717 -0.5365
 9487TIP3    H149876   3.209   4.549  15.766  0.7788 -1.2047  0.0762
 9487TIP3    H249877   3.222   4.421  15.685 -1.4376  0.0798 -2.3900
 9488TIP3   OH249878   5.535   0.101   5.087 -0.3505 -0.0892  0.1061
 9488TIP3    H149879   5.467   0.162   5.059  0.7905  0.5640 -1.2848
 9488TIP3    H249880   5.489   0.018   5.099 -1.2062  0.0751 -1.8749
 9489TIP3   OH249881   0.146   4.573   4.056  0.4819 -0.5502 -0.4598
 9489TIP3    H149882   0.116   4.492   4.096  1.0924 -1.2503 -1.4046
 9489TIP3    H249883   0.071   4.632   4.064  1.1459 -0.0833  3.2144
 9490TIP3   OH249884   6.663   6.064  15.857 -0.2796 -0.1252 -0.2501
 9490TIP3    H149885   6.694   6.150  15.886 -2.1027 -0.2122  2.1927
 9490TIP3    H249886   6.733   6.004  15.881  0.6328  0.5534 -1.1773
 9491TIP3   OH249887   4.712   3.052  16.714  0.1685  0.1588  0.1908
 9491TIP3    H149888   4.792   3.073  16.667 -0.3352  0.2911 -0.6158
 9491TIP3    H249889   4.729   3.078  16.804  0.9021  0.5226 -0.0559
 9492TIP3   OH249890   4.067   5.575  11.484 -0.6315  0.2257  0.1818
 9492TIP3    H149891   4.146   5.546  11.438 -0.2141  3.0702 -0.9899
 9492TIP3    H249892   4.089   5.662  11.518 -1.6658 -0.8849  4.0300
 9493TIP3   OH249893   5.709   5.703   4.880  0.1977  0.1288 -0.1121
 9493TIP3    H149894   5.757   5.775   4.839  0.5935  0.0637  0.2242
 9493TIP3    H249895   5.668   5.743   4.957  1.4654 -0.2668  0.7964
 9494TIP3   OH249896   2.445   1.110   2.854  0.1466  0.3476  0.0779
 9494TIP3    H149897   2.355   1.080   2.869 -0.0720  1.1952  0.5051
 9494TIP3    H249898   2.500   1.042   2.893 -0.3272  0.2250  0.5407
 9495TIP3   OH249899   1.524   0.218  14.515 -0.1737 -0.1177 -0.4613
 9495TIP3    H149900   1.462   0.240  14.445 -0.9687 -1.3584 -0.1568
 9495TIP3    H249901   1.526   0.297  14.570 -2.6260 -0.5825  0.3449
 9496TIP3   OH249902   0.896   6.679  15.411 -0.2264  0.2756  0.2762
 9496TIP3    H149903   0.928   6.751  15.466  0.2952  1.1929 -1.1895
 9496TIP3    H249904   0.971   6.619  15.405  0.0406  0.6563 -0.2230
 9497TIP3   OH249905   6.342   4.845  12.354  0.9150 -0.2107  0.5440
 9497TIP3    H149906   6.397   4.909  12.399  0.6793 -0.2472  0.8844
 9497TIP3    H249907   6.331   4.880  12.266  0.2815  0.5221  0.9150
 9498TIP3   OH249908   2.230   0.599  14.362 -0.0309 -0.3453  0.4703
 9498TIP3    H149909   2.146   0.565  14.330 -0.0105  0.5211 -0.5341
 9498TIP3    H249910   2.292   0.580  14.291  0.3897  0.0330  0.7338
 9499TIP3   OH249911   5.029   6.227  16.161  0.3263  0.4902 -0.7461
 9499TIP3    H149912   4.979   6.183  16.230  3.1012  0.4059  1.3083
 9499TIP3    H249913   5.047   6.158  16.097  1.5881 -0.5503  0.7022
 9500TIP3   OH249914   5.225   6.533  12.911  0.7250 -0.5639  0.1564
 9500TIP3    H149915   5.157   6.600  12.923  0.5560 -0.0237 -3.4482
 9500TIP3    H249916   5.196   6.460  12.967 -0.8237  1.0701  1.5715
 9501TIP3   OH249917   6.276   6.349   5.757 -0.4042 -0.4835 -0.2532
 9501TIP3    H149918   6.347   6.350   5.821 -1.1062  0.1404  0.5223
 9501TIP3    H249919   6.222   6.274   5.781 -0.9913  0.0902  0.2597
 9502TIP3   OH249920   5.492   1.172   5.535 -0.4689  0.2354 -0.0591
 9502TIP3    H149921   5.418   1.230   5.550  0.2502  1.0299  0.4886
 9502TIP3    H249922   5.563   1.230   5.509 -0.0826 -0.5363 -0.7668
 9503TIP3   OH249923   0.303   6.737   2.506  0.1959  0.1778 -0.2833
 9503TIP3    H149924   0.244   6.717   2.434  0.2401 -0.4762 -0.1421
 9503TIP3    H249925   0.376   6.783   2.465  1.6383 -2.7020 -1.1509
 9504TIP3   OH249926   5.149   5.463  12.578 -0.0816  0.7218 -0.1755
 9504TIP3    H149927   5.114   5.552  12.588 -0.0443  0.4204  3.2540
 9504TIP3    H249928   5.244   5.475  12.579 -0.0803  0.7347 -0.5940
 9505TIP3   OH249929   3.632   2.470   1.523  0.5240 -0.4361  0.0666
 9505TIP3    H149930   3.676   2.554   1.534  0.2835 -0.7005  3.8201
 9505TIP3    H249931   3.702   2.410   1.497  1.1531  0.4169 -0.2656
 9506TIP3   OH249932   2.066   5.948   2.169 -0.4519 -0.6309 -0.2421
 9506TIP3    H149933   2.040   5.872   2.221 -1.0549 -0.7910 -0.7744
 9506TIP3    H249934   1.998   6.013   2.186 -1.3116 -1.1197 -1.7884
 9507TIP3   OH249935   4.074   6.645  14.589  0.3955  0.3793  0.3760
 9507TIP3    H149936   4.133   6.615  14.520 -0.0009  0.6238 -0.0798
 9507TIP3    H249937   4.131   6.680  14.657  0.8511 -1.2310  0.8290
 9508TIP3   OH249938   3.726   4.219  15.120 -0.0153 -0.2785 -0.2572
 9508TIP3    H149939   3.765   4.303  15.099  1.4136 -0.6172  0.9937
 9508TIP3    H249940   3.738   4.166  15.040  0.4857  0.1829 -0.4866
 9509TIP3   OH249941   5.015   0.499  15.338  0.1366 -0.5276 -0.1799
 9509TIP3    H149942   5.037   0.578  15.388  2.0322 -1.5209  0.5936
 9509TIP3    H249943   4.955   0.451  15.395 -3.0828  1.4807 -1.6877
 9510TIP3   OH249944   1.209   4.549   1.206  0.3702  0.2667 -0.3450
 9510TIP3    H149945   1.283   4.502   1.245  0.6059 -0.5373 -1.7444
 9510TIP3    H249946   1.232   4.642   1.216  0.0217  0.1128  2.1826
 9511TIP3   OH249947   6.377   1.901   1.621 -0.1654 -0.3819  0.0068
 9511TIP3    H149948   6.377   1.879   1.714 -1.8399 -0.1944  0.0647
 9511TIP3    H249949   6.316   1.974   1.613 -0.9173 -1.1278 -1.4019
 9512TIP3   OH249950   6.140   4.082   4.316  0.1228 -0.1955  0.1088
 9512TIP3    H149951   6.165   4.074   4.224  2.4780 -1.6558  0.8409
 9512TIP3    H249952   6.217   4.119   4.359 -0.4934 -0.7146  1.7038
 9513TIP3   OH249953   2.577   5.866  16.814  0.4978 -0.0879  0.1825
 9513TIP3    H149954   2.520   5.791  16.826  0.8223 -0.3685 -0.0107
 9513TIP3    H249955   2.600   5.894  16.903 -1.8237  1.4936  0.3235
 9514TIP3   OH249956   0.741   2.832   3.873  0.0257  0.6499  0.3174
 9514TIP3    H149957   0.772   2.837   3.964  1.2806  1.2795 -0.1290
 9514TIP3    H249958   0.821   2.834   3.821 -0.6790 -0.0278 -0.7982
 9515TIP3   OH249959   0.064   0.894  11.430  0.0537 -0.4736 -0.0479
 9515TIP3    H149960   0.009   0.950  11.376  0.1716 -0.6976 -0.4025
 9515TIP3    H249961   0.045   0.921  11.520 -0.2892 -0.2359 -0.1913
 9516TIP3   OH249962   4.620   0.291  17.173  0.2947  0.1972 -1.0207
 9516TIP3    H149963   4.685   0.224  17.196  0.6640  0.1604 -2.1358
 9516TIP3    H249964   4.536   0.244  17.174  0.3128  0.1727  0.1067
 9517TIP3   OH249965   3.300   1.602  14.568  0.4512  0.1056 -0.4226
 9517TIP3    H149966   3.368   1.637  14.510  0.3528  0.9595 -0.0168
 9517TIP3    H249967   3.218   1.621  14.522  0.2980  1.7942  0.5120
 9518TIP3   OH249968   3.037   6.230  11.551 -0.2421 -0.6058  0.0263
 9518TIP3    H149969   3.017   6.237  11.458 -0.0635 -1.4772 -0.0781
 9518TIP3    H249970   3.035   6.321  11.582 -1.4732 -0.4054 -0.5759
 9519TIP3   OH249971   0.987   6.303  15.512 -0.0551 -0.2289  0.1121
 9519TIP3    H149972   0.921   6.268  15.453  0.2259  1.4150 -1.2205
 9519TIP3    H249973   1.038   6.364  15.458  1.1335  0.2016  1.6762
 9520TIP3   OH249974   1.640   2.510   3.956  0.1009  0.1574  0.2824
 9520TIP3    H149975   1.701   2.572   3.996  1.5191 -0.1199 -1.3709
 9520TIP3    H249976   1.637   2.437   4.018  1.3973  0.2190  0.4402
 9521TIP3   OH249977   1.914   5.893  14.334 -0.6227 -0.1881  0.5790
 9521TIP3    H149978   1.980   5.962  14.323 -0.4481 -0.2176  1.4136
 9521TIP3    H249979   1.846   5.933  14.388 -1.4165 -0.0772 -0.4884
 9522TIP3   OH249980   0.653   4.593   4.564  0.3153  0.3510  0.2719
 9522TIP3    H149981   0.603   4.590   4.645 -0.7243  0.3798 -0.3616
 9522TIP3    H249982   0.745   4.589   4.592 -0.0459 -0.0170  1.4194
 9523TIP3   OH249983   0.592   1.674   1.780 -0.1950  0.5660 -0.4268
 9523TIP3    H149984   0.538   1.632   1.713  0.8293  0.4209 -1.1667
 9523TIP3    H249985   0.601   1.764   1.750  1.6084  0.1064 -1.3498
 9524TIP3   OH249986   3.564   5.518  13.272 -0.2706 -0.5566  0.1274
 9524TIP3    H149987   3.611   5.502  13.191  0.7767 -0.6712  0.7515
 9524TIP3    H249988   3.473   5.531  13.245 -0.2240 -2.2415 -0.9032
 9525TIP3   OH249989   3.506   4.872   0.051  0.4720 -0.6043  0.2396
 9525TIP3    H149990   3.440   4.818   0.095 -0.3466 -0.1810 -0.4708
 9525TIP3    H249991   3.473   4.961   0.057  1.4425 -0.2574  0.7076
 9526TIP3   OH249992   5.887   1.856   1.520  0.5346  0.0063  0.0568
 9526TIP3    H149993   5.945   1.932   1.526  1.2418 -0.5181 -0.1094
 9526TIP3    H249994   5.904   1.820   1.433  0.0966 -0.2674  0.0813
 9527TIP3   OH249995   0.829   3.445   1.736  0.5659 -0.1394  0.4745
 9527TIP3    H149996   0.782   3.408   1.810 -2.0929 -0.1648 -1.1434
 9527TIP3    H249997   0.917   3.407   1.741  0.2809 -0.4792  3.3083
 9528TIP3   OH249998   0.659   0.619  13.995 -0.3804 -0.1434  0.3754
 9528TIP3    H149999   0.698   0.662  14.071  2.8268  1.1132 -1.8876
 9528TIP3    H250000   0.717   0.545  13.978 -1.5456 -0.8855 -0.3713
 9529TIP3   OH250001   2.108   6.380   4.364  0.0234  0.2303  0.4563
 9529TIP3    H150002   2.201   6.357   4.374 -0.1696 -0.1132  1.4946
 9529TIP3    H250003   2.103   6.471   4.395  0.5427  1.2894 -2.4050
 9530TIP3   OH250004   4.349   0.167   2.817  0.2391 -0.3324  0.0362
 9530TIP3    H150005   4.434   0.124   2.806  0.1464 -0.0699 -1.9758
 9530TIP3    H250006   4.295   0.102   2.862  1.2244 -0.8667  0.4672
 9531TIP3   OH250007   2.944   6.419  16.651  0.2268 -0.1658  0.0115
 9531TIP3    H150008   2.951   6.444  16.559 -2.8498  0.1156 -0.1971
 9531TIP3    H250009   2.921   6.326  16.649 -1.4031  0.2132  0.4303
 9532TIP3   OH250010   0.083   1.487  11.388 -0.1075 -0.2915 -0.1527
 9532TIP3    H150011   0.163   1.500  11.337 -0.2826  2.2625  0.1773
 9532TIP3    H250012   0.113   1.477  11.479 -0.1087 -0.1468 -0.1375
 9533TIP3   OH250013   0.980   5.667  16.610  0.1989 -0.2109 -0.0868
 9533TIP3    H150014   0.910   5.607  16.585  0.7597 -0.4590 -1.1369
 9533TIP3    H250015   1.029   5.680  16.528  0.1623  1.5627  0.1772
 9534TIP3   OH250016   2.171   5.518  16.950 -0.1115  0.4889  0.3199
 9534TIP3    H150017   2.188   5.611  16.965  1.2749  0.3297 -0.1843
 9534TIP3    H250018   2.114   5.516  16.873  0.1747  0.8985  0.0982
 9535TIP3   OH250019   4.746   4.591   0.614 -0.4048  0.0110  0.3411
 9535TIP3    H150020   4.802   4.580   0.691  1.8625  1.8474 -1.0138
 9535TIP3    H250021   4.793   4.548   0.543 -0.8716  1.2473 -0.7435
 9536TIP3   OH250022   0.060   0.507  16.766  0.3058  0.4799  0.0110
 9536TIP3    H150023   0.071   0.596  16.800 -0.8182  0.7399 -0.2816
 9536TIP3    H250024  -0.034   0.492  16.769  0.5990 -1.2800  1.5000
 9537TIP3   OH250025   1.973   4.309  15.998 -0.0778 -0.3088 -0.2275
 9537TIP3    H150026   1.928   4.245  16.053 -0.5565 -0.4852 -0.8280
 9537TIP3    H250027   1.996   4.381  16.058 -1.4316 -0.0749  0.0110
 9538TIP3   OH250028   1.157   2.848  13.474  0.0425  0.2855  0.3285
 9538TIP3    H150029   1.215   2.857  13.549  0.0867 -1.7589  0.5641
 9538TIP3    H250030   1.212   2.810  13.406 -0.7170 -0.5349  0.1739
 9539TIP3   OH250031   4.182   1.900  16.441  0.2170 -0.6341 -0.4049
 9539TIP3    H150032   4.225   1.973  16.396  0.4416 -0.8380 -0.5251
 9539TIP3    H250033   4.254   1.842  16.466  0.0003 -1.0352 -0.7032
 9540TIP3   OH250034   1.693   5.206   2.508 -0.0483  0.2269 -0.2306
 9540TIP3    H150035   1.776   5.159   2.515 -0.1269  0.0811 -0.2681
 9540TIP3    H250036   1.691   5.237   2.417 -0.1386  0.0366 -0.2934
 9541TIP3   OH250037   4.179   4.325   1.764  0.1732 -0.0050  0.0150
 9541TIP3    H150038   4.212   4.299   1.678 -0.3928  1.7703 -0.7605
 9541TIP3    H250039   4.242   4.391   1.794  0.2677 -0.4881  0.8888
 9542TIP3   OH250040   3.587   6.135   0.855 -0.8174 -0.2854  0.3262
 9542TIP3    H150041   3.651   6.128   0.784 -0.1599 -0.7460  0.9551
 9542TIP3    H250042   3.509   6.172   0.814 -0.1489  0.2705 -0.4516
 9543TIP3   OH250043   6.735   2.604   5.587  0.3847 -0.4115  0.1790
 9543TIP3    H150044   6.675   2.651   5.645  2.5037  0.3756  1.8396
 9543TIP3    H250045   6.774   2.673   5.532 -0.4106 -0.9446 -1.0578
 9544TIP3   OH250046   6.398   4.612  12.202 -0.6913 -0.3174  0.3142
 9544TIP3    H150047   6.347   4.667  12.261  0.2648  0.0023  0.8535
 9544TIP3    H250048   6.366   4.635  12.115 -3.0790 -1.7884  0.7652
 9545TIP3   OH250049   1.431   1.114  12.883  0.2801 -0.4764  0.4667
 9545TIP3    H150050   1.376   1.057  12.936  0.3674  1.1382  2.4006
 9545TIP3    H250051   1.374   1.146  12.814 -0.7461 -0.2240  1.4108
 9546TIP3   OH250052   4.660   0.158  14.691 -0.0886  0.0350 -0.1056
 9546TIP3    H150053   4.566   0.167  14.672 -1.0753  0.9383  4.5590
 9546TIP3    H250054   4.698   0.240  14.662 -1.3342  1.0210  1.0092
 9547TIP3   OH250055   0.277   6.475   1.489 -0.5798  0.2030 -0.0413
 9547TIP3    H150056   0.300   6.522   1.570 -1.4467 -0.3651  0.5400
 9547TIP3    H250057   0.307   6.385   1.505  2.5096  0.8448 -1.7498
 9548TIP3   OH250058   5.157   0.293  14.200 -0.0267  0.0617 -0.1331
 9548TIP3    H150059   5.064   0.315  14.197 -0.3483 -1.3328 -0.7913
 9548TIP3    H250060   5.159   0.198  14.198  1.3829  0.0604  1.0805
 9549TIP3   OH250061   5.450   2.939  11.361 -0.3844 -0.2628 -0.1033
 9549TIP3    H150062   5.516   2.996  11.398 -2.2792  0.8170  1.6794
 9549TIP3    H250063   5.449   2.960  11.267  1.2232  0.2440 -0.0051
 9550TIP3   OH250064   5.989   2.535   2.579  0.5385 -0.1342  0.1510
 9550TIP3    H150065   6.001   2.533   2.674 -0.1516 -1.0965  0.2213
 9550TIP3    H250066   5.917   2.596   2.564 -0.4917 -1.2843  0.3729
 9551TIP3   OH250067   2.190   0.844   2.452  0.3482 -0.1170 -0.5177
 9551TIP3    H150068   2.101   0.808   2.445  0.7715 -0.8950 -2.0513
 9551TIP3    H250069   2.209   0.842   2.545 -1.7695  1.3518  0.0046
 9552TIP3   OH250070   1.319   6.443  13.718 -0.2674 -0.2190 -0.2163
 9552TIP3    H150071   1.250   6.386  13.685 -0.5428  0.4296 -0.7825
 9552TIP3    H250072   1.274   6.526  13.736 -0.0455 -0.4319  1.3819
 9553TIP3   OH250073   0.435   3.458   6.020 -0.0979 -0.4724 -0.0090
 9553TIP3    H150074   0.411   3.532   5.964  0.5081 -0.4442 -0.2328
 9553TIP3    H250075   0.352   3.416   6.041 -0.3884 -0.0829 -0.3786
 9554TIP3   OH250076   2.251   1.854   4.990  0.7359 -0.7736  0.5024
 9554TIP3    H150077   2.182   1.803   5.033  1.7202 -2.8655 -0.3333
 9554TIP3    H250078   2.288   1.908   5.059  0.2111 -1.7881  1.5916
 9555TIP3   OH250079   2.142   1.349  15.715  0.3167  0.2476  0.4431
 9555TIP3    H150080   2.114   1.420  15.658 -2.8494 -1.8268 -0.7030
 9555TIP3    H250081   2.080   1.350  15.788 -0.3762 -1.9213 -0.0827
 9556TIP3   OH250082   4.671   6.617   2.843  0.2385  0.0452 -0.6932
 9556TIP3    H150083   4.655   6.535   2.796  1.3889  1.0231 -2.8983
 9556TIP3    H250084   4.637   6.602   2.931  0.1591 -2.6902 -1.1497
 9557TIP3   OH250085   3.262   4.139  10.741  0.1244 -0.4064  0.3702
 9557TIP3    H150086   3.212   4.058  10.747  1.8507 -1.4585  0.5571
 9557TIP3    H250087   3.199   4.203  10.706 -1.5428 -1.5326  1.2627
 9558TIP3   OH250088   5.120   2.488   2.628 -0.6962 -0.5754 -0.5278
 9558TIP3    H150089   5.082   2.479   2.541  0.0530  0.9396 -1.0306
 9558TIP3    H250090   5.201   2.437   2.624 -1.5513 -1.9744 -0.1507
 9559TIP3   OH250091   3.396   0.566  15.498 -0.2108 -0.4883 -0.0598
 9559TIP3    H150092   3.424   0.608  15.416  1.7173  0.5151  1.0872
 9559TIP3    H250093   3.381   0.474  15.473 -0.8486  0.0674 -1.7948
 9560TIP3   OH250094   6.653   2.385  12.277  0.5705  0.7669  0.2601
 9560TIP3    H150095   6.683   2.468  12.314  3.0092  0.2388 -0.4028
 9560TIP3    H250096   6.708   2.319  12.320  0.4939 -0.2385 -1.1381
 9561TIP3   OH250097   4.408   0.889  12.535 -0.3331 -0.1449 -0.0835
 9561TIP3    H150098   4.428   0.981  12.517  1.0319 -0.3950  0.1374
 9561TIP3    H250099   4.320   0.891  12.573 -0.0690  1.1348  0.4921
 9562TIP3   OH250100   4.508   1.913  11.230  0.2437  0.0703 -0.1128
 9562TIP3    H150101   4.458   1.916  11.311 -1.3621  2.7842 -1.1612
 9562TIP3    H250102   4.599   1.924  11.258 -0.0541 -1.1530  1.4645
 9563TIP3   OH250103   6.024   4.433  11.702 -0.0637  0.1522  0.3744
 9563TIP3    H150104   5.935   4.459  11.724 -0.6050 -0.1115 -1.4197
 9563TIP3    H250105   6.020   4.338  11.696  0.2666  0.1615 -0.0094
 9564TIP3   OH250106   0.461   6.383  16.632 -0.5960 -0.2702 -0.2093
 9564TIP3    H150107   0.534   6.412  16.577 -0.9641  0.0407 -0.5358
 9564TIP3    H250108   0.410   6.325  16.575  1.0591 -2.9607  0.9340
 9565TIP3   OH250109   0.116   5.835   0.295  0.2795 -0.2560 -0.1238
 9565TIP3    H150110   0.118   5.931   0.297 -0.5777 -0.2384 -0.0899
 9565TIP3    H250111   0.203   5.809   0.327  0.3111  0.5023  0.4349
 9566TIP3   OH250112   6.256   4.866   5.985  0.2516 -0.1551  0.0993
 9566TIP3    H150113   6.260   4.915   6.068  0.9951  2.0591 -1.2039
 9566TIP3    H250114   6.282   4.930   5.919 -3.7261 -0.9169 -2.3009
 9567TIP3   OH250115   0.857   0.179  14.308 -0.2144 -0.5849  0.2956
 9567TIP3    H150116   0.907   0.098  14.312 -1.2261 -1.1478  2.7355
 9567TIP3    H250117   0.766   0.150  14.300 -0.5349  0.3037  0.6892
 9568TIP3   OH250118   6.313   3.363   1.376  0.0876  0.3640  0.6555
 9568TIP3    H150119   6.328   3.288   1.318 -0.3033  0.6927  0.1277
 9568TIP3    H250120   6.221   3.385   1.363 -0.0320  0.3668  1.4944
 9569TIP3   OH250121   1.368   1.554   6.322  0.4653  0.3626  0.4706
 9569TIP3    H150122   1.314   1.481   6.354  0.2825  0.0620 -0.5328
 9569TIP3    H250123   1.334   1.630   6.369 -4.0510  1.0393 -3.5317
 9570TIP3   OH250124   5.320   6.777  16.099 -0.4367 -0.2917 -0.8118
 9570TIP3    H150125   5.353   6.698  16.056 -1.5767 -1.2953  0.1129
 9570TIP3    H250126   5.242   6.747  16.145 -0.1873  1.1350  0.5397
 9571TIP3   OH250127   5.963   1.337   4.993  1.0787 -0.3272 -0.2166
 9571TIP3    H150128   5.903   1.351   5.066 -1.2618 -1.8226 -1.7904
 9571TIP3    H250129   6.050   1.339   5.032 -0.0705  0.2024  2.3738
 9572TIP3   OH250130   4.016   1.561   1.957 -0.2652 -0.0426 -0.0907
 9572TIP3    H150131   4.064   1.490   1.914  0.2340  0.7507 -0.8460
 9572TIP3    H250132   3.962   1.599   1.888  1.9208  2.4541 -0.5042
 9573TIP3   OH250133   1.509   5.007   4.041  0.0035 -0.4259 -0.9030
 9573TIP3    H150134   1.435   4.961   4.001  0.1312 -1.1192 -0.3532
 9573TIP3    H250135   1.534   5.072   3.976 -1.5239  0.2703 -0.8168
 9574TIP3   OH250136   3.679   4.662   3.117 -0.0394 -0.1773  0.0995
 9574TIP3    H150137   3.636   4.606   3.052 -1.0310  0.7499 -0.0383
 9574TIP3    H250138   3.757   4.612   3.142 -0.3589 -1.1563 -0.7975
 9575TIP3   OH250139   6.536   4.655   0.143 -0.3171 -0.7727 -0.2235
 9575TIP3    H150140   6.585   4.578   0.116 -0.8370 -0.5728 -1.8186
 9575TIP3    H250141   6.476   4.672   0.070 -1.6093 -0.0482  0.9732
 9576TIP3   OH250142   2.328   2.971  13.185  0.3767  0.1652 -0.3334
 9576TIP3    H150143   2.359   2.918  13.111  0.9948 -0.2402  0.2039
 9576TIP3    H250144   2.261   2.917  13.227 -0.9646  0.9750 -1.4020
 9577TIP3   OH250145   3.931   5.590  12.475 -0.1122  0.5329  0.1462
 9577TIP3    H150146   3.937   5.685  12.468 -0.1040  0.5938  0.8941
 9577TIP3    H250147   3.844   5.573  12.512 -0.4125  0.2033 -0.6830
 9578TIP3   OH250148   6.504   1.370  13.387 -0.7035  0.0853  0.6780
 9578TIP3    H150149   6.421   1.378  13.434 -1.2724 -0.2901 -0.2282
 9578TIP3    H250150   6.543   1.289  13.421  0.4882  1.5711  2.9018
 9579TIP3   OH250151   4.753   3.706   5.438  0.2651 -0.1381 -0.1550
 9579TIP3    H150152   4.770   3.761   5.362  1.1275  0.7566  0.6644
 9579TIP3    H250153   4.821   3.730   5.501 -0.8786 -0.3079  1.1783
 9580TIP3   OH250154   5.759   3.326   6.125 -0.2575  0.3805 -0.6305
 9580TIP3    H150155   5.808   3.303   6.204  0.1574 -1.1401 -1.3010
 9580TIP3    H250156   5.668   3.306   6.146 -0.5672  2.7681  0.4575
 9581TIP3   OH250157   2.937   4.473   3.257  1.1022 -0.2112 -0.1206
 9581TIP3    H150158   2.860   4.491   3.311  0.0453 -1.6155 -1.1304
 9581TIP3    H250159   2.987   4.409   3.306  0.6444 -0.7354 -0.3283
 9582TIP3   OH250160   1.113   2.322   7.050  0.2614 -0.2368  0.1282
 9582TIP3    H150161   1.081   2.411   7.065  1.0167  0.1834 -0.7150
 9582TIP3    H250162   1.208   2.331   7.046  0.3629 -1.1424  0.4240
 9583TIP3   OH250163   1.731   6.562   0.256 -0.0000  0.3141 -0.2878
 9583TIP3    H150164   1.773   6.587   0.338 -0.0174  0.6530 -0.3813
 9583TIP3    H250165   1.801   6.525   0.203  0.2614  1.2097 -0.5835
 9584TIP3   OH250166   0.284   2.649  14.786 -0.1594 -0.3213 -0.0360
 9584TIP3    H150167   0.264   2.742  14.789  1.0253 -0.0703  0.1608
 9584TIP3    H250168   0.212   2.611  14.736 -1.4874  0.4716  1.2113
 9585TIP3   OH250169   3.329   3.370  13.755  0.2538 -0.4085 -0.4274
 9585TIP3    H150170   3.320   3.389  13.848 -0.9705  1.5324 -0.9204
 9585TIP3    H250171   3.250   3.407  13.715  1.3399 -0.1609 -2.3887
 9586TIP3   OH250172   2.727   0.101  15.199  0.4900  0.0259 -0.1187
 9586TIP3    H150173   2.733   0.031  15.134 -0.4545 -0.8110  0.6794
 9586TIP3    H250174   2.663   0.070  15.263  0.4755  1.3760  0.5569
 9587TIP3   OH250175   0.741   3.845   3.993  0.3340  0.0344 -0.1634
 9587TIP3    H150176   0.655   3.822   4.027 -0.0718 -0.4990 -1.5325
 9587TIP3    H250177   0.766   3.922   4.044  0.2471 -1.3986  2.1067
 9588TIP3   OH250178   5.985   1.799  16.840  0.0947 -0.1531  0.5260
 9588TIP3    H150179   6.035   1.742  16.781  0.9934  0.7377  0.4061
 9588TIP3    H250180   5.966   1.744  16.916  1.7220 -0.3746  0.8003
 9589TIP3   OH250181   1.845   1.721  14.224  0.3693 -0.2552 -0.5613
 9589TIP3    H150182   1.754   1.751  14.223 -0.9071 -3.8994 -0.9376
 9589TIP3    H250183   1.891   1.783  14.168 -1.7042  2.0929  0.2300
 9590TIP3   OH250184   0.137   0.937   1.402 -0.4646 -0.3769  0.0046
 9590TIP3    H150185   0.195   0.862   1.413  0.0420 -0.0023 -0.1301
 9590TIP3    H250186   0.195   1.013   1.400 -0.9107 -0.0510 -0.6936
 9591TIP3   OH250187   2.235   5.262   3.224 -0.3414 -0.1289  0.4700
 9591TIP3    H150188   2.189   5.190   3.266  0.9713  0.2214  2.5802
 9591TIP3    H250189   2.326   5.254   3.254  0.3142  1.0043 -1.1493
 9592TIP3   OH250190   0.450   3.535   1.833  0.3117 -0.2908 -0.6109
 9592TIP3    H150191   0.377   3.592   1.806  0.6187  0.5653  0.3267
 9592TIP3    H250192   0.434   3.453   1.788 -0.9169  0.0897 -0.8911
 9593TIP3   OH250193   2.634   3.358  15.411  0.4573  0.6457  0.8968
 9593TIP3    H150194   2.713   3.359  15.357 -1.4293  0.3570 -1.9531
 9593TIP3    H250195   2.666   3.378  15.499  3.3060  3.8901 -0.7209
 9594TIP3   OH250196   0.853   6.500  14.762  0.0417 -0.4177  0.5840
 9594TIP3    H150197   0.906   6.512  14.683  0.1560 -0.8260  0.5966
 9594TIP3    H250198   0.881   6.571  14.820  1.4996 -1.3801  1.0858
 9595TIP3   OH250199   6.359   0.688  16.735  0.5550 -0.5432 -0.2001
 9595TIP3    H150200   6.267   0.712  16.736  0.1996 -1.9297  1.3083
 9595TIP3    H250201   6.395   0.733  16.658 -1.8384 -1.7360 -2.0547
 9596TIP3   OH250202   6.205   3.771  12.271 -0.5681 -0.0922  0.6616
 9596TIP3    H150203   6.143   3.843  12.278  0.0216  0.3664  1.1974
 9596TIP3    H250204   6.249   3.768  12.356 -0.0377 -0.5778  0.3790
 9597TIP3   OH250205   3.313   2.352  16.580  0.2691  0.2143 -0.4817
 9597TIP3    H150206   3.313   2.355  16.675  1.1379  1.6092 -0.5229
 9597TIP3    H250207   3.224   2.379  16.555  0.3798  0.9058 -0.1098
 9598TIP3   OH250208   0.488   4.756  10.593 -0.2725 -0.1189  0.0254
 9598TIP3    H150209   0.501   4.677  10.541 -3.4619 -0.2813 -0.5989
 9598TIP3    H250210   0.510   4.729  10.682 -0.9636 -1.6185 -0.2378
 9599TIP3   OH250211   5.449   6.553   2.047  0.5561  0.2750 -0.1418
 9599TIP3    H150212   5.455   6.499   1.968 -1.7146 -2.7939  1.6827
 9599TIP3    H250213   5.361   6.591   2.043  0.7346  0.7714  0.5495
 9600TIP3   OH250214   3.219   0.955  13.567 -0.5385 -0.0653  0.1610
 9600TIP3    H150215   3.226   0.903  13.487 -1.0185 -1.0519  0.7454
 9600TIP3    H250216   3.139   1.006  13.554 -1.9896 -2.0477  1.0264
 9601TIP3   OH250217   0.482   5.416   1.399 -0.2991 -0.1022  0.5678
 9601TIP3    H150218   0.441   5.362   1.467  3.7093 -3.9143  0.1560
 9601TIP3    H250219   0.558   5.454   1.441 -0.5602  1.6122 -0.4680
 9602TIP3   OH250220   1.541   2.498   4.532  0.3973 -0.1123 -0.0791
 9602TIP3    H150221   1.460   2.527   4.491  0.3935  0.4722  0.3349
 9602TIP3    H250222   1.513   2.463   4.617  0.2425 -2.5380 -1.0979
 9603TIP3   OH250223   0.888   2.524   3.733 -0.1423  0.7310  0.0766
 9603TIP3    H150224   0.962   2.474   3.699 -0.0862  0.4426  0.6211
 9603TIP3    H250225   0.922   2.612   3.745  1.1595 -0.1740  3.7021
 9604TIP3   OH250226   4.887   4.852   3.644  0.1768 -0.8293 -0.2612
 9604TIP3    H150227   4.796   4.838   3.619 -0.4796 -0.9414  2.1055
 9604TIP3    H250228   4.936   4.790   3.590 -1.2206 -1.4304 -0.8749
 9605TIP3   OH250229   2.243   6.113   2.033 -0.0310 -0.4527  0.5266
 9605TIP3    H150230   2.329   6.096   2.073  0.1204  0.2351  0.4966
 9605TIP3    H250231   2.186   6.046   2.070  1.2795 -3.1171 -2.0541
 9606TIP3   OH250232   2.903   3.418  14.963 -0.8000 -0.4013 -0.1235
 9606TIP3    H150233   2.946   3.500  14.988  0.8427 -1.1120 -0.5548
 9606TIP3    H250234   2.924   3.407  14.870  0.1627 -1.9833  0.2555
 9607TIP3   OH250235   2.773   2.365   1.353 -0.1301 -0.2789  0.2115
 9607TIP3    H150236   2.779   2.447   1.305 -1.5976  0.0344  0.5376
 9607TIP3    H250237   2.700   2.319   1.312  0.0163 -0.9644  0.7156
 9608TIP3   OH250238   1.166   5.323   1.008  0.1876 -0.5704  0.2433
 9608TIP3    H150239   1.128   5.242   1.042  0.0309  0.1181  1.7948
 9608TIP3    H250240   1.259   5.317   1.030 -0.1036  0.3558  1.8223
 9609TIP3   OH250241   4.610   2.413  12.392  0.1404  0.4756  0.2269
 9609TIP3    H150242   4.644   2.498  12.365 -1.3842  1.2647  0.7011
 9609TIP3    H250243   4.664   2.387  12.467  1.2207  0.5819 -0.5209
 9610TIP3   OH250244   2.576   4.911   1.942  0.5217 -0.0263 -0.1549
 9610TIP3    H150245   2.547   4.849   1.874 -0.0743  0.0964 -0.0179
 9610TIP3    H250246   2.663   4.939   1.913  1.2815 -1.7869  0.3567
 9611TIP3   OH250247   0.705   5.776   4.879 -0.0606  0.1168  0.4720
 9611TIP3    H150248   0.685   5.707   4.815  0.4342  0.1855  0.2350
 9611TIP3    H250249   0.779   5.741   4.929  0.9275  0.9224 -0.3849
 9612TIP3   OH250250   6.288   1.307  13.571  0.7963 -0.5512  0.1515
 9612TIP3    H150251   6.342   1.309  13.651  1.3940  1.6134 -0.2699
 9612TIP3    H250252   6.198   1.297  13.604  1.1767 -1.3448  0.9997
 9613TIP3   OH250253   0.909   2.066  12.715 -0.0118  0.1911 -0.5020
 9613TIP3    H150254   0.882   2.044  12.625 -1.0042  0.4838 -0.2837
 9613TIP3    H250255   0.841   2.126  12.746  0.8204  0.8102  0.1297
 9614TIP3   OH250256   1.101   4.515   0.236 -0.0974  0.0494  0.5804
 9614TIP3    H150257   1.025   4.457   0.242  1.2862 -1.8183  0.3610
 9614TIP3    H250258   1.169   4.471   0.287  1.6198  0.4420 -1.3109
 9615TIP3   OH250259   2.838   0.210   0.628 -0.1209 -0.2868 -0.3481
 9615TIP3    H150260   2.754   0.198   0.671 -0.3251 -0.5137 -0.8067
 9615TIP3    H250261   2.818   0.204   0.535  0.2746  0.4588 -0.4847
 9616TIP3   OH250262   3.326   2.621   4.932  0.5637  0.5209  0.2328
 9616TIP3    H150263   3.331   2.616   4.836  1.5378  0.8430  0.2627
 9616TIP3    H250264   3.289   2.537   4.958  1.2696  0.0160 -0.3612
 9617TIP3   OH250265   1.427   4.356  12.570 -0.0308  0.2439  0.0996
 9617TIP3    H150266   1.497   4.356  12.506  2.3142  1.2553  2.5885
 9617TIP3    H250267   1.381   4.439  12.556 -0.1895  0.0017 -0.8957
 9618TIP3   OH250268   1.780   1.193  15.104  0.7552 -0.5399 -0.4758
 9618TIP3    H150269   1.859   1.246  15.116 -0.7130  1.6287 -0.0979
 9618TIP3    H250270   1.723   1.247  15.048 -0.7179 -1.7971 -0.2187
 9619TIP3   OH250271   0.602   2.985   5.034  0.0691 -0.3905 -0.4427
 9619TIP3    H150272   0.551   3.061   5.006  0.1691 -0.6006 -1.1906
 9619TIP3    H250273   0.615   2.999   5.128  0.7916  0.9280 -0.7210
 9620TIP3   OH250274   0.031   1.201  13.739  0.3790 -0.1797  0.2215
 9620TIP3    H150275   0.016   1.233  13.828 -0.2001  0.2716 -0.0324
 9620TIP3    H250276   0.065   1.277  13.692  0.4231 -0.3393 -0.0077
 9621TIP3   OH250277   5.192   1.300  17.183  0.4111  0.1391 -0.0633
 9621TIP3    H150278   5.220   1.330  17.097  0.2348 -2.3089 -1.0283
 9621TIP3    H250279   5.098   1.283  17.173 -0.1769  2.3535  1.3818
 9622TIP3   OH250280   0.271   4.797  12.177  0.1271 -0.4912 -0.1834
 9622TIP3    H150281   0.287   4.807  12.083 -2.3438 -0.5996 -0.6488
 9622TIP3    H250282   0.196   4.738  12.183 -0.3736  0.2922  1.8075
 9623TIP3   OH250283   5.851   2.102   3.904 -0.4245  0.4151  0.5746
 9623TIP3    H150284   5.887   2.155   3.832 -0.7221  0.6101  0.5692
 9623TIP3    H250285   5.773   2.062   3.867  1.4229 -2.4173 -0.3594
 9624TIP3   OH250286   5.418   4.991   0.049  0.0399 -0.1028  0.0686
 9624TIP3    H150287   5.395   5.076   0.012  1.1507  0.1866  0.0227
 9624TIP3    H250288   5.477   4.952  -0.016  0.7517 -0.2481  0.7950
 9625TIP3   OH250289   3.917   5.961   2.209 -0.4649  0.3541  0.3366
 9625TIP3    H150290   3.853   5.895   2.235 -0.4741 -0.1787 -0.9935
 9625TIP3    H250291   3.952   5.995   2.291 -1.2136 -0.5719  1.0439
 9626TIP3   OH250292   5.227   5.261  13.957  0.2505 -0.0517 -0.3110
 9626TIP3    H150293   5.148   5.247  14.009  0.1535 -0.4096 -0.5506
 9626TIP3    H250294   5.300   5.242  14.017  0.1574  0.3256 -0.0764
 9627TIP3   OH250295   2.774   1.754   0.451  0.0308 -0.3968  0.8653
 9627TIP3    H150296   2.770   1.694   0.377 -0.1704  1.2775 -0.4998
 9627TIP3    H250297   2.855   1.803   0.438 -0.0325 -0.0481  1.7227
 9628TIP3   OH250298   3.202   4.560   1.479  0.1080  0.0324 -0.3656
 9628TIP3    H150299   3.183   4.471   1.510 -1.5076  0.4792 -0.0311
 9628TIP3    H250300   3.214   4.550   1.385  2.4697 -0.9279 -0.0039
 9629TIP3   OH250301   4.789   1.430  13.049 -0.1025  0.0984  0.4046
 9629TIP3    H150302   4.762   1.522  13.045 -1.1014 -0.1129  1.8657
 9629TIP3    H250303   4.795   1.411  13.142 -0.0253 -1.3714  0.1111
 9630TIP3   OH250304   3.588   3.054   4.805  0.1823 -0.0847  0.0604
 9630TIP3    H150305   3.566   3.023   4.892  0.7361 -3.0843 -0.7969
 9630TIP3    H250306   3.511   3.033   4.752  0.2528  0.7506 -0.3727
 9631TIP3   OH250307   5.902   4.844   0.976  0.0065  0.6663 -0.3093
 9631TIP3    H150308   5.969   4.826   1.042  0.3021  3.0762  0.1186
 9631TIP3    H250309   5.821   4.857   1.026  0.1890  2.2874 -0.3907
 9632TIP3   OH250310   2.522   1.351  13.902  0.0351  0.1168 -0.2128
 9632TIP3    H150311   2.596   1.292  13.890 -0.6764 -1.7347  3.7519
 9632TIP3    H250312   2.558   1.429  13.944  0.2308  0.5996 -1.2614
 9633TIP3   OH250313   0.851   2.151   5.258  0.0711 -0.0957 -0.9163
 9633TIP3    H150314   0.756   2.146   5.249 -0.1852 -0.3804  1.4385
 9633TIP3    H250315   0.866   2.229   5.311  0.9771 -1.2007  0.5002
 9634TIP3   OH250316   0.527   6.495  15.180 -0.0268  0.2754  0.3937
 9634TIP3    H150317   0.553   6.440  15.107  0.1762  0.9271 -0.0350
 9634TIP3    H250318   0.474   6.439  15.236 -0.6193 -0.0795 -0.5214
 9635TIP3   OH250319   2.602   6.119   0.834 -0.3675 -0.6604 -0.3725
 9635TIP3    H150320   2.586   6.213   0.826 -0.4154 -0.5431  0.9574
 9635TIP3    H250321   2.680   6.112   0.890 -0.2481 -1.4073 -0.6167
 9636TIP3   OH250322   3.253   3.179  14.000 -0.0247 -0.3054  0.0564
 9636TIP3    H150323   3.192   3.166  14.072 -0.3137 -3.0636 -0.6192
 9636TIP3    H250324   3.339   3.183  14.042 -0.4037  0.6394  0.7534
 9637TIP3   OH250325   2.767   5.053  17.071  0.2889  0.0396  0.8421
 9637TIP3    H150326   2.837   5.054  17.006 -0.5322 -1.7100 -0.0842
 9637TIP3    H250327   2.793   5.121  17.134 -0.0477  3.3985 -2.4326
 9638TIP3   OH250328   5.448   5.661  12.085  0.0334 -0.2467 -0.4935
 9638TIP3    H150329   5.381   5.725  12.107  1.2799  0.4538  1.3485
 9638TIP3    H250330   5.523   5.712  12.055 -0.1762 -1.0191 -2.4365
 9639TIP3   OH250331   4.121   1.159  11.221 -0.3464 -0.0509 -0.5062
 9639TIP3    H150332   4.035   1.187  11.252 -0.1591 -0.3237  0.2884
 9639TIP3    H250333   4.133   1.071  11.258 -0.0958 -0.3775 -1.3391
 9640TIP3   OH250334   5.191   0.465  13.968 -0.2669  0.7360  0.4594
 9640TIP3    H150335   5.185   0.425  14.054  1.1692  1.5661  0.9724
 9640TIP3    H250336   5.268   0.423  13.928 -0.7508  0.5686 -0.2977
 9641TIP3   OH250337   5.325   5.441   6.410 -0.2093  0.2698  0.1975
 9641TIP3    H150338   5.301   5.376   6.344  1.1634  0.7917 -0.8494
 9641TIP3    H250339   5.287   5.408   6.491 -0.4120 -1.3074 -0.5144
 9642TIP3   OH250340   4.839   0.030  13.387  0.1713 -0.3264 -0.2974
 9642TIP3    H150341   4.759   0.083  13.388 -0.9721 -2.0277  0.6532
 9642TIP3    H250342   4.899   0.075  13.447 -1.7551 -1.5328  2.6345
 9643TIP3   OH250343   2.695   3.554  11.711  0.6738  0.6062  0.2400
 9643TIP3    H150344   2.610   3.578  11.747 -0.1861 -1.5428 -0.2884
 9643TIP3    H250345   2.698   3.598  11.626  0.6353  1.6889  0.7855
 9644TIP3   OH250346   4.296   1.405   2.771 -0.5608  0.0666  0.5274
 9644TIP3    H150347   4.314   1.347   2.846  0.0791  0.5403  0.7434
 9644TIP3    H250348   4.226   1.361   2.723  1.0599 -1.7504 -0.2377
 9645TIP3   OH250349   0.352   2.921  12.416  0.4436  0.1989 -0.2376
 9645TIP3    H150350   0.315   2.837  12.387 -0.8220  0.6827 -0.0530
 9645TIP3    H250351   0.303   2.987  12.367 -1.7996  1.0518  2.9986
 9646TIP3   OH250352   6.648   3.767   2.787  0.8543 -0.2481 -0.6142
 9646TIP3    H150353   6.709   3.735   2.853  0.2209  1.3540  0.7862
 9646TIP3    H250354   6.617   3.688   2.742 -0.4156 -1.6183  2.5087
 9647TIP3   OH250355   4.008   1.859   5.150  0.0795  0.0009 -0.7215
 9647TIP3    H150356   4.101   1.867   5.171 -0.3777  1.6422  0.7789
 9647TIP3    H250357   3.979   1.780   5.195  0.2643  0.6837  0.6024
 9648TIP3   OH250358   3.105   2.701   3.581  0.3372 -0.1574  0.3234
 9648TIP3    H150359   3.139   2.790   3.572 -0.3121  0.0815  0.1995
 9648TIP3    H250360   3.010   2.711   3.576  0.2579 -0.8510  0.3691
 9649TIP3   OH250361   4.323   0.897  10.583  0.1401 -0.0485 -0.0384
 9649TIP3    H150362   4.340   0.833  10.652  0.0966  1.2761  1.2183
 9649TIP3    H250363   4.232   0.923  10.595 -0.5047 -1.3527 -1.9193
 9650TIP3   OH250364   1.769   1.688   3.976  0.3913 -0.2614  0.4065
 9650TIP3    H150365   1.690   1.671   4.027  0.8199  1.6241  1.7606
 9650TIP3    H250366   1.831   1.620   4.002 -0.5287 -1.3315 -0.1508
 9651TIP3   OH250367   0.680   2.674  16.333  0.8358  0.1381  0.2492
 9651TIP3    H150368   0.656   2.764  16.353 -0.3031 -0.0808 -0.0819
 9651TIP3    H250369   0.647   2.623  16.407  0.3842 -0.1569 -0.1568
 9652TIP3   OH250370   6.347   4.866   0.977  0.0254  0.3877 -0.1415
 9652TIP3    H150371   6.418   4.802   0.974  0.5757  0.9422  0.8521
 9652TIP3    H250372   6.281   4.831   0.917 -0.5667 -2.1598  1.9060
 9653TIP3   OH250373   5.233   0.007  11.801  0.0808 -0.3472  0.1833
 9653TIP3    H150374   5.218   0.066  11.727  2.1972 -1.3485 -1.0955
 9653TIP3    H250375   5.170  -0.064  11.788 -0.9861  0.5165  0.5344
 9654TIP3   OH250376   3.112   0.420  17.184  0.3185 -0.1521 -0.0022
 9654TIP3    H150377   3.080   0.443  17.271  0.2293  2.5267 -0.7021
 9654TIP3    H250378   3.203   0.394  17.198  0.4552  0.7415  0.8319
 9655TIP3   OH250379   1.932   1.016   4.977 -0.3064 -0.0814  0.1541
 9655TIP3    H150380   1.869   1.087   4.961 -0.6319 -0.4455 -0.1843
 9655TIP3    H250381   1.955   0.984   4.890  0.4452  0.1278  0.2710
 9656TIP3   OH250382   5.855   2.107   1.013 -0.5200 -0.2326 -0.3613
 9656TIP3    H150383   5.784   2.082   0.954 -3.1397 -1.4323  3.1358
 9656TIP3    H250384   5.845   2.202   1.024 -2.1013 -0.4850  0.6380
 9657TIP3   OH250385   2.458   3.115   2.838  0.1996  0.4069 -0.5422
 9657TIP3    H150386   2.417   3.193   2.877  0.9075  0.6219 -0.2326
 9657TIP3    H250387   2.398   3.090   2.767 -0.1730  1.0655 -0.4641
 9658TIP3   OH250388   3.557   6.193  16.687 -0.0686  0.0107 -0.4003
 9658TIP3    H150389   3.468   6.226  16.685 -0.0016  0.3395  1.2527
 9658TIP3    H250390   3.612   6.271  16.697  0.4686 -0.1095 -2.2518
 9659TIP3   OH250391   5.851   1.689  11.929 -0.0998  0.2789  0.7387
 9659TIP3    H150392   5.919   1.622  11.926  0.5475  0.8694  1.9028
 9659TIP3    H250393   5.840   1.717  11.838  0.2972 -0.7314  0.3809
 9660TIP3   OH250394   2.442   5.750   4.862 -0.4024 -0.0646  0.0819
 9660TIP3    H150395   2.522   5.700   4.878 -0.9048 -0.7779  0.3569
 9660TIP3    H250396   2.382   5.687   4.823 -1.3519  0.0974  1.2669
 9661TIP3   OH250397   2.491   1.264   0.245 -0.4516 -0.6131  0.1751
 9661TIP3    H150398   2.515   1.278   0.336 -1.7901  0.5621  0.3542
 9661TIP3    H250399   2.533   1.335   0.197 -1.3178 -0.1269  0.1314
 9662TIP3   OH250400   2.669   2.024   4.434 -0.4525  0.4642  0.2583
 9662TIP3    H150401   2.583   2.053   4.404  0.5153  2.2875 -0.8711
 9662TIP3    H250402   2.671   2.047   4.527 -1.3641 -0.0527  0.4116
 9663TIP3   OH250403   3.340   2.942  13.284  0.0056 -0.1804  0.6876
 9663TIP3    H150404   3.410   3.000  13.313  0.0253 -0.1730  0.6250
 9663TIP3    H250405   3.263   2.998  13.276 -0.4157 -0.4828  2.3090
 9664TIP3   OH250406   4.901   5.432  12.183 -0.4053 -0.3309  0.4246
 9664TIP3    H150407   4.846   5.424  12.105  0.2341  0.9550 -0.1645
 9664TIP3    H250408   4.931   5.342  12.201 -0.8443 -0.6851 -0.5885
 9665TIP3   OH250409   5.297   6.420  10.928 -0.2071  0.4855  0.1007
 9665TIP3    H150410   5.322   6.342  10.879 -3.7187 -0.8305  0.2562
 9665TIP3    H250411   5.278   6.485  10.861 -2.0292 -0.3684 -0.2636
 9666TIP3   OH250412   6.515   0.569  12.743 -0.3173 -0.0128 -0.3235
 9666TIP3    H150413   6.588   0.541  12.689  0.8237 -1.6473  1.9914
 9666TIP3    H250414   6.550   0.571  12.832 -2.7262  0.4822  0.6552
 9667TIP3   OH250415   4.436   6.734  12.110  0.4421 -0.5844  0.1343
 9667TIP3    H150416   4.524   6.701  12.092  0.8607 -0.3126  1.5792
 9667TIP3    H250417   4.407   6.774  12.029  0.3835 -3.5005 -1.3454
 9668TIP3   OH250418   6.231   5.028  16.980 -0.1115  0.6007 -0.6042
 9668TIP3    H150419   6.221   4.977  16.900  1.4016 -2.2206  0.9153
 9668TIP3    H250420   6.281   5.105  16.954  2.1816 -1.2937 -2.0569
 9669TIP3   OH250421   5.209   5.814  12.100  0.1857  0.2123  0.0476
 9669TIP3    H150422   5.163   5.873  12.040 -0.2941 -1.8233 -1.6438
 9669TIP3    H250423   5.139   5.767  12.147  0.5393 -0.5571 -0.1826
 9670TIP3   OH250424   0.059   0.625  10.611  0.3879 -0.1615 -0.0579
 9670TIP3    H150425   0.040   0.690  10.544  0.2238 -1.5315 -1.3459
 9670TIP3    H250426   0.070   0.543  10.564 -0.1883 -1.2422  1.6309
 9671TIP3   OH250427   0.392   5.373   6.723 -0.1131 -0.3926  0.8377
 9671TIP3    H150428   0.463   5.416   6.676 -1.1321 -1.1483 -1.4896
 9671TIP3    H250429   0.419   5.281   6.728 -0.2751 -0.4203  1.2161
 9672TIP3   OH250430   5.067   5.176   4.005  0.2383 -0.0027 -0.3931
 9672TIP3    H150431   5.124   5.211   3.937 -0.3946  1.4922 -0.1802
 9672TIP3    H250432   5.058   5.248   4.068  0.2531 -1.1214  0.9093
 9673TIP3   OH250433   0.481   0.058   1.380 -0.3085  0.0994 -0.3554
 9673TIP3    H150434   0.486   0.112   1.301  1.0711  0.5105 -0.0132
 9673TIP3    H250435   0.536   0.104   1.444  0.2027 -1.2503  0.2097
 9674TIP3   OH250436   4.738   6.011   2.589 -0.4145 -0.1880 -0.4362
 9674TIP3    H150437   4.784   6.088   2.556 -1.0223 -0.2901 -1.5387
 9674TIP3    H250438   4.681   6.046   2.658  1.6074 -0.1367  1.2312
 9675TIP3   OH250439   1.707   4.580  15.941 -0.0256 -0.0012 -0.0837
 9675TIP3    H150440   1.697   4.659  15.994 -2.4279  0.3311 -0.9782
 9675TIP3    H250441   1.646   4.592  15.869  0.4336 -2.1643 -0.8595
 9676TIP3   OH250442   2.981   5.770   5.620  0.0783 -0.2919 -0.1358
 9676TIP3    H150443   2.908   5.719   5.656  0.4157 -1.2098 -0.7109
 9676TIP3    H250444   3.059   5.719   5.644  0.5531  0.8357  0.7351
 9677TIP3   OH250445   3.374   3.323  11.750  0.2397 -0.3358 -0.3476
 9677TIP3    H150446   3.351   3.343  11.841 -3.5040 -0.2005 -1.2140
 9677TIP3    H250447   3.447   3.381  11.730  1.5302 -0.7927  2.7213
 9678TIP3   OH250448   4.659   2.398  17.104 -0.2591 -0.6791 -0.1627
 9678TIP3    H150449   4.572   2.388  17.067 -0.5691 -1.6383  0.8016
 9678TIP3    H250450   4.710   2.326  17.067 -0.1202 -0.6604 -0.0104
 9679TIP3   OH250451   2.271   1.798   0.778 -0.2347  0.4050 -0.3837
 9679TIP3    H150452   2.295   1.754   0.696 -1.2558 -2.3827  0.7639
 9679TIP3    H250453   2.352   1.799   0.829 -0.1663  0.0141 -0.4858
 9680TIP3   OH250454   1.605   5.027  12.034  0.1242  0.7396 -0.2012
 9680TIP3    H150455   1.625   4.935  12.049 -2.1461  0.5962  2.4713
 9680TIP3    H250456   1.616   5.069  12.119 -0.3982  2.6279 -1.0205
 9681TIP3   OH250457   3.455   5.292  17.063  0.2604  0.5066  0.7127
 9681TIP3    H150458   3.531   5.242  17.095 -0.8991 -1.0005  1.1640
 9681TIP3    H250459   3.444   5.262  16.973  1.0448  1.7561  0.1930
 9682TIP3   OH250460   3.732   2.759  12.302 -0.2434 -0.3914 -0.0368
 9682TIP3    H150461   3.710   2.806  12.222 -0.8626  0.7010  0.7603
 9682TIP3    H250462   3.669   2.687  12.307 -1.2215  0.4704  0.2686
 9683TIP3   OH250463   1.008   4.155  13.691  0.1099 -0.3647  0.3259
 9683TIP3    H150464   1.057   4.225  13.734  3.2476 -1.8904 -0.6249
 9683TIP3    H250465   0.991   4.188  13.603  0.9979 -0.5173  0.0921
 9684TIP3   OH250466   4.742   0.664   4.953 -0.1811  0.3872  0.5730
 9684TIP3    H150467   4.805   0.692   5.019 -1.2189 -0.1609  1.8288
 9684TIP3    H250468   4.771   0.706   4.872  2.2483 -0.4910  0.9370
 9685TIP3   OH250469   3.195   2.078  13.029  0.5732 -0.2722 -0.2425
 9685TIP3    H150470   3.107   2.064  12.995  0.9300 -1.0544 -0.8518
 9685TIP3    H250471   3.191   2.163  13.072 -0.7234 -0.6971  0.5125
 9686TIP3   OH250472   5.411   5.622   3.228 -0.5169  0.2369  0.4730
 9686TIP3    H150473   5.367   5.558   3.285  0.3639 -1.6904 -0.9484
 9686TIP3    H250474   5.491   5.644   3.274 -0.8305  0.3204  0.9801
 9687TIP3   OH250475   2.875   1.796   6.052 -0.1877 -0.1993 -0.0049
 9687TIP3    H150476   2.816   1.729   6.088 -0.2312  0.7327  1.6761
 9687TIP3    H250477   2.961   1.754   6.051 -0.4322 -0.7072 -0.1333
 9688TIP3   OH250478   2.851   5.121   4.129  0.3503 -1.0376  0.0687
 9688TIP3    H150479   2.912   5.089   4.195 -0.7540 -2.3210  0.4829
 9688TIP3    H250480   2.784   5.167   4.179 -0.5123 -2.0559 -0.1381
 9689TIP3   OH250481   6.613   5.195   2.507 -0.3169  0.5354 -0.0535
 9689TIP3    H150482   6.675   5.245   2.558 -0.4313  0.2097  0.4076
 9689TIP3    H250483   6.627   5.104   2.534 -1.7114  0.5592  0.8363
 9690TIP3   OH250484   2.198   3.439   4.028 -0.7230  0.0035  0.1443
 9690TIP3    H150485   2.120   3.475   4.070 -0.8209  1.1864 -1.0152
 9690TIP3    H250486   2.181   3.447   3.934  0.7542  0.2166 -0.1206
 9691TIP3   OH250487   3.511   0.741  16.847  0.2259  0.4755 -0.2126
 9691TIP3    H150488   3.561   0.749  16.929  1.0688  1.5555 -0.8173
 9691TIP3    H250489   3.578   0.735  16.779 -0.4826  0.5339 -0.9141
 9692TIP3   OH250490   3.045   2.923   4.496  0.3390  0.1078  0.2057
 9692TIP3    H150491   3.033   2.974   4.416 -0.3587 -1.1198 -0.4930
 9692TIP3    H250492   3.128   2.877   4.482  0.0108 -0.4251  0.0111
 9693TIP3   OH250493   2.951   5.187   3.088 -0.1173  0.1684  0.1106
 9693TIP3    H150494   2.874   5.244   3.083  0.7268  1.1721 -1.5445
 9693TIP3    H250495   2.969   5.179   3.182 -1.6848  0.6651  0.4631
 9694TIP3   OH250496   0.338   4.386  13.349 -0.1819 -0.7564  0.2612
 9694TIP3    H150497   0.305   4.472  13.323  1.0409 -0.2679  0.3010
 9694TIP3    H250498   0.291   4.324  13.292  1.2567  0.1849 -2.0241
 9695TIP3   OH250499   1.835   4.346  15.076 -0.0822 -0.2201  0.0072
 9695TIP3    H150500   1.900   4.328  15.009  2.0135 -0.2774  1.9911
 9695TIP3    H250501   1.858   4.432  15.111  0.0806 -1.0119  1.9642
 9696TIP3   OH250502   2.371   5.850  12.924  0.2166  0.7878 -0.2584
 9696TIP3    H150503   2.365   5.831  12.830 -0.6240  0.6490 -0.1749
 9696TIP3    H250504   2.281   5.866  12.952 -0.0833 -3.1139  1.3401
 9697TIP3   OH250505   6.487   1.163   2.012 -0.3539 -0.3306  0.0873
 9697TIP3    H150506   6.491   1.073   2.045 -2.0459 -0.1134  0.9427
 9697TIP3    H250507   6.524   1.216   2.082 -2.5968 -0.0200  1.0716
 9698TIP3   OH250508   3.533   1.128  11.272  0.0378 -0.3987 -0.0610
 9698TIP3    H150509   3.478   1.202  11.296 -1.2202 -0.0669 -3.6898
 9698TIP3    H250510   3.591   1.161  11.204  2.3091 -1.7135  1.1450
 9699TIP3   OH250511   6.676   1.294  12.510 -0.0337  0.4346 -0.3116
 9699TIP3    H150512   6.606   1.349  12.543  0.3944  1.6621 -1.4061
 9699TIP3    H250513   6.753   1.351  12.509  0.9414 -0.8447  0.7115
 9700TIP3   OH250514   2.473   0.663   2.864  0.3017 -0.1816  0.3104
 9700TIP3    H150515   2.512   0.583   2.828  0.1784 -0.5647  1.0287
 9700TIP3    H250516   2.508   0.669   2.952 -0.9125 -0.2861  0.8022
 9701TIP3   OH250517   1.411   5.058   1.446  0.0376  0.0905  0.1567
 9701TIP3    H150518   1.471   5.064   1.371 -0.1617  0.1546  0.0033
 9701TIP3    H250519   1.439   4.980   1.493 -1.1917 -1.1561 -1.1618
 9702TIP3   OH250520   4.996   6.097   0.221  0.0006 -0.5213  0.2828
 9702TIP3    H150521   5.042   6.173   0.256  0.4687 -2.0423  3.1035
 9702TIP3    H250522   4.912   6.097   0.265 -1.6878  0.6439 -2.7763
 9703TIP3   OH250523   3.624   1.194  16.065 -0.1417 -0.8681 -0.1213
 9703TIP3    H150524   3.645   1.142  15.987 -0.6576  1.2795 -1.7456
 9703TIP3    H250525   3.709   1.215  16.103  0.1697 -0.8546 -0.8196
 9704TIP3   OH250526   5.960   6.778   1.416  0.2761  0.1498  0.0524
 9704TIP3    H150527   5.917   6.844   1.361 -1.3114 -0.0943  0.9809
 9704TIP3    H250528   5.922   6.695   1.389  1.4057 -0.2725 -0.2804
 9705TIP3   OH250529   5.944   0.585  17.127  0.1598  0.2934  0.1364
 9705TIP3    H150530   5.893   0.506  17.108 -0.1937  0.6198 -0.2759
 9705TIP3    H250531   6.024   0.575  17.075 -1.0750  1.4715 -2.0320
 9706TIP3   OH250532   6.188   6.140  15.442 -0.3145 -0.2262 -0.1272
 9706TIP3    H150533   6.234   6.117  15.523  0.0023  1.8443  0.3167
 9706TIP3    H250534   6.160   6.056  15.406  0.1285 -1.2379  1.7829
 9707TIP3   OH250535   0.631   5.495   4.610  0.0133  0.0606  0.0646
 9707TIP3    H150536   0.563   5.427   4.614  0.2251 -0.2622 -1.5794
 9707TIP3    H250537   0.598   5.559   4.547  1.7297 -0.6980 -1.6641
 9708TIP3   OH250538   5.002   4.765  12.002 -0.7322 -0.2600 -0.4658
 9708TIP3    H150539   5.032   4.847  12.042 -0.0678 -0.9830  0.5303
 9708TIP3    H250540   4.929   4.737  12.057  0.8191 -1.7722  0.8776
 9709TIP3   OH250541   3.807   5.283  12.784 -0.0539  0.2667  0.8863
 9709TIP3    H150542   3.768   5.200  12.810  0.2950 -0.7820 -1.7806
 9709TIP3    H250543   3.884   5.292  12.840 -0.6282 -0.7037  1.8566
 9710TIP3   OH250544   5.856   3.616  13.864  0.9790  0.1572  0.2395
 9710TIP3    H150545   5.847   3.647  13.954  1.2648 -0.5554  0.5161
 9710TIP3    H250546   5.844   3.521  13.870  1.7007  0.0259 -0.3802
 9711TIP3   OH250547   5.125   4.136   1.089  0.0678  0.0643 -0.5259
 9711TIP3    H150548   5.154   4.171   1.173  0.8058  0.8357 -1.0950
 9711TIP3    H250549   5.079   4.055   1.111  2.1989 -0.9233  0.4457
 9712TIP3   OH250550   5.005   5.887  16.205 -0.0790 -0.5587 -0.5706
 9712TIP3    H150551   5.007   5.953  16.274 -2.7069 -1.4636  0.4320
 9712TIP3    H250552   5.096   5.877  16.179  0.7837  0.8934  1.7399
 9713TIP3   OH250553   3.233   6.006   3.077  0.3639 -0.2466  0.6070
 9713TIP3    H150554   3.145   6.038   3.099  0.2771 -0.9991  1.3669
 9713TIP3    H250555   3.264   5.964   3.157 -0.0904 -3.3505 -0.7778
 9714TIP3   OH250556   5.375   6.384   4.711 -0.2977  0.0600  0.2711
 9714TIP3    H150557   5.445   6.437   4.672  0.0291 -0.3532  0.2932
 9714TIP3    H250558   5.356   6.317   4.646 -0.3044 -0.1496  0.4885
 9715TIP3   OH250559   5.271   5.817   6.211  0.0700  0.3812  0.1731
 9715TIP3    H150560   5.353   5.862   6.225  0.1424 -0.3378  2.2707
 9715TIP3    H250561   5.294   5.739   6.160  0.5510  0.6302  0.0160
 9716TIP3   OH250562   4.531   0.333   0.818  0.3694  0.0351  0.4529
 9716TIP3    H150563   4.519   0.421   0.782 -0.2855 -0.2789 -0.1003
 9716TIP3    H250564   4.607   0.341   0.876  1.4101  0.5718 -0.9431
 9717TIP3   OH250565   4.681   1.466  16.887  0.3096  0.3383 -0.7126
 9717TIP3    H150566   4.635   1.459  16.804 -1.9003 -1.4173  0.6134
 9717TIP3    H250567   4.638   1.539  16.932 -0.1023 -0.2691 -0.1211
 9718TIP3   OH250568   2.802   3.221   0.736 -0.1542 -0.9839  0.0072
 9718TIP3    H150569   2.785   3.235   0.829  0.1942  1.9252 -0.2972
 9718TIP3    H250570   2.715   3.211   0.697 -0.3852 -0.7352  0.4461
 9719TIP3   OH250571   0.895   0.118  13.570  0.1868  0.3337 -0.0419
 9719TIP3    H150572   0.957   0.065  13.520  0.7660  1.0519 -0.0886
 9719TIP3    H250573   0.816   0.064  13.574  0.1467  0.2254 -1.6862
 9720TIP3   OH250574   5.703   4.686  14.846 -0.3446  0.1999  0.4358
 9720TIP3    H150575   5.684   4.756  14.908 -2.5271  1.6893 -1.8100
 9720TIP3    H250576   5.618   4.645  14.829  0.4102 -0.9522 -0.6486
 9721TIP3   OH250577   4.794   4.166   5.419 -0.4163  0.1235  0.4578
 9721TIP3    H150578   4.856   4.235   5.441 -1.0668  0.3273  1.7025
 9721TIP3    H250579   4.714   4.189   5.466 -1.2787 -0.4218 -0.6989
 9722TIP3   OH250580   0.015   1.680  11.098  0.2020 -0.5433 -0.1037
 9722TIP3    H150581  -0.016   1.593  11.071 -1.9076  0.0394  0.3608
 9722TIP3    H250582   0.033   1.725  11.015  0.2537 -1.0499 -0.3733
 9723TIP3   OH250583   6.489   2.562   0.962 -0.8063 -0.3917  0.1612
 9723TIP3    H150584   6.523   2.473   0.967  0.4976  0.1195  0.6375
 9723TIP3    H250585   6.424   2.567   1.032 -1.4882 -1.2263 -0.4150
 9724TIP3   OH250586   4.006   0.757   6.060 -0.2986  0.2560 -0.0731
 9724TIP3    H150587   3.948   0.822   6.019  0.0261  1.5739  1.5230
 9724TIP3    H250588   4.093   0.795   6.053 -0.3154  0.8449  2.4316
 9725TIP3   OH250589   3.884   4.073  12.231  0.0206  0.2194 -0.0051
 9725TIP3    H150590   3.856   4.137  12.166 -3.1321  0.0717  1.1562
 9725TIP3    H250591   3.871   3.988  12.188 -0.4962  0.1877  0.2078
 9726TIP3   OH250592   6.043   3.205   6.375 -0.1453  0.7908  0.3156
 9726TIP3    H150593   6.025   3.146   6.448  0.7505 -0.5243 -0.5090
 9726TIP3    H250594   6.039   3.149   6.298  0.1029  1.9389 -0.5350
 9727TIP3   OH250595   1.290   1.695   5.077 -0.2490 -0.0079  0.0289
 9727TIP3    H150596   1.306   1.724   4.987  1.4553  0.3024  0.4194
 9727TIP3    H250597   1.373   1.655   5.104 -0.0859  1.7208  2.1556
 9728TIP3   OH250598   1.051   0.082   4.212  0.6664 -0.1088  0.1136
 9728TIP3    H150599   1.004  -0.000   4.225 -3.3144  2.3025  1.8976
 9728TIP3    H250600   1.029   0.109   4.123  1.0811 -0.4155 -0.0835
 9729TIP3   OH250601   0.759   6.482  15.687  0.0277 -0.3262 -0.0987
 9729TIP3    H150602   0.848   6.450  15.670  0.2591  0.6123 -0.7190
 9729TIP3    H250603   0.766   6.526  15.771  0.0583 -0.5864  0.0363
 9730TIP3   OH250604   1.707   4.994   4.253  0.0160  0.6219  0.4473
 9730TIP3    H150605   1.712   4.905   4.289  0.1666  1.1299  1.7187
 9730TIP3    H250606   1.638   4.989   4.186  0.3814 -0.5678  0.1395
 9731TIP3   OH250607   0.575   3.108   5.293  0.1971  0.4243 -0.0453
 9731TIP3    H150608   0.511   3.179   5.282  0.8566  1.0120 -0.1273
 9731TIP3    H250609   0.535   3.050   5.358  0.0226  1.3205  0.6656
 9732TIP3   OH250610   1.429   0.738   3.841  0.2348  0.1030 -0.1097
 9732TIP3    H150611   1.410   0.725   3.748  2.2078  0.1495 -0.5546
 9732TIP3    H250612   1.393   0.824   3.862 -1.6928 -0.6222 -0.3974
 9733TIP3   OH250613   5.087   1.288  13.592 -0.4115  0.3555 -0.1671
 9733TIP3    H150614   5.133   1.233  13.655 -0.7331 -1.0064 -1.1189
 9733TIP3    H250615   5.156   1.321  13.534 -0.4885 -0.8218 -0.9390
 9734TIP3   OH250616   2.662   6.700   4.850 -0.1679 -0.0092  0.0119
 9734TIP3    H150617   2.654   6.689   4.945 -0.9377  1.0920  0.0835
 9734TIP3    H250618   2.572   6.702   4.818  0.0283  1.6238 -0.5042
 9735TIP3   OH250619   1.899   1.479  10.787 -0.0374  0.1690  0.3591
 9735TIP3    H150620   1.950   1.401  10.808  0.0833  0.2758  0.4601
 9735TIP3    H250621   1.964   1.548  10.774 -0.0945  0.0469 -0.6154
 9736TIP3   OH250622   3.446   5.635   5.384 -0.6650  0.0286 -0.2863
 9736TIP3    H150623   3.375   5.668   5.328 -0.4082 -0.4117 -0.8757
 9736TIP3    H250624   3.482   5.714   5.425 -1.2028  0.3012 -0.3321
 9737TIP3   OH250625   0.270   2.937   2.123 -0.1538 -0.0604  0.7639
 9737TIP3    H150626   0.356   2.977   2.137  0.2925 -0.5338 -0.5667
 9737TIP3    H250627   0.279   2.848   2.156 -0.5132  0.2599  1.7562
 9738TIP3   OH250628   1.445   6.565  16.607  0.2868  0.4684 -0.3124
 9738TIP3    H150629   1.386   6.507  16.560  0.5951 -1.0255  1.0934
 9738TIP3    H250630   1.389   6.639  16.633 -0.7981 -0.5694  0.3630
 9739TIP3   OH250631   1.234   2.971  13.891 -0.4516  0.1031  0.0032
 9739TIP3    H150632   1.195   2.920  13.961 -0.1068 -1.4445 -0.9150
 9739TIP3    H250633   1.294   3.031  13.935 -0.2150 -0.8736  1.0342
 9740TIP3   OH250634   5.349   4.101   2.828 -0.3958 -0.2847 -0.6770
 9740TIP3    H150635   5.354   4.136   2.917  0.5870  0.3081 -0.9632
 9740TIP3    H250636   5.257   4.077   2.818 -0.2402 -1.7464  1.0159
 9741TIP3   OH250637   0.513   1.099   4.135 -0.0376 -0.2092 -0.3914
 9741TIP3    H150638   0.426   1.088   4.175 -0.1452  0.9333 -0.2923
 9741TIP3    H250639   0.563   1.024   4.166  0.2059  1.1784  2.7716
 9742TIP3   OH250640   0.858   6.550   1.521  0.2282  0.1660 -0.0793
 9742TIP3    H150641   0.788   6.505   1.474  1.5396 -0.8743 -1.0748
 9742TIP3    H250642   0.859   6.509   1.607 -0.2712  0.0719 -0.1183
 9743TIP3   OH250643   6.488   0.467   5.363  0.3784 -0.1467  0.2304
 9743TIP3    H150644   6.521   0.388   5.408  2.3542 -0.0193 -0.9293
 9743TIP3    H250645   6.453   0.434   5.280 -0.2333  0.0045  0.4301
 9744TIP3   OH250646   5.492   1.471  14.055  0.5495  0.3171  0.2203
 9744TIP3    H150647   5.484   1.545  13.995 -0.0450  1.3507  1.5594
 9744TIP3    H250648   5.578   1.434  14.036  0.6368  1.0131 -0.8122
 9745TIP3   OH250649   1.384   1.821   0.464  0.0523  0.1119 -0.4001
 9745TIP3    H150650   1.462   1.872   0.488  1.0826 -1.8952  0.6724
 9745TIP3    H250651   1.420   1.744   0.419 -1.4956  0.5456 -2.4411
 9746TIP3   OH250652   5.529   4.309  14.254 -0.2354  0.2826  0.4126
 9746TIP3    H150653   5.529   4.403  14.234  1.8640  0.6985  2.1750
 9746TIP3    H250654   5.621   4.284  14.250 -0.9138 -2.0144 -1.3335
 9747TIP3   OH250655   2.177   6.426  15.607 -0.5811  0.6028 -0.1134
 9747TIP3    H150656   2.270   6.442  15.624 -1.1332  2.5281  1.1504
 9747TIP3    H250657   2.176   6.380  15.522  1.4911  0.8061 -0.2659
 9748TIP3   OH250658   1.410   6.749  14.243  0.3470 -0.3389 -0.4914
 9748TIP3    H150659   1.385   6.695  14.318  2.2665 -1.3575 -0.5595
 9748TIP3    H250660   1.333   6.746  14.185 -1.2426  0.6750  1.5284
 9749TIP3   OH250661   1.162   6.035   0.939  0.3883  0.2582  0.1291
 9749TIP3    H150662   1.162   6.034   1.035 -0.7573 -1.1919  0.1332
 9749TIP3    H250663   1.086   6.088   0.915  0.8920  0.9389  0.0067
 9750TIP3   OH250664   1.177   0.825   2.129 -0.3264  0.1680  0.5167
 9750TIP3    H150665   1.210   0.826   2.219  0.1092 -1.8479  0.3930
 9750TIP3    H250666   1.167   0.918   2.106  1.0931  0.7262  2.0704
 9751TIP3   OH250667   6.733   0.618   3.456 -0.2377 -0.2202 -0.3010
 9751TIP3    H150668   6.704   0.658   3.538 -0.2394 -1.7984  0.4952
 9751TIP3    H250669   6.657   0.622   3.399 -0.7291 -0.5111  0.3191
 9752TIP3   OH250670   3.263   3.110  12.295 -0.1738  0.5179 -0.7515
 9752TIP3    H150671   3.305   3.061  12.223  0.6961  0.6089 -0.3117
 9752TIP3    H250672   3.172   3.080  12.294  0.9264 -3.3014  1.3297
 9753TIP3   OH250673   6.487   5.936   1.227  0.3025  0.1311  0.1688
 9753TIP3    H150674   6.576   5.909   1.249  0.4336  1.0181  0.7563
 9753TIP3    H250675   6.431   5.890   1.289  0.5144  1.0765  1.0812
 9754TIP3   OH250676   0.451   1.426   4.800 -0.4266 -0.2887 -0.1243
 9754TIP3    H150677   0.444   1.442   4.706 -1.9241  0.9225  0.1842
 9754TIP3    H250678   0.440   1.512   4.841 -3.3134 -1.2713  1.2991
 9755TIP3   OH250679   0.396   3.148  15.111 -0.3966 -0.7477 -0.2675
 9755TIP3    H150680   0.385   3.113  15.022 -0.5504 -0.8192 -0.2210
 9755TIP3    H250681   0.449   3.082  15.156 -1.8297 -1.5762  0.2192
 9756TIP3   OH250682   4.023   6.669  12.687  0.0670 -0.5620 -0.1959
 9756TIP3    H150683   3.991   6.733  12.751 -0.0748 -0.7642 -0.0627
 9756TIP3    H250684   3.946   6.648  12.634  0.5373  0.7431 -1.4129
 9757TIP3   OH250685   6.412   5.046  14.253 -0.8115  0.5003  0.2725
 9757TIP3    H150686   6.405   5.059  14.158 -0.6693 -0.0899  0.1763
 9757TIP3    H250687   6.324   5.060  14.286 -1.1599 -0.6649 -0.1282
 9758TIP3   OH250688   5.705   1.963  13.053  0.1459  0.3526 -0.0140
 9758TIP3    H150689   5.800   1.958  13.064  0.3411  0.2085 -1.6286
 9758TIP3    H250690   5.685   2.056  13.060  0.3602  0.3544  0.6244
 9759TIP3   OH250691   3.843   5.113  11.755 -0.2871 -0.5809 -0.7928
 9759TIP3    H150692   3.791   5.034  11.771 -2.2107  0.1341 -3.2364
 9759TIP3    H250693   3.831   5.132  11.662  3.2392  0.4642 -1.1159
 9760TIP3   OH250694   5.186   0.464   2.189  0.3338 -0.0360  0.1462
 9760TIP3    H150695   5.228   0.486   2.272 -0.0906 -0.4699  0.4795
 9760TIP3    H250696   5.181   0.368   2.189  0.9447 -0.0734 -0.6879
 9761TIP3   OH250697   4.062   5.796  16.470 -0.1271  0.2826 -0.0577
 9761TIP3    H150698   4.084   5.886  16.447 -1.5873  0.8311  0.6511
 9761TIP3    H250699   4.116   5.743  16.412  0.0296  1.6234 -1.1686
 9762TIP3   OH250700   3.026   0.378   0.774  0.4593 -0.1758  0.1288
 9762TIP3    H150701   3.007   0.465   0.737  2.0475  0.1560  0.0437
 9762TIP3    H250702   2.984   0.317   0.714  0.4164  0.4961 -0.5312
 9763TIP3   OH250703   3.337   2.531   2.863 -0.4708 -0.1328 -0.6642
 9763TIP3    H150704   3.385   2.448   2.873  2.3827  1.4796 -0.5676
 9763TIP3    H250705   3.287   2.520   2.782  0.8256 -1.5136 -1.2988
 9764TIP3   OH250706   6.372   3.429   2.040  0.3759 -0.1863 -0.7117
 9764TIP3    H150707   6.293   3.392   2.079  0.7752 -0.5196 -0.2105
 9764TIP3    H250708   6.378   3.517   2.076  0.1868 -0.1312 -0.8143
 9765TIP3   OH250709   0.333   2.162   0.574  0.5431  0.4972 -0.5617
 9765TIP3    H150710   0.291   2.078   0.593  1.5556 -0.1558 -1.1791
 9765TIP3    H250711   0.426   2.145   0.587  0.7768  1.4478 -1.0061
 9766TIP3   OH250712   5.073   1.842   1.755 -0.1531 -0.0358  0.3047
 9766TIP3    H150713   5.082   1.751   1.726  0.0280 -0.5024  1.7767
 9766TIP3    H250714   4.980   1.861   1.744 -0.7688 -1.4062  2.7870
 9767TIP3   OH250715   0.556   6.128  12.393 -0.3958 -0.2596 -0.7175
 9767TIP3    H150716   0.524   6.171  12.472  2.1136  1.0499 -0.3657
 9767TIP3    H250717   0.570   6.037  12.419 -1.6583 -0.3411 -0.2845
 9768TIP3   OH250718   2.152   0.643   1.219 -0.1346 -0.0851  0.0412
 9768TIP3    H150719   2.124   0.566   1.268  0.3632  0.6255  1.4521
 9768TIP3    H250720   2.072   0.673   1.175 -1.0371  0.4348  1.9943
 9769TIP3   OH250721   5.441   5.586   0.677  0.2904 -0.2469  0.1774
 9769TIP3    H150722   5.502   5.648   0.715  0.2258  0.3575 -0.6775
 9769TIP3    H250723   5.371   5.577   0.742 -0.4640  1.7331 -0.3160
 9770TIP3   OH250724   4.841   2.239   4.139 -0.3910  0.6034 -0.2203
 9770TIP3    H150725   4.772   2.305   4.149 -0.5232  0.2963  1.0912
 9770TIP3    H250726   4.904   2.261   4.208 -1.0930 -1.4248  1.1105
 9771TIP3   OH250727   2.814   3.069  16.479  0.1726  0.6934 -0.0570
 9771TIP3    H150728   2.736   3.124  16.473 -0.2058  0.1051 -0.6708
 9771TIP3    H250729   2.799   3.015  16.557 -1.6221 -1.7867 -2.0365
 9772TIP3   OH250730   4.027   1.283  13.092 -0.0375 -0.0559  0.1799
 9772TIP3    H150731   4.112   1.292  13.135 -0.4380  1.3893  0.7044
 9772TIP3    H250732   3.964   1.312  13.157 -0.8580 -0.2248 -0.5266
 9773TIP3   OH250733   5.635   3.459  15.658  0.4775  0.4174 -0.0153
 9773TIP3    H150734   5.600   3.373  15.683  0.1103 -0.5674 -3.6320
 9773TIP3    H250735   5.564   3.520  15.677 -0.2534 -0.4548  0.1186
 9774TIP3   OH250736   4.000   3.737  17.003  0.0924 -0.7234 -0.3792
 9774TIP3    H150737   3.980   3.721  16.911  0.1366  2.9355 -1.0989
 9774TIP3    H250738   3.922   3.779  17.038  1.4557  1.3100  0.2825
 9775TIP3   OH250739   0.542   5.383   0.770 -0.1349 -0.4406 -0.0756
 9775TIP3    H150740   0.592   5.434   0.834  0.7332 -1.6574  0.2507
 9775TIP3    H250741   0.495   5.318   0.823 -0.4503 -0.6159 -0.5624
 9776TIP3   OH250742   6.232   1.868   2.400 -0.1531  0.1327  0.3532
 9776TIP3    H150743   6.285   1.946   2.386  1.6807 -1.2559 -0.6007
 9776TIP3    H250744   6.146   1.901   2.424  0.4967  2.4445 -0.4481
 9777TIP3   OH250745   5.592   2.979   4.207 -0.2678 -0.5315 -1.0009
 9777TIP3    H150746   5.658   3.042   4.178  0.3890 -1.2220 -1.0093
 9777TIP3    H250747   5.545   2.954   4.128  0.5012 -1.2408 -1.2304
 9778TIP3   OH250748   6.023   5.107  13.775  0.8357 -0.1636  0.4630
 9778TIP3    H150749   6.003   5.196  13.804  1.5392  0.2621 -0.3264
 9778TIP3    H250750   6.056   5.063  13.853  1.7107  0.6513  0.5715
 9779TIP3   OH250751   5.284   1.796  13.555 -0.2939 -0.2883  0.1897
 9779TIP3    H150752   5.325   1.880  13.574  0.5757 -0.8956  1.0772
 9779TIP3    H250753   5.194   1.805  13.588  0.0433  0.0116  1.0356
 9780TIP3   OH250754   0.531   6.557   6.451 -0.4259 -0.0483  0.4365
 9780TIP3    H150755   0.483   6.572   6.369  0.7293 -1.0762 -0.4546
 9780TIP3    H250756   0.502   6.627   6.509 -1.6391  0.4018 -0.6912
 9781TIP3   OH250757   4.345   1.136  12.793 -0.5110  0.6255 -0.0394
 9781TIP3    H150758   4.285   1.089  12.851 -1.5575 -0.5055 -1.9683
 9781TIP3    H250759   4.414   1.167  12.850 -0.9779 -1.3203  1.6598
 9782TIP3   OH250760   4.255   5.379  16.510 -0.0527  0.0828 -0.1657
 9782TIP3    H150761   4.246   5.317  16.437  0.7849 -2.3523  1.7442
 9782TIP3    H250762   4.165   5.398  16.536 -0.3064 -0.8065 -0.3671
 9783TIP3   OH250763   1.006   4.256  14.768  0.1992 -0.2951 -0.0285
 9783TIP3    H150764   1.017   4.327  14.831 -0.4141 -1.5927  1.5784
 9783TIP3    H250765   0.911   4.249  14.757  0.2345 -1.1984  0.2094
 9784TIP3   OH250766   4.099   4.678  11.181 -0.2636  0.2543 -0.1543
 9784TIP3    H150767   4.150   4.733  11.241 -1.4501  0.5238  0.6180
 9784TIP3    H250768   4.112   4.717  11.095  2.9171 -1.1834 -0.3987
 9785TIP3   OH250769   3.574   5.698   5.886  0.2177 -0.6721 -0.9093
 9785TIP3    H150770   3.491   5.742   5.907  2.2361  2.3884  1.0504
 9785TIP3    H250771   3.564   5.610   5.923 -1.4139  0.3062  1.1205
 9786TIP3   OH250772   6.048   3.009  15.403 -0.7141  0.6583  0.0843
 9786TIP3    H150773   6.096   3.088  15.426 -2.9491  1.8257  0.8873
 9786TIP3    H250774   6.071   2.947  15.473 -1.0871  1.5216  0.9976
 9787TIP3   OH250775   5.115   2.518  12.828 -0.2406  0.0966  0.1862
 9787TIP3    H150776   5.044   2.456  12.844 -0.7444  0.9477  1.3254
 9787TIP3    H250777   5.162   2.523  12.911 -0.7743  1.9363  0.4124
 9788TIP3   OH250778   2.581   5.367   4.667 -0.4759 -0.2165 -0.5503
 9788TIP3    H150779   2.546   5.337   4.751  1.4256 -0.3245  0.2377
 9788TIP3    H250780   2.556   5.299   4.605 -0.9255 -0.6948  0.1431
 9789TIP3   OH250781   2.439   4.941  15.215  0.0626  0.0263 -0.3458
 9789TIP3    H150782   2.466   4.905  15.299 -0.8108 -0.6394 -0.3400
 9789TIP3    H250783   2.490   4.892  15.150  0.2801  0.1044 -0.2318
 9790TIP3   OH250784   1.852   3.951   4.565 -0.1833  0.1179 -0.3096
 9790TIP3    H150785   1.851   3.868   4.518 -1.0258  1.0576 -2.0156
 9790TIP3    H250786   1.760   3.966   4.589 -0.1387  0.8677 -0.5943
 9791TIP3   OH250787   0.602   3.268   6.093  0.0963 -1.0105 -0.0538
 9791TIP3    H150788   0.552   3.346   6.067  1.6417 -0.4543 -1.4717
 9791TIP3    H250789   0.578   3.253   6.184 -0.6509  0.8045  0.0659
 9792TIP3   OH250790   6.200   4.736   3.464 -0.7979  0.2516 -0.3084
 9792TIP3    H150791   6.203   4.787   3.544 -3.2544  0.3958 -0.2614
 9792TIP3    H250792   6.290   4.738   3.430  0.4908 -0.5796  2.8852
 9793TIP3   OH250793   4.472   5.231  10.606  0.0592  0.1740 -0.5828
 9793TIP3    H150794   4.557   5.219  10.647 -0.4904  1.5171  0.9852
 9793TIP3    H250795   4.422   5.284  10.668 -1.8838 -0.5029 -1.5232
 9794TIP3   OH250796   2.610   6.033   6.221  0.0550  0.0082 -0.1287
 9794TIP3    H150797   2.684   6.080   6.258 -0.7551  0.5423  0.8378
 9794TIP3    H250798   2.538   6.096   6.223 -0.8684 -1.0417  0.5622
 9795TIP3   OH250799   6.470   0.133  15.343 -0.4158 -0.5049  0.2714
 9795TIP3    H150800   6.412   0.124  15.419  1.1668  2.2789  1.9147
 9795TIP3    H250801   6.428   0.200  15.288  0.6515  0.7662  0.9607
 9796TIP3   OH250802   1.121   6.079   3.057  0.2105  0.2569  0.0999
 9796TIP3    H150803   1.075   6.001   3.088  0.6090  0.2884  0.7883
 9796TIP3    H250804   1.123   6.137   3.133  0.3012  0.7615 -0.2821
 9797TIP3   OH250805   5.431   1.073   1.540  0.5207  0.5393 -0.2701
 9797TIP3    H150806   5.403   1.049   1.452  1.0815  1.9187 -0.8385
 9797TIP3    H250807   5.349   1.090   1.587  0.2969  1.7486 -1.0933
 9798TIP3   OH250808   0.445   4.028   2.506  0.0503  0.8834 -0.1289
 9798TIP3    H150809   0.407   3.949   2.467 -0.4337  0.2007  1.6757
 9798TIP3    H250810   0.529   4.039   2.461 -0.5275  0.1540 -1.3957
 9799TIP3   OH250811   1.972   3.983   5.098  0.5019  0.5233  0.1645
 9799TIP3    H150812   1.969   3.974   5.003 -3.4133  0.3342  0.1963
 9799TIP3    H250813   2.019   3.905   5.128 -1.6947 -1.5284 -1.4676
 9800TIP3   OH250814   3.530   2.326  15.625 -0.1974  0.3646 -0.3691
 9800TIP3    H150815   3.532   2.421  15.635  0.8758  0.2647  0.5003
 9800TIP3    H250816   3.622   2.300  15.632 -0.6223 -0.8709  0.8379
 9801TIP3   OH250817   1.541   4.348   5.967  0.4383  0.5324  0.0813
 9801TIP3    H150818   1.636   4.350   5.975  0.4204 -0.5705  0.6816
 9801TIP3    H250819   1.510   4.328   6.056 -0.4115  2.1567  0.1778
 9802TIP3   OH250820   5.549   6.078  14.593 -0.4153 -0.1794 -0.2957
 9802TIP3    H150821   5.563   6.136  14.518  1.6409  0.4010  0.4980
 9802TIP3    H250822   5.462   6.042  14.579 -0.6932  1.1117 -2.1596
 9803TIP3   OH250823   4.146   3.070   0.296 -0.1592  0.0639  0.3380
 9803TIP3    H150824   4.237   3.095   0.312 -1.1445  3.2767  1.3543
 9803TIP3    H250825   4.096   3.120   0.361 -2.5749 -2.3383  0.3922
 9804TIP3   OH250826   4.235   2.946  12.157 -0.0386  0.9251 -0.4282
 9804TIP3    H150827   4.243   2.922  12.064 -0.6695 -1.9455  0.2229
 9804TIP3    H250828   4.141   2.940  12.174  0.4326 -2.3842  1.3316
 9805TIP3   OH250829   3.057   2.711  13.352  0.4162 -0.5892 -0.2513
 9805TIP3    H150830   3.027   2.665  13.430 -0.4691  0.7061  0.1866
 9805TIP3    H250831   3.001   2.788  13.346  0.9346 -0.3057 -1.7763
 9806TIP3   OH250832   1.713   1.412  16.418 -0.2127  0.2548 -0.5103
 9806TIP3    H150833   1.798   1.434  16.380  0.6244 -0.4748  0.8830
 9806TIP3    H250834   1.650   1.432  16.349  0.8940  2.8314 -0.8136
 9807TIP3   OH250835   0.892   6.704   2.693 -0.1629 -0.0852  0.3062
 9807TIP3    H150836   0.818   6.671   2.642 -0.2897  0.3932  0.1734
 9807TIP3    H250837   0.967   6.656   2.661 -0.1430  0.6227 -0.7525
 9808TIP3   OH250838   3.146   4.292   1.487  0.2057  0.1604  0.2518
 9808TIP3    H150839   3.195   4.298   1.405 -0.3324  0.8778 -0.0248
 9808TIP3    H250840   3.065   4.248   1.464  0.1913  0.0722  0.4687
 9809TIP3   OH250841   4.578   1.097  11.978 -0.3244 -0.2465 -0.3018
 9809TIP3    H150842   4.633   1.073  11.904  1.5647  3.2733 -0.1327
 9809TIP3    H250843   4.499   1.133  11.939  0.3082  0.8212 -0.6017
 9810TIP3   OH250844   3.830   6.313   1.012 -0.0846  0.0049 -0.4940
 9810TIP3    H150845   3.824   6.393   1.065 -0.7664 -0.0568 -0.4661
 9810TIP3    H250846   3.755   6.261   1.040  0.1651 -0.4974 -0.7571
 9811TIP3   OH250847   5.394   0.702  17.218  0.1101 -0.3810 -0.4147
 9811TIP3    H150848   5.317   0.650  17.192  0.9462 -1.8504 -0.0177
 9811TIP3    H250849   5.446   0.642  17.271 -0.1811  1.6682  2.3126
 9812TIP3   OH250850   1.646   0.157  16.136  0.0138 -0.4192  0.5714
 9812TIP3    H150851   1.721   0.105  16.168  0.0884 -0.8609 -0.3249
 9812TIP3    H250852   1.583   0.154  16.209  1.1055  0.4757  1.5797
 9813TIP3   OH250853   2.680   3.594   1.376 -0.5263  0.6006  0.1682
 9813TIP3    H150854   2.605   3.551   1.337  0.2358 -0.9369  0.3650
 9813TIP3    H250855   2.653   3.611   1.467 -0.2508 -0.9714  0.5648
 9814TIP3   OH250856   3.499   0.669   6.525 -0.4844  0.3616 -0.4327
 9814TIP3    H150857   3.498   0.618   6.606  0.0253  0.0604 -0.6182
 9814TIP3    H250858   3.585   0.710   6.522  0.3278 -1.3565 -1.8959
 9815TIP3   OH250859   4.803   6.516  11.808  0.1574 -0.5554  0.0213
 9815TIP3    H150860   4.860   6.444  11.782  0.6386  0.3293 -1.4212
 9815TIP3    H250861   4.736   6.520  11.740 -0.1243  0.0877  0.3264
 9816TIP3   OH250862   0.443   3.168   4.944  0.1906 -0.1555 -0.0714
 9816TIP3    H150863   0.440   3.262   4.964 -1.3633  0.1465 -1.6482
 9816TIP3    H250864   0.352   3.139   4.951  0.5306 -1.3646 -0.5137
 9817TIP3   OH250865   4.177   4.959  16.253 -0.5222 -0.0150 -0.1704
 9817TIP3    H150866   4.124   4.880  16.243  0.6817 -1.2194  2.6638
 9817TIP3    H250867   4.225   4.966  16.170 -2.1426 -1.0836 -1.2346
 9818TIP3   OH250868   4.995   0.463   0.848 -0.0161  0.2401  0.2450
 9818TIP3    H150869   4.943   0.526   0.798 -0.2253  0.6354  0.9618
 9818TIP3    H250870   5.073   0.449   0.794 -0.0134  1.0358  0.0340
 9819TIP3   OH250871   2.527   3.118  13.418  0.3520 -0.3096  0.3386
 9819TIP3    H150872   2.457   3.108  13.353 -0.1261 -1.8908  1.0836
 9819TIP3    H250873   2.488   3.171  13.487 -1.0059 -3.3798  1.9989
 9820TIP3   OH250874   3.888   2.326  15.348  0.2641  0.4033  0.5756
 9820TIP3    H150875   3.838   2.405  15.327  2.0840  1.2157 -0.8552
 9820TIP3    H250876   3.920   2.340  15.437  0.9612  1.5030  0.1605
 9821TIP3   OH250877   2.233   5.836   0.040 -0.4764  0.2604  0.2280
 9821TIP3    H150878   2.264   5.817  -0.048 -0.7870 -1.7912  0.5505
 9821TIP3    H250879   2.307   5.814   0.097 -0.5625  0.7882  0.5503
 9822TIP3   OH250880   6.708   3.639   5.647  0.0715 -0.2616 -0.1655
 9822TIP3    H150881   6.675   3.718   5.691  1.7517  0.8123 -0.8076
 9822TIP3    H250882   6.712   3.573   5.717 -1.6534  0.1042  0.3087
 9823TIP3   OH250883   4.668   5.372  16.532 -0.1040  0.2576  0.0759
 9823TIP3    H150884   4.603   5.350  16.599 -0.7361 -0.1504 -0.6691
 9823TIP3    H250885   4.739   5.413  16.581 -0.8891  0.6546  0.9084
 9824TIP3   OH250886   3.578   3.207  15.676  0.4748 -0.0270  0.2599
 9824TIP3    H150887   3.557   3.159  15.596 -2.4572  0.4929  0.6573
 9824TIP3    H250888   3.588   3.140  15.743  2.4887 -0.4357 -0.4161
 9825TIP3   OH250889   6.296   4.432  17.091  0.1790 -0.4095  0.1592
 9825TIP3    H150890   6.288   4.351  17.042  1.8781  0.1085 -1.0440
 9825TIP3    H250891   6.249   4.416  17.173  0.3332 -2.5417 -0.1430
 9826TIP3   OH250892   3.678   2.163  15.941  0.1930  0.3759 -1.0752
 9826TIP3    H150893   3.619   2.146  15.868 -0.0879  0.8235 -0.9566
 9826TIP3    H250894   3.635   2.125  16.018  1.3346 -1.7165 -1.4230
 9827TIP3   OH250895   6.767   0.334   3.676  0.0882 -0.1121  0.1860
 9827TIP3    H150896   6.676   0.359   3.658 -0.6318 -2.1070  0.8799
 9827TIP3    H250897   6.775   0.246   3.639  1.0200 -0.9038  2.1607
 9828TIP3   OH250898   5.966   3.129  16.578 -0.4032 -0.0629  0.2285
 9828TIP3    H150899   6.052   3.131  16.536  0.1788 -0.4416  1.3495
 9828TIP3    H250900   5.912   3.074  16.522  0.1150  0.1148 -0.4427
 9829TIP3   OH250901   0.581   2.294   5.524  0.0598 -0.1044  0.0027
 9829TIP3    H150902   0.492   2.299   5.559  0.1740 -1.4183  0.5465
 9829TIP3    H250903   0.570   2.262   5.435  0.0290 -1.2257  0.3969
 9830TIP3   OH250904   6.583   5.675   1.342 -0.3385 -0.0177  0.3288
 9830TIP3    H150905   6.587   5.598   1.399  0.6421  0.1402  0.4723
 9830TIP3    H250906   6.674   5.697   1.324 -0.6211  0.8534 -0.0700
 9831TIP3   OH250907   2.214   6.578  16.146 -0.0662 -0.2667 -0.1875
 9831TIP3    H150908   2.208   6.604  16.238 -0.2035 -0.4969 -0.1281
 9831TIP3    H250909   2.245   6.656  16.100  1.6382 -0.6438  0.2933
 9832TIP3   OH250910   3.672   4.020   5.960  0.1143  0.4049 -0.0897
 9832TIP3    H150911   3.630   3.965   6.026 -1.0294  1.8146  0.3788
 9832TIP3    H250912   3.600   4.058   5.910  0.9319  0.4646 -1.2450
 9833TIP3   OH250913   5.327   2.054  15.300  0.5691 -0.4228 -0.0615
 9833TIP3    H150914   5.381   1.977  15.318  0.5289 -0.2459  0.8432
 9833TIP3    H250915   5.243   2.035  15.340  0.3717 -0.1554 -0.3449
 9834TIP3   OH250916   1.199   3.155  13.434  0.4591  0.1011 -0.1513
 9834TIP3    H150917   1.290   3.151  13.403  0.5446  0.7089  0.0110
 9834TIP3    H250918   1.178   3.064  13.457  0.4579 -0.3319 -1.8127
 9835TIP3   OH250919   0.327   1.239  16.709 -0.1810 -0.2799 -0.0353
 9835TIP3    H150920   0.406   1.261  16.758 -0.4257 -1.7271  1.0139
 9835TIP3    H250921   0.260   1.227  16.775 -1.6770  2.3157 -0.9847
 9836TIP3   OH250922   2.140   3.182  17.115 -0.2289 -0.2287  0.0573
 9836TIP3    H150923   2.183   3.146  17.193 -0.2013  0.2999  0.2897
 9836TIP3    H250924   2.083   3.250  17.149 -0.1028  0.1082 -0.4005
 9837TIP3   OH250925   6.632   0.262   1.604 -0.6112 -0.0578  0.2594
 9837TIP3    H150926   6.667   0.175   1.584 -0.9769  0.0089 -0.7529
 9837TIP3    H250927   6.653   0.277   1.696  1.6466 -0.1834 -0.2060
 9838TIP3   OH250928   2.590   3.104  12.692 -0.2182 -0.0995  0.5256
 9838TIP3    H150929   2.622   3.185  12.651  0.9238  0.1548  1.9030
 9838TIP3    H250930   2.543   3.059  12.622  0.4793  1.0131 -0.6772
 9839TIP3   OH250931   0.926   2.037   3.831  0.6596  0.4294  0.4203
 9839TIP3    H150932   0.833   2.058   3.842  0.3968 -0.7801  0.6068
 9839TIP3    H250933   0.962   2.038   3.920  0.9774  1.5645  0.2827
 9840TIP3   OH250934   4.162   0.112  13.566 -0.0003  0.1218  0.1716
 9840TIP3    H150935   4.139   0.180  13.502 -1.6408  0.4276  1.0381
 9840TIP3    H250936   4.212   0.158  13.634 -1.7758  0.6631  1.1516
 9841TIP3   OH250937   2.662   2.731   4.073  0.3359  0.3037 -0.1921
 9841TIP3    H150938   2.624   2.649   4.039  2.3642 -0.8221  0.2290
 9841TIP3    H250939   2.667   2.787   3.996  1.3685 -0.9022 -1.0283
 9842TIP3   OH250940   4.378   3.560   0.538 -0.4943 -0.4050 -0.0293
 9842TIP3    H150941   4.431   3.483   0.560  0.2479 -0.1125 -0.7324
 9842TIP3    H250942   4.375   3.611   0.619 -0.5494 -0.9244  0.2963
 9843TIP3   OH250943   2.417   1.325   1.294 -0.8062 -0.4301  0.2039
 9843TIP3    H150944   2.499   1.289   1.327 -1.3855 -1.1917  0.8320
 9843TIP3    H250945   2.443   1.383   1.222  0.1737 -1.8264 -0.5850
 9844TIP3   OH250946   1.242   1.027  16.722 -0.0429 -0.5545 -0.0767
 9844TIP3    H150947   1.279   1.043  16.635 -0.6314  3.1958  0.2619
 9844TIP3    H250948   1.177   0.959  16.709  0.5391 -0.7020 -2.4123
 9845TIP3   OH250949   5.901   1.177   1.682 -0.1415  0.1963  0.2921
 9845TIP3    H150950   5.890   1.138   1.596  0.4150 -0.0861  0.3486
 9845TIP3    H250951   5.993   1.201   1.687 -0.2458  0.5373  0.6709
 9846TIP3   OH250952   1.770   3.849   3.170 -0.4834 -0.3606  0.2445
 9846TIP3    H150953   1.682   3.876   3.193 -0.7212 -0.2331 -0.7891
 9846TIP3    H250954   1.759   3.760   3.135 -0.2312 -0.2654 -0.0760
 9847TIP3   OH250955   3.148   6.714  16.795 -0.2975  0.4969  0.4320
 9847TIP3    H150956   3.100   6.711  16.712 -0.5548 -0.3533  0.6068
 9847TIP3    H250957   3.130   6.802  16.830 -0.4092  0.7602 -0.2728
 9848TIP3   OH250958   5.580   5.774  11.504  0.8376  0.2845 -0.0569
 9848TIP3    H150959   5.541   5.703  11.452  0.6212 -1.2455  2.1131
 9848TIP3    H250960   5.567   5.852  11.451 -1.8882 -0.7609 -1.0517
 9849TIP3   OH250961   3.993   3.756   2.932 -0.4687 -1.1286  0.1432
 9849TIP3    H150962   4.078   3.713   2.929  0.8542  1.0090  3.6171
 9849TIP3    H250963   3.990   3.808   2.851  2.1110 -0.2950  0.5226
 9850TIP3   OH250964   1.919   1.335   0.927 -0.3792  0.0279 -0.1879
 9850TIP3    H150965   1.896   1.244   0.907  0.2294 -0.2868  0.5207
 9850TIP3    H250966   1.989   1.356   0.865 -1.0839  0.2923 -0.9095
 9851TIP3   OH250967   1.606   6.025   0.783  0.2923 -0.1184 -0.3043
 9851TIP3    H150968   1.657   5.996   0.708  1.3727  2.4702 -0.6526
 9851TIP3    H250969   1.523   5.978   0.777  0.4485 -0.0920 -2.9957
 9852TIP3   OH250970   2.660   5.664  10.531 -0.3381  0.5093  0.2568
 9852TIP3    H150971   2.637   5.723  10.603 -0.1150 -0.5425  1.2037
 9852TIP3    H250972   2.576   5.645  10.488 -0.2181  2.7617 -1.0521
 9853TIP3   OH250973   5.039   4.519  16.863  0.4593  0.1677  0.1689
 9853TIP3    H150974   5.117   4.508  16.808 -0.0552  0.1119 -0.5631
 9853TIP3    H250975   5.008   4.429  16.877  2.5576 -0.1231  3.4856
 9854TIP3   OH250976   6.657   6.697  14.097 -0.6651  0.2203 -0.0358
 9854TIP3    H150977   6.612   6.615  14.077 -0.3368  0.2392 -0.8661
 9854TIP3    H250978   6.750   6.675  14.093 -0.5771  0.1721  1.7097
 9855TIP3   OH250979   1.289   0.860   2.402  0.0419 -0.8963 -0.1302
 9855TIP3    H150980   1.375   0.895   2.423  0.0699  1.3568 -3.5059
 9855TIP3    H250981   1.231   0.937   2.403 -1.3418 -1.9060 -0.6928
 9856TIP3   OH250982   5.666   2.687  16.270  0.5880  0.3899  0.7397
 9856TIP3    H150983   5.589   2.719  16.223  1.4193  0.5573 -0.5637
 9856TIP3    H250984   5.634   2.611  16.319 -0.0804 -0.5971 -1.1325
 9857TIP3   OH250985   3.325   6.749  16.392  0.3164  0.0333  0.0254
 9857TIP3    H150986   3.303   6.791  16.310  0.2699 -0.1289 -0.0439
 9857TIP3    H250987   3.388   6.808  16.434 -0.9447  0.9637  0.6598
 9858TIP3   OH250988   6.451   2.326   4.129 -0.0570 -0.0502  0.3760
 9858TIP3    H150989   6.393   2.268   4.179  0.9467  0.2056  1.8623
 9858TIP3    H250990   6.422   2.414   4.151  1.5600  0.1150  2.0071
 9859TIP3   OH250991   6.089   2.149   0.379 -0.0334 -0.1291 -0.4154
 9859TIP3    H150992   6.156   2.084   0.357 -0.0764 -0.8002  1.3650
 9859TIP3    H250993   6.119   2.230   0.337  0.7281 -0.9622 -1.4899
 9860TIP3   OH250994   3.768   2.752   0.547 -0.2585 -0.0283  0.4510
 9860TIP3    H150995   3.850   2.721   0.507 -0.9343 -1.6724  0.2883
 9860TIP3    H250996   3.788   2.840   0.576  0.4217  1.0776 -3.0678
 9861TIP3   OH250997   2.992   3.761   3.728  0.0398 -0.5358 -0.8509
 9861TIP3    H150998   3.034   3.827   3.673 -0.9548 -0.0796 -1.0815
 9861TIP3    H250999   2.904   3.751   3.690 -1.2255  0.9298  1.5802
 9862TIP3   OH251000   1.323   5.480   4.428  0.0103  0.4537  0.2033
 9862TIP3    H151001   1.255   5.544   4.409 -0.3602 -0.0878 -0.2930
 9862TIP3    H251002   1.297   5.401   4.381  1.2135  0.3857 -0.3859
 9863TIP3   OH251003   1.150   3.712  11.960 -0.3822  0.2201  0.2532
 9863TIP3    H151004   1.164   3.673  11.874 -0.7788  2.2191 -0.7342
 9863TIP3    H251005   1.070   3.670  11.992  0.3015 -1.2527  0.1015
 9864TIP3   OH251006   3.371   0.872   2.963 -0.1468 -0.1980 -0.0845
 9864TIP3    H151007   3.402   0.870   3.054 -2.5730 -0.0776  0.7979
 9864TIP3    H251008   3.287   0.825   2.965 -0.1238 -0.3854 -2.3076
 9865TIP3   OH251009   3.670   0.830  11.931 -0.3552 -0.2844  0.4406
 9865TIP3    H151010   3.624   0.847  11.849 -0.6625 -2.4450  0.1294
 9865TIP3    H251011   3.600   0.819  11.996 -0.1979 -1.0317  0.4866
 9866TIP3   OH251012   2.192   4.096   2.651  0.2092 -0.0556 -0.2252
 9866TIP3    H151013   2.098   4.075   2.646  0.5232 -1.3386 -1.0438
 9866TIP3    H251014   2.235   4.014   2.626  1.6379 -0.6690  3.8699
 9867TIP3   OH251015   3.943   5.173  17.070  0.7132  0.5285 -0.1655
 9867TIP3    H151016   3.978   5.092  17.033  0.1778  1.0082 -1.7726
 9867TIP3    H251017   4.010   5.239  17.053  0.6556  0.6661  0.1261
 9868TIP3   OH251018   1.027   3.408  16.346 -1.6482 -0.7834 -0.4385
 9868TIP3    H151019   0.968   3.347  16.302 -1.4221 -0.0681 -1.7806
 9868TIP3    H251020   1.054   3.469  16.277 -0.2741 -0.3950  0.4201
 9869TIP3   OH251021   2.406   4.921  13.825 -0.0132 -0.5515 -0.1892
 9869TIP3    H151022   2.356   4.885  13.752  0.8411 -1.1158 -0.5043
 9869TIP3    H251023   2.484   4.957  13.785  0.5044 -0.9529  0.4534
 9870TIP3   OH251024   5.755   6.064   3.417 -0.1491 -0.4897 -0.2648
 9870TIP3    H151025   5.810   6.013   3.357 -0.1324 -1.4134  0.5137
 9870TIP3    H251026   5.765   6.155   3.388  1.3509 -0.7161 -0.4672
 9871TIP3   OH251027   4.676   2.272  14.109  0.1338 -0.2711 -0.2048
 9871TIP3    H151028   4.692   2.342  14.045 -1.6721 -1.9220 -2.5747
 9871TIP3    H251029   4.593   2.295  14.150  0.2448 -0.3056  0.0426
 9872TIP3   OH251030   2.299   2.843   5.723  0.4608  0.1623 -0.7959
 9872TIP3    H151031   2.310   2.929   5.764  2.1756  0.3572 -1.6468
 9872TIP3    H251032   2.349   2.784   5.779  1.2849  0.1185 -1.5872
 9873TIP3   OH251033   2.624   5.215  13.466  0.5944 -0.2813 -0.8631
 9873TIP3    H151034   2.693   5.176  13.412  1.0264 -1.8942  0.7968
 9873TIP3    H251035   2.665   5.290  13.508  0.9700 -0.4777 -0.8799
 9874TIP3   OH251036   0.833   5.838  14.816 -0.4607 -0.4891  0.1533
 9874TIP3    H151037   0.892   5.783  14.765 -1.3302 -0.1373 -1.2491
 9874TIP3    H251038   0.798   5.901  14.753 -0.9183  0.4739  1.3520
 9875TIP3   OH251039   4.370   1.217  11.841 -0.0004 -0.2782  0.5853
 9875TIP3    H151040   4.384   1.241  11.749 -2.2511 -0.3963  0.1840
 9875TIP3    H251041   4.285   1.173  11.842  1.4292 -3.2166  2.2197
 9876TIP3   OH251042   0.203   1.390  17.159 -0.2527  0.2111  0.2648
 9876TIP3    H151043   0.230   1.357  17.073 -0.9093  0.8393 -0.1954
 9876TIP3    H251044   0.192   1.312  17.213  1.3825 -0.1080  0.1421
 9877TIP3   OH251045   6.758   3.399   1.555 -0.1421 -0.4765 -0.8056
 9877TIP3    H151046   6.691   3.451   1.511  0.8844  1.9462  0.4037
 9877TIP3    H251047   6.825   3.384   1.488 -0.4652 -0.2661 -1.1757
 9878TIP3   OH251048   2.497   6.005   5.090 -0.4013  0.2346  0.2054
 9878TIP3    H151049   2.552   5.937   5.050 -0.5689  0.1334  0.1477
 9878TIP3    H251050   2.456   6.049   5.016  0.0735  0.7059  0.2221
 9879TIP3   OH251051   6.596   6.492   3.851  0.0985 -0.2630  0.2665
 9879TIP3    H151052   6.690   6.475   3.861  0.3687 -0.0598 -1.6832
 9879TIP3    H251053   6.591   6.582   3.821 -0.8061  0.0745  1.3766
 9880TIP3   OH251054   4.416   1.301  14.721  0.4283  0.5230  0.4714
 9880TIP3    H151055   4.417   1.368  14.789  2.2180  0.6144  0.3933
 9880TIP3    H251056   4.484   1.239  14.748 -2.0093 -1.9262  1.1751
 9881TIP3   OH251057   5.588   0.003   2.151  0.0956  0.2347 -0.3332
 9881TIP3    H151058   5.682   0.010   2.136 -0.0909  0.5839 -1.4069
 9881TIP3    H251059   5.564  -0.082   2.113  0.1468 -0.3284  0.8758
 9882TIP3   OH251060   5.158   3.370  16.640 -0.7118 -0.2970  0.3161
 9882TIP3    H151061   5.242   3.326  16.632 -1.2438 -1.5465  1.3531
 9882TIP3    H251062   5.101   3.326  16.577 -0.8563 -0.1263  0.3259
 9883TIP3   OH251063   6.572   5.490  16.029  0.2428  0.4461 -0.5460
 9883TIP3    H151064   6.529   5.420  15.980  0.6679  0.8570 -1.5002
 9883TIP3    H251065   6.520   5.568  16.009  0.1550  0.5335  0.0081
 9884TIP3   OH251066   4.939   2.190  15.391  0.3505  0.0670 -0.2968
 9884TIP3    H151067   4.968   2.231  15.310 -0.1162  1.1142  0.0470
 9884TIP3    H251068   4.984   2.238  15.460 -1.1642  0.8604  0.1761
 9885TIP3   OH251069   1.430   1.461   4.712  0.0383 -0.9012  0.0130
 9885TIP3    H151070   1.426   1.533   4.650  1.2935 -1.8375 -1.1767
 9885TIP3    H251071   1.339   1.441   4.732 -0.3082  1.3279  0.7389
 9886TIP3   OH251072   5.683   6.045  12.598 -0.0701  0.5894  0.4923
 9886TIP3    H151073   5.771   6.080  12.586  0.3242 -0.4219  0.3989
 9886TIP3    H251074   5.653   6.083  12.681  0.4849  0.8645  0.5676
 9887TIP3   OH251075   3.050   2.977  11.842 -0.5315 -0.1954  0.1118
 9887TIP3    H151076   3.009   2.928  11.771 -0.2902  1.1183 -0.9545
 9887TIP3    H251077   2.979   3.028  11.880 -1.0401 -2.2325  2.0171
 9888TIP3   OH251078   5.958   4.825   2.876  0.4341 -0.5140  0.7684
 9888TIP3    H151079   6.036   4.771   2.890  0.8291 -0.1946 -0.2133
 9888TIP3    H251080   5.902   4.805   2.951  0.3634 -2.6605  0.1876
 9889TIP3   OH251081   1.524   2.853  11.633 -0.0183  0.3635 -0.0719
 9889TIP3    H151082   1.563   2.934  11.599  5.2348 -1.2379  1.7001
 9889TIP3    H251083   1.533   2.791  11.561  0.8575 -0.0513  0.3914
 9890TIP3   OH251084   6.589   5.338   1.043 -0.1587  0.3186  0.0522
 9890TIP3    H151085   6.503   5.350   1.084 -0.1090  1.0826 -0.0455
 9890TIP3    H251086   6.570   5.324   0.951 -0.1754  0.6749 -0.0006
 9891TIP3   OH251087   1.057   5.618  13.500 -0.5844 -0.3849 -0.5855
 9891TIP3    H151088   1.079   5.528  13.523 -1.3774 -0.3940  0.1829
 9891TIP3    H251089   0.999   5.647  13.571  0.3408  1.0095 -0.3898
 9892TIP3   OH251090   0.363   3.673  17.228 -0.5191  0.0726 -0.4539
 9892TIP3    H151091   0.342   3.754  17.277  0.8079  0.5546 -0.6824
 9892TIP3    H251092   0.294   3.668  17.161  0.0435  1.6403 -1.1819
 9893TIP3   OH251093   2.693   0.905   1.296  0.3655 -0.0476  0.2119
 9893TIP3    H151094   2.737   0.830   1.257 -0.8427 -0.2376 -0.8174
 9893TIP3    H251095   2.613   0.868   1.334  0.1034  0.6180  0.3035
 9894TIP3   OH251096   0.397   1.387  11.588 -0.0190  0.3387  0.3323
 9894TIP3    H151097   0.315   1.435  11.597 -1.0301 -0.5994 -3.0501
 9894TIP3    H251098   0.449   1.439  11.528  0.6316 -0.5972  0.0743
 9895TIP3   OH251099   3.540   6.368  15.130  0.0791  0.2262 -0.6208
 9895TIP3    H151100   3.497   6.450  15.106  1.3561  1.3805  0.9290
 9895TIP3    H251101   3.631   6.393  15.148  0.3009 -1.3985  0.6479
 9896TIP3   OH251102   1.104   1.925   4.792 -0.3563  0.3043  0.2370
 9896TIP3    H151103   1.068   1.987   4.728 -0.7628 -0.3788 -0.2100
 9896TIP3    H251104   1.027   1.881   4.828  0.0403 -1.4466 -1.0068
 9897TIP3   OH251105   2.591   6.324  11.882  0.3942 -0.4313  0.3112
 9897TIP3    H151106   2.579   6.352  11.791  1.1954 -0.7304  0.1164
 9897TIP3    H251107   2.679   6.288  11.885 -0.1875 -1.8748  0.8375
 9898TIP3   OH251108   4.788   2.322  12.622  0.3975 -0.2412  0.1864
 9898TIP3    H151109   4.787   2.409  12.661  0.4904  0.3098 -1.0129
 9898TIP3    H251110   4.875   2.287  12.641  0.0798 -0.4147  1.3814
 9899TIP3   OH251111   1.106   4.109   6.380  0.4042 -0.3503 -0.4897
 9899TIP3    H151112   1.072   4.196   6.403  0.9057  0.2870 -2.0603
 9899TIP3    H251113   1.193   4.106   6.420 -1.0713 -1.6460  2.7986
 9900TIP3   OH251114   2.498   5.765  14.800  0.0576 -0.0100 -0.0433
 9900TIP3    H151115   2.436   5.774  14.727  1.0564 -0.4984 -0.9628
 9900TIP3    H251116   2.557   5.839  14.789 -0.5531  0.6548  1.0415
 9901TIP3   OH251117   4.035   0.219   6.188 -0.5272 -0.3720 -0.0073
 9901TIP3    H151118   4.005   0.183   6.272 -0.9459 -2.4612 -1.0301
 9901TIP3    H251119   3.965   0.278   6.161 -0.3308  0.4185  1.1696
 9902TIP3   OH251120   4.121   5.597  12.986  0.1694 -0.2938 -0.1406
 9902TIP3    H151121   4.073   5.623  12.907  0.6664 -0.4743 -0.5009
 9902TIP3    H251122   4.142   5.680  13.030  0.9074 -0.1344 -0.7914
 9903TIP3   OH251123   6.510   6.337  13.193 -0.3690  0.0342  0.3069
 9903TIP3    H151124   6.489   6.328  13.100 -0.5923 -1.5505  0.4855
 9903TIP3    H251125   6.604   6.353  13.196 -0.3933  0.2622 -0.2031
 9904TIP3   OH251126   0.195   1.860  12.813 -0.2700 -0.1102  0.0272
 9904TIP3    H151127   0.265   1.905  12.860 -1.4136  2.3482 -0.5095
 9904TIP3    H251128   0.238   1.820  12.738  0.6079  1.2344 -0.2023
 9905TIP3   OH251129   3.388   3.702  13.022  0.3052  0.4065  0.8408
 9905TIP3    H151130   3.365   3.666  12.936  0.6240 -1.8908  1.6896
 9905TIP3    H251131   3.484   3.697  13.025  0.3374  1.0949  1.0756
 9906TIP3   OH251132   5.594   4.818  17.104 -0.1406 -0.4971 -0.4859
 9906TIP3    H151133   5.565   4.740  17.057 -0.3973 -0.5880 -0.1842
 9906TIP3    H251134   5.562   4.891  17.051 -2.1182 -0.5889  0.5326
 9907TIP3   OH251135   5.652   0.446  11.155  0.4052  0.1494 -0.0628
 9907TIP3    H151136   5.683   0.537  11.159 -0.6138  0.4768  0.5657
 9907TIP3    H251137   5.716   0.402  11.099  2.1055  0.7712  1.3126
 9908TIP3   OH251138   4.781   1.524   1.285 -0.3951 -0.1433  0.0284
 9908TIP3    H151139   4.756   1.455   1.224  0.1516  0.2568 -0.6626
 9908TIP3    H251140   4.818   1.593   1.229 -1.0788  0.7733  0.6944
 9909TIP3   OH251141   4.362   0.938   5.051 -0.7123 -0.0748 -0.1592
 9909TIP3    H151142   4.328   1.023   5.080 -0.5489  0.0276 -0.2629
 9909TIP3    H251143   4.456   0.953   5.039 -0.5199 -0.5456  0.7846
 9910TIP3   OH251144   4.995   1.289   3.251  0.0833 -0.5304 -0.0623
 9910TIP3    H151145   5.022   1.204   3.217  1.8919  0.4635 -1.1523
 9910TIP3    H251146   4.948   1.269   3.332  1.3275 -2.5024  0.1879
 9911TIP3   OH251147   0.526   0.636   2.811 -0.0170  0.0023 -0.0733
 9911TIP3    H151148   0.440   0.609   2.779 -0.6686 -0.3667  1.9023
 9911TIP3    H251149   0.508   0.717   2.860  0.7440 -0.0869  0.3562
 9912TIP3   OH251150   3.881   0.267   1.303 -0.5250 -0.2033 -0.1861
 9912TIP3    H151151   3.886   0.254   1.397 -0.4826  1.0897 -0.0076
 9912TIP3    H251152   3.958   0.319   1.281 -1.6233  1.2778 -0.6145
 9913TIP3   OH251153   2.847   5.544  14.161 -0.1629  0.0510 -0.5756
 9913TIP3    H151154   2.866   5.484  14.233  0.1274 -0.7120 -1.2703
 9913TIP3    H251155   2.773   5.596  14.191  1.1508  1.0357  1.0168
 9914TIP3   OH251156   4.846   0.325   4.589  0.0039  0.2934 -0.2852
 9914TIP3    H151157   4.926   0.278   4.568 -0.4098 -0.2002 -0.7651
 9914TIP3    H251158   4.874   0.394   4.650  0.6413 -0.4154  0.2311
 9915TIP3   OH251159   0.446   4.189   4.991  0.0371 -0.0188 -0.2449
 9915TIP3    H151160   0.538   4.196   4.967 -0.4314  1.4662 -1.6592
 9915TIP3    H251161   0.419   4.103   4.959  0.6337  0.0180 -0.8565
 9916TIP3   OH251162   1.936   3.063  12.849  0.2498 -0.8941  0.0927
 9916TIP3    H151163   1.920   3.146  12.896 -0.4885 -1.8239  1.5149
 9916TIP3    H251164   2.025   3.038  12.875 -0.0632 -1.2779  0.7982
 9917TIP3   OH251165   3.982   1.000  16.426  0.3056  0.0260 -0.2383
 9917TIP3    H151166   3.901   0.975  16.381  0.2561  0.6328 -0.5008
 9917TIP3    H251167   3.955   1.068  16.487  0.5665  0.0229 -0.1210
 9918TIP3   OH251168   1.222   6.015  16.142  0.2642  0.0860 -0.5019
 9918TIP3    H151169   1.215   6.108  16.121 -1.2077 -0.0086 -0.4919
 9918TIP3    H251170   1.300   5.986  16.094  0.5787  1.2522 -0.7341
 9919TIP3   OH251171   4.239   4.550  10.866  0.7048  0.1143  0.2740
 9919TIP3    H151172   4.309   4.554  10.931  1.9543 -1.9241 -0.9084
 9919TIP3    H251173   4.203   4.639  10.864  0.0565  0.0874  4.3416
 9920TIP3   OH251174   5.738   2.711  17.006  0.3798  0.3286  0.1181
 9920TIP3    H151175   5.820   2.715  16.957  0.8325  0.7542  0.8954
 9920TIP3    H251176   5.761   2.740  17.094  0.1191 -2.7274  1.2862
 9921TIP3   OH251177   2.549   0.004  12.507 -0.3917  0.2110  0.2067
 9921TIP3    H151178   2.514   0.051  12.432  1.3835  1.3703  0.0582
 9921TIP3    H251179   2.644   0.010  12.496 -0.1287 -1.2299  1.5465
 9922TIP3   OH251180   5.925   3.541   1.331 -0.8642  0.0245 -0.5597
 9922TIP3    H151181   5.972   3.516   1.251 -1.6538 -0.4473 -0.8764
 9922TIP3    H251182   5.845   3.488   1.330 -0.8248 -0.0567  0.6027
 9923TIP3   OH251183   4.041   1.518  15.604  0.1788  0.3225  0.1593
 9923TIP3    H151184   4.135   1.502  15.601  0.3191  0.7270  1.6593
 9923TIP3    H251185   4.006   1.442  15.652 -0.2571  0.1707 -0.4010
 9924TIP3   OH251186   3.299   2.430  15.782 -0.6927  0.5126 -0.2017
 9924TIP3    H151187   3.306   2.456  15.690  1.2664  0.4731 -0.0965
 9924TIP3    H251188   3.282   2.336  15.780  1.0354  0.1805 -0.5462
 9925TIP3   OH251189   3.317   2.245  13.261 -0.1596 -0.7560 -0.9076
 9925TIP3    H151190   3.284   2.278  13.344 -4.3643 -3.9249 -1.1471
 9925TIP3    H251191   3.388   2.185  13.286 -1.2941 -1.5800  0.4632
 9926TIP3   OH251192   6.038   1.426   2.472 -0.0213 -0.2830 -0.3019
 9926TIP3    H151193   6.058   1.489   2.542 -0.6698  0.2249 -0.5613
 9926TIP3    H251194   6.039   1.341   2.516  2.6992 -0.2889 -0.3312
 9927TIP3   OH251195   2.772   0.540   1.670  0.0945 -1.5872  0.1443
 9927TIP3    H151196   2.702   0.579   1.617  0.1923  0.5159  1.5364
 9927TIP3    H251197   2.731   0.463   1.710 -0.2730 -2.6201 -2.1135
 9928TIP3   OH251198   6.149   0.228   4.463 -0.1536  0.0596  0.0388
 9928TIP3    H151199   6.081   0.162   4.466 -0.4237  0.3777  1.2213
 9928TIP3    H251200   6.165   0.251   4.555  2.8806 -1.3635 -0.0757
 9929TIP3   OH251201   3.262   2.808   2.247 -0.1708  0.0176 -0.4092
 9929TIP3    H151202   3.331   2.827   2.311 -0.4112 -0.8080  0.1077
 9929TIP3    H251203   3.235   2.893   2.215 -0.1657  0.4553  0.7304
 9930TIP3   OH251204   3.383   5.814  16.637  0.3167 -0.3521 -0.1184
 9930TIP3    H151205   3.326   5.841  16.708  1.6150  0.2134  0.7170
 9930TIP3    H251206   3.472   5.819  16.673  1.0157  0.2008 -1.8485
 9931TIP3   OH251207   3.488   0.508   3.867  0.2675  0.2092  0.1099
 9931TIP3    H151208   3.436   0.575   3.824 -1.7470 -1.2082  0.2485
 9931TIP3    H251209   3.438   0.484   3.945  0.4305 -2.1397 -0.4636
 9932TIP3   OH251210   5.677   0.982   5.760  0.3186  0.1298 -0.6490
 9932TIP3    H151211   5.652   1.064   5.719  0.0458  0.0138 -0.7117
 9932TIP3    H251212   5.616   0.970   5.832  0.6911  0.2473 -0.3117
 9933TIP3   OH251213   0.609   0.398   0.978 -0.3510 -0.3367 -0.0545
 9933TIP3    H151214   0.611   0.451   1.058  0.5444 -0.8971  0.3079
 9933TIP3    H251215   0.674   0.329   0.994 -1.2576 -1.3501 -0.6427
 9934TIP3   OH251216   4.090   3.433  11.487 -0.1385  0.0742  0.3628
 9934TIP3    H151217   4.182   3.459  11.495 -0.4227  1.0206  0.6866
 9934TIP3    H251218   4.083   3.355  11.542  0.2799  0.5310  1.0881
 9935TIP3   OH251219   2.136   6.256  16.112 -0.2118 -0.2493  0.0935
 9935TIP3    H151220   2.195   6.252  16.188 -1.2574  0.7463  0.9731
 9935TIP3    H251221   2.065   6.313  16.140 -1.8267 -1.7641 -0.7984
 9936TIP3   OH251222   3.808   5.965  11.627 -0.1213  0.3040  0.1865
 9936TIP3    H151223   3.786   5.941  11.536 -0.3492 -1.2325  0.6250
 9936TIP3    H251224   3.814   6.060  11.626 -0.7191  0.3446 -1.3188
 9937TIP3   OH251225   3.058   1.143  16.578  0.3919  1.0107  0.2853
 9937TIP3    H151226   3.136   1.131  16.525 -1.1978  3.1156 -2.6300
 9937TIP3    H251227   3.074   1.223  16.628  0.0289  1.5852 -0.5056
 9938TIP3   OH251228   4.335   2.642  11.643  0.3886 -0.2434 -0.5326
 9938TIP3    H151229   4.407   2.691  11.682 -0.1645 -1.2416  1.8654
 9938TIP3    H251230   4.352   2.644  11.549  4.8493 -2.4053  0.0759
 9939TIP3   OH251231   6.099   4.724  16.794 -0.1140 -0.3235  0.4261
 9939TIP3    H151232   6.143   4.640  16.780  0.3268 -0.0072 -0.0992
 9939TIP3    H251233   6.008   4.709  16.767  0.1670 -0.3911 -0.4831
 9940TIP3   OH251234   4.413   0.546  16.304  0.2109 -0.3263 -0.1112
 9940TIP3    H151235   4.425   0.499  16.222  0.3720 -2.4510  1.0979
 9940TIP3    H251236   4.423   0.479  16.372 -0.6546  1.2495  1.6127
 9941TIP3   OH251237   1.122   2.225  13.954 -0.3299 -0.2597 -0.5703
 9941TIP3    H151238   1.103   2.157  13.889  1.1974  1.2348 -2.6580
 9941TIP3    H251239   1.164   2.295  13.903  0.4956  1.1384  1.9720
 9942TIP3   OH251240   3.670   2.352  14.447 -0.4137  0.0577  0.3547
 9942TIP3    H151241   3.701   2.308  14.526  0.4251  0.0869  0.0513
 9942TIP3    H251242   3.747   2.397  14.413 -0.1423 -1.8607 -1.7424
 9943TIP3   OH251243   2.406   2.166   0.827 -0.0362 -0.3303  0.4458
 9943TIP3    H151244   2.379   2.193   0.739  0.7511 -1.7915 -0.2775
 9943TIP3    H251245   2.333   2.113   0.859 -1.2249  1.8785  1.5381
 9944TIP3   OH251246   5.152   6.276  15.010  0.5485 -0.1222 -0.3459
 9944TIP3    H151247   5.117   6.360  15.041 -2.9789 -1.8339  0.5304
 9944TIP3    H251248   5.241   6.273  15.044  0.7715  3.2775 -0.4248
 9945TIP3   OH251249   0.731   6.208   4.651  0.3853  0.1500 -0.0027
 9945TIP3    H151250   0.765   6.197   4.562  1.7614 -1.3470  0.6940
 9945TIP3    H251251   0.794   6.163   4.707 -2.1170 -1.7142  1.4389
 9946TIP3   OH251252   1.807   3.981   0.387  0.0138  0.3707  0.1730
 9946TIP3    H151253   1.760   4.013   0.310 -1.4160  0.5251  1.0935
 9946TIP3    H251254   1.853   4.059   0.420 -2.3742  1.2206  1.6193
 9947TIP3   OH251255   3.545   1.565   4.381  0.0981  0.1465  0.0986
 9947TIP3    H151256   3.500   1.566   4.466  1.9040  2.7601  1.0867
 9947TIP3    H251257   3.633   1.533   4.401  0.6223  1.0564 -0.7031
 9948TIP3   OH251258   0.454   4.506  14.005  0.2535  0.3613  0.6499
 9948TIP3    H151259   0.505   4.425  14.000  0.5529  0.6162 -0.6319
 9948TIP3    H251260   0.447   4.524  14.099  0.4877 -0.9531  0.9287
 9949TIP3   OH251261   2.846   2.626   4.329 -0.5517 -0.1463  0.1994
 9949TIP3    H151262   2.899   2.689   4.280  0.2600  0.3693  1.7111
 9949TIP3    H251263   2.768   2.675   4.355  0.1193  0.2846  1.4489
 9950TIP3   OH251264   6.645   6.315  10.299 -0.2050 -0.1337 -0.3208
 9950TIP3    H151265   6.721   6.297  10.244 -0.3748  1.1673 -1.0018
 9950TIP3    H251266   6.682   6.332  10.386  0.3670  1.1963 -0.8039
 9951TIP3   OH251267   3.867   0.600   3.698  0.4448 -0.0585 -0.0447
 9951TIP3    H151268   3.850   0.659   3.772 -0.3285 -0.3067 -0.0213
 9951TIP3    H251269   3.791   0.609   3.642  0.5183 -0.7202 -0.2554
 9952TIP3   OH251270   2.652   0.348  15.090 -0.2340 -0.0548  0.8239
 9952TIP3    H151271   2.728   0.393  15.126  0.5175 -1.6670  1.3240
 9952TIP3    H251272   2.675   0.255  15.094 -0.6804 -0.3727 -2.5869
 9953TIP3   OH251273   4.471   3.316  16.837 -0.2537  0.2544 -0.1665
 9953TIP3    H151274   4.546   3.262  16.861 -0.5692  0.7155  1.9768
 9953TIP3    H251275   4.399   3.281  16.890 -1.0499  1.1923 -0.6080
 9954TIP3   OH251276   6.433   2.700  11.239 -0.6147 -0.6716  0.2971
 9954TIP3    H151277   6.391   2.628  11.285  1.5274 -1.8650  0.4849
 9954TIP3    H251278   6.518   2.710  11.283  0.2216  0.1597 -1.4520
 9955TIP3   OH251279   3.540   6.417   2.120  0.0045 -0.3705 -0.0291
 9955TIP3    H151280   3.464   6.450   2.073 -0.1072 -1.6992 -0.7987
 9955TIP3    H251281   3.606   6.402   2.052 -0.0065 -1.8914  0.2935
 9956TIP3   OH251282   1.426   4.533   1.769 -0.4473 -0.3609  0.1688
 9956TIP3    H151283   1.417   4.564   1.859 -1.8550  0.2716 -0.1806
 9956TIP3    H251284   1.356   4.469   1.758 -2.0266  1.5395 -1.2853
 9957TIP3   OH251285   1.239   2.767  11.149 -0.2471  0.4809 -0.4282
 9957TIP3    H151286   1.211   2.859  11.150  1.1958  0.9220  0.3094
 9957TIP3    H251287   1.324   2.768  11.106  0.5400 -0.2778  1.0751
 9958TIP3   OH251288   4.350   0.647  13.485  0.5032 -0.0485 -0.0899
 9958TIP3    H151289   4.383   0.563  13.454  1.0796  0.2292 -0.2387
 9958TIP3    H251290   4.406   0.669  13.559  0.4733  0.2915 -0.1702
 9959TIP3   OH251291   5.300   3.653  15.079 -0.2162 -0.2586  0.0119
 9959TIP3    H151292   5.380   3.702  15.099 -0.4949  0.1354  0.1578
 9959TIP3    H251293   5.229   3.710  15.107 -0.5865 -0.1562 -1.0864
 9960TIP3   OH251294   1.331   2.673   1.903  0.3083  0.1609  0.3717
 9960TIP3    H151295   1.327   2.681   1.808 -0.0914 -0.5700  0.3203
 9960TIP3    H251296   1.423   2.657   1.922  0.1344 -1.4904 -0.0558
 9961TIP3   OH251297   4.541   4.836   5.592  0.4416 -0.2006  0.2151
 9961TIP3    H151298   4.618   4.848   5.647  0.8309  1.8815 -0.7503
 9961TIP3    H251299   4.531   4.919   5.545 -1.8400 -0.7551 -0.3682
 9962TIP3   OH251300   6.705   1.498   1.424 -0.1226 -0.3487  0.0274
 9962TIP3    H151301   6.633   1.558   1.439  0.2054  0.2769 -0.8314
 9962TIP3    H251302   6.686   1.458   1.339  0.8398  0.2746 -0.4988
 9963TIP3   OH251303   1.603   2.531   0.774 -0.5060 -0.2253 -0.1937
 9963TIP3    H151304   1.583   2.515   0.682  0.9773  0.8055 -0.7066
 9963TIP3    H251305   1.677   2.472   0.793  0.2104  0.6937 -0.0978
 9964TIP3   OH251306   2.152   0.086   4.672  0.2375  0.0196 -0.6891
 9964TIP3    H151307   2.146  -0.007   4.650  0.1236 -0.2152  0.3130
 9964TIP3    H251308   2.197   0.125   4.597  1.7860 -1.1078 -0.3740
 9965TIP3   OH251309   3.264   2.672   5.217  0.4852  0.0256  0.1245
 9965TIP3    H151310   3.171   2.686   5.204  0.2866 -0.4746  0.9197
 9965TIP3    H251311   3.298   2.652   5.130  0.1135  1.6195 -0.3960
 9966TIP3   OH251312   0.376   2.353  13.148  0.1636  0.1934 -0.0827
 9966TIP3    H151313   0.309   2.300  13.105  0.8917 -0.1043 -0.8585
 9966TIP3    H251314   0.328   2.404  13.213 -0.4580 -1.9144  1.1588
 9967TIP3   OH251315   0.990   5.469   0.473  0.0817 -0.0908 -0.5906
 9967TIP3    H151316   1.064   5.414   0.500  0.6489  0.8999 -0.1196
 9967TIP3    H251317   0.998   5.475   0.378  1.5935  1.4179 -0.3736
 9968TIP3   OH251318   2.685   5.867  16.195  0.5209 -0.5179  0.2609
 9968TIP3    H151319   2.667   5.896  16.106  2.7102 -1.9057 -0.6624
 9968TIP3    H251320   2.705   5.948  16.243  0.2698  0.1299 -0.7166
 9969TIP3   OH251321   4.297   3.446   1.063 -0.1620 -0.4550  0.6815
 9969TIP3    H151322   4.241   3.518   1.093 -2.3841 -1.5958 -0.5428
 9969TIP3    H251323   4.267   3.370   1.114  3.7430 -0.1366  3.7026
 9970TIP3   OH251324   2.701   0.389  15.552  0.6773  0.0217 -0.5656
 9970TIP3    H151325   2.788   0.391  15.513  0.4380  1.4821 -1.0822
 9970TIP3    H251326   2.672   0.298  15.544  1.7835 -0.2763 -1.2194
 9971TIP3   OH251327   4.401   6.295  12.715 -0.7711 -0.8057 -0.1577
 9971TIP3    H151328   4.344   6.367  12.686  0.3995  0.4515  0.6325
 9971TIP3    H251329   4.388   6.291  12.810  1.6528  0.5643  0.2660
 9972TIP3   OH251330   1.071   0.177  12.522  0.1639 -0.0798 -0.1225
 9972TIP3    H151331   1.132   0.173  12.448 -0.1657 -1.3125 -0.3522
 9972TIP3    H251332   1.108   0.115  12.586 -0.5818 -0.4692 -0.0664
 9973TIP3   OH251333   3.915   3.873   0.310  0.3420 -0.0385  0.1882
 9973TIP3    H151334   3.842   3.839   0.361  1.5201 -1.1422  1.1608
 9973TIP3    H251335   3.920   3.815   0.234 -0.2167  0.4453 -0.2165
 9974TIP3   OH251336   4.602   1.720  14.428 -0.4324  0.1603  0.4226
 9974TIP3    H151337   4.644   1.751  14.348 -1.0856 -0.3112 -0.1094
 9974TIP3    H251338   4.669   1.730  14.495 -0.2078  1.5248  0.0247
 9975TIP3   OH251339   0.974   2.718   5.682 -0.4803 -0.1079 -0.1699
 9975TIP3    H151340   0.952   2.803   5.722 -1.0541 -0.8219  1.0504
 9975TIP3    H251341   0.890   2.674   5.670 -0.0881 -0.9834  0.2846
 9976TIP3   OH251342   3.611   0.393   4.266 -0.2408 -0.0377 -0.8350
 9976TIP3    H151343   3.585   0.302   4.257  0.7395 -0.4558  0.4466
 9976TIP3    H251344   3.707   0.392   4.262 -0.1088  0.6558  1.3425
 9977TIP3   OH251345   2.634   6.114  15.257 -0.3919 -0.2720 -0.0169
 9977TIP3    H151346   2.546   6.117  15.218 -1.0189 -0.2660  1.3604
 9977TIP3    H251347   2.627   6.168  15.335  0.1641 -2.3123  1.4672
 9978TIP3   OH251348   0.620   5.102   4.777 -0.4756  0.2069  0.2701
 9978TIP3    H151349   0.692   5.140   4.728 -1.0297  0.8455 -0.0578
 9978TIP3    H251350   0.559   5.071   4.710 -0.6202 -0.1209  0.5469
 9979TIP3   OH251351   1.551   1.041  15.044 -0.1538  0.2907 -0.2541
 9979TIP3    H151352   1.633   1.072  15.083  0.6365 -0.3692 -1.3753
 9979TIP3    H251353   1.557   1.067  14.952 -2.8352  3.5688  0.3757
 9980TIP3   OH251354   1.238   3.235  12.469  0.1950 -0.2275  0.4772
 9980TIP3    H151355   1.312   3.296  12.466 -0.6060  0.7202 -0.7449
 9980TIP3    H251356   1.240   3.191  12.384 -2.1309  1.6474 -0.6116
 9981TIP3   OH251357   0.892   5.882   5.370  0.1573 -0.2679  0.2385
 9981TIP3    H151358   0.936   5.824   5.307 -1.8483  1.8609 -3.3158
 9981TIP3    H251359   0.945   5.962   5.370 -0.4756  0.1538  0.4167
 9982TIP3   OH251360   1.592   1.790  17.031  0.0795 -0.0100 -0.8651
 9982TIP3    H151361   1.516   1.809  16.976  1.9118 -1.9375 -4.3079
 9982TIP3    H251362   1.596   1.694  17.034  0.8790  0.0651  1.4620
 9983TIP3   OH251363   2.657   2.004  15.147  0.7496  0.3494  0.5183
 9983TIP3    H151364   2.583   2.061  15.166  0.1653 -0.4650  0.6839
 9983TIP3    H251365   2.718   2.020  15.219 -0.1349 -0.4540  1.4687
 9984TIP3   OH251366   3.740   5.142  14.049 -0.3485 -0.2238 -1.0622
 9984TIP3    H151367   3.650   5.124  14.079 -0.4765  0.6533 -0.9105
 9984TIP3    H251368   3.794   5.081  14.098 -0.6342  0.7151  0.4585
 9985TIP3   OH251369   1.726   4.285   4.132  0.5588 -0.1338  0.3306
 9985TIP3    H151370   1.649   4.339   4.146 -0.4879 -1.0304 -1.7754
 9985TIP3    H251371   1.799   4.340   4.159 -0.4425  2.4968 -2.0762
 9986TIP3   OH251372   3.107   0.779   4.214  0.2104  0.6477  0.3124
 9986TIP3    H151373   3.188   0.777   4.265  0.4424 -0.4167 -0.0864
 9986TIP3    H251374   3.105   0.867   4.177  1.5636  0.4602 -0.2665
 9987TIP3   OH251375   4.386   5.339   3.075  0.0060 -0.6416  0.6311
 9987TIP3    H151376   4.327   5.264   3.081  0.5349 -1.0711  0.5455
 9987TIP3    H251377   4.419   5.336   2.985 -1.8247  1.1183 -0.1367
 9988TIP3   OH251378   1.722   4.033  13.379  0.0549  0.6606  0.0231
 9988TIP3    H151379   1.717   3.997  13.291  0.7759  1.3004 -0.2801
 9988TIP3    H251380   1.805   4.000  13.414 -0.9360 -0.8586  1.0326
 9989TIP3   OH251381   0.900   6.423   0.678  0.1744  0.6232  0.4708
 9989TIP3    H151382   0.902   6.336   0.638  0.2530 -0.5335  2.9021
 9989TIP3    H251383   0.810   6.452   0.666 -0.3591 -0.6227  1.2906
 9990TIP3   OH251384   5.097   3.265  13.608  0.1548 -0.4336  0.3947
 9990TIP3    H151385   5.078   3.351  13.569  0.6571  0.4739  2.1178
 9990TIP3    H251386   5.193   3.261  13.611  0.1534 -1.3977 -0.3765
 9991TIP3   OH251387   0.268   1.789  17.105 -0.0183  0.0877  0.0013
 9991TIP3    H151388   0.178   1.758  17.113 -0.6421  2.0718  1.2087
 9991TIP3    H251389   0.264   1.855  17.035  0.4727  0.2936  0.1641
 9992TIP3   OH251390   4.654   5.889  14.632 -0.0529 -0.0220  0.3162
 9992TIP3    H151391   4.703   5.971  14.643  1.2113 -0.6345 -0.5744
 9992TIP3    H251392   4.708   5.837  14.572 -0.7886 -1.5529  0.9520
 9993TIP3   OH251393   6.207   5.267  14.812  0.0104 -0.1526  0.1446
 9993TIP3    H151394   6.289   5.257  14.764 -0.5673 -3.3464 -0.3008
 9993TIP3    H251395   6.229   5.245  14.902  0.0028  0.8202  0.3949
 9994TIP3   OH251396   3.417   6.669   6.001  0.0705  0.7397 -0.0620
 9994TIP3    H151397   3.458   6.744   6.045  0.0113  1.5409 -1.3720
 9994TIP3    H251398   3.335   6.702   5.967  0.9573  0.6100 -2.3891
 9995TIP3   OH251399   1.568   5.644  12.534  0.2380  0.2134 -0.3391
 9995TIP3    H151400   1.559   5.642  12.629 -0.0138  0.0400 -0.3634
 9995TIP3    H251401   1.619   5.723  12.515  1.5484 -0.5356  0.0360
 9996TIP3   OH251402   0.716   0.793  10.806  0.1645 -0.3857  0.1238
 9996TIP3    H151403   0.680   0.735  10.739  0.6028  0.2180 -0.6360
 9996TIP3    H251404   0.730   0.876  10.761 -1.5424  0.6827  1.4936
 9997TIP3   OH251405   4.764   3.778   1.288 -0.6114  0.7680 -0.1043
 9997TIP3    H151406   4.712   3.738   1.358 -2.1554  0.7510 -1.2557
 9997TIP3    H251407   4.762   3.714   1.217  2.8396 -0.2353  0.6045
 9998TIP3   OH251408   1.695   2.874   4.692  0.7563 -0.1305  0.7055
 9998TIP3    H151409   1.653   2.843   4.612  3.1585 -1.3321 -0.1021
 9998TIP3    H251410   1.632   2.852   4.762 -1.1354  0.5040 -0.7548
 9999TIP3   OH251411   1.345   3.185  16.079  1.3729  0.4250 -0.3246
 9999TIP3    H151412   1.333   3.212  16.170  1.5373 -1.2498  0.2095
 9999TIP3    H251413   1.380   3.263  16.035 -1.3107  2.1396  0.4121
10000TIP3   OH251414   2.488   4.768  15.005 -0.1341  0.1558  0.4790
10000TIP3    H151415   2.467   4.825  14.931 -0.0287 -1.2660 -0.6483
10000TIP3    H251416   2.409   4.715  15.018 -0.7055  1.3944  2.3352
10001TIP3   OH251417   6.364   4.605   6.062 -0.2651 -0.4704  0.3558
10001TIP3    H151418   6.334   4.541   5.997  0.2066 -2.5929  2.1696
10001TIP3    H251419   6.308   4.681   6.048 -0.5170 -1.0783 -2.1875
10002TIP3   OH251420   1.631   6.255   0.583 -0.2512  0.1404 -0.9259
10002TIP3    H151421   1.592   6.191   0.644 -1.0096  0.9860 -0.5044
10002TIP3    H251422   1.676   6.202   0.518 -2.9389 -0.9384 -1.9825
10003TIP3   OH251423   6.186   4.411  11.386 -0.4962 -0.6779  0.4106
10003TIP3    H151424   6.225   4.433  11.301  2.1589  1.9849  2.2208
10003TIP3    H251425   6.094   4.439  11.377 -0.4703 -1.1688 -1.8305
10004TIP3   OH251426   0.768   5.290   1.222 -0.4798 -0.5256 -0.2111
10004TIP3    H151427   0.783   5.210   1.272  1.8699  1.1629  1.9050
10004TIP3    H251428   0.675   5.287   1.198 -1.1934 -2.3127  2.5750
10005TIP3   OH251429   0.843   3.249   2.720 -0.2255  0.0434  0.7155
10005TIP3    H151430   0.831   3.280   2.630 -0.3158 -1.4011  0.2236
10005TIP3    H251431   0.769   3.287   2.768 -0.9646 -0.3300 -0.1195
10006TIP3   OH251432   6.526   5.051   0.818 -0.0711  0.2628 -0.4923
10006TIP3    H151433   6.486   5.137   0.806  0.2869  0.4488 -0.3892
10006TIP3    H251434   6.557   5.027   0.730  0.8715  0.7724 -0.3105
10007TIP3   OH251435   6.484   6.494  11.277 -0.0866  0.5618 -0.1572
10007TIP3    H151436   6.562   6.534  11.238  0.2309  0.1873  0.0878
10007TIP3    H251437   6.445   6.444  11.206  0.8791 -0.6935  0.1809
10008TIP3   OH251438   3.712   1.517   3.295  0.5142 -0.0747  0.4958
10008TIP3    H151439   3.732   1.602   3.335 -0.2352 -0.8519  2.6339
10008TIP3    H251440   3.619   1.503   3.316  0.1790 -0.6571 -1.3117
10009TIP3   OH251441   3.831   2.575  16.654 -0.2310  0.2579 -0.6001
10009TIP3    H151442   3.738   2.573  16.630  0.1700  1.3229 -2.3070
10009TIP3    H251443   3.878   2.579  16.570  1.3145  1.1115  0.2743
10010TIP3   OH251444   1.363   2.507  12.443 -0.4145  0.7029 -0.0821
10010TIP3    H151445   1.425   2.529  12.513 -0.4893  1.9130 -0.3792
10010TIP3    H251446   1.284   2.479  12.489  1.0600 -3.0581  0.2998
10011TIP3   OH251447   4.265   0.012   4.541 -0.3932 -0.7033 -0.1077
10011TIP3    H151448   4.344  -0.041   4.526 -0.2638 -1.1139  1.9302
10011TIP3    H251449   4.298   0.097   4.569 -0.6878 -1.2296  1.8604
10012TIP3   OH251450   5.021   3.888   1.987  0.1211  0.1363 -0.6709
10012TIP3    H151451   5.006   3.965   1.931  1.2418 -0.0732 -1.2721
10012TIP3    H251452   5.081   3.833   1.936  0.5271 -0.4254  0.4070
10013TIP3   OH251453   3.541   5.906   4.074 -0.1965  0.6895  0.4763
10013TIP3    H151454   3.619   5.930   4.023  0.0963 -2.1285 -0.4879
10013TIP3    H251455   3.472   5.898   4.008  0.1852 -2.9955  0.4444
10014TIP3   OH251456   5.063   0.164  15.295  0.2538 -0.0831  0.5215
10014TIP3    H151457   5.125   0.108  15.248  1.8337  1.1417  1.0719
10014TIP3    H251458   5.065   0.131  15.385  0.2524  0.0645  0.5760
10015TIP3   OH251459   2.015   4.551   2.313 -0.1471  0.0051 -0.1129
10015TIP3    H151460   1.938   4.602   2.288  0.8783  0.4571 -2.5061
10015TIP3    H251461   2.054   4.525   2.230  1.7354 -1.0761  1.0757
10016TIP3   OH251462   3.493   3.766  16.064  0.2331 -0.1576  0.0164
10016TIP3    H151463   3.423   3.747  16.127  2.0213 -1.6374  1.5996
10016TIP3    H251464   3.536   3.843  16.099 -0.8587  1.0486 -1.2187
10017TIP3   OH251465   4.465   2.358  13.104  0.5387 -0.1664  0.0791
10017TIP3    H151466   4.475   2.442  13.059 -0.7250 -0.1410 -0.1824
10017TIP3    H251467   4.385   2.321  13.067 -1.5013  0.6352  3.4402
10018TIP3   OH251468   3.393   5.901  13.528  0.3136 -0.2003  0.2249
10018TIP3    H151469   3.434   5.974  13.573 -0.4174  0.7484 -0.6371
10018TIP3    H251470   3.466   5.845  13.502  0.9033  0.4274  0.5289
10019TIP3   OH251471   3.438   2.807  15.721 -0.4142  0.4529 -0.3618
10019TIP3    H151472   3.471   2.728  15.678 -2.4324 -1.0319  0.7322
10019TIP3    H251473   3.387   2.851  15.653  0.4290  0.6395 -0.8797
10020TIP3   OH251474   5.085   5.839  15.757 -0.0591 -0.3626  0.9421
10020TIP3    H151475   5.090   5.877  15.845  0.3798 -1.0428  1.2216
10020TIP3    H251476   5.169   5.793  15.746 -0.5617 -1.2260  0.6192
10021TIP3   OH251477   0.952   3.504   4.454 -0.5769  0.0306 -0.5125
10021TIP3    H151478   1.046   3.492   4.466  0.1127  3.3152 -2.0873
10021TIP3    H251479   0.919   3.524   4.541  0.5988  1.3006 -0.3487
10022TIP3   OH251480   1.279   3.219  17.062  0.3388 -0.5235 -0.7147
10022TIP3    H151481   1.281   3.308  17.028  1.4732 -0.5730 -0.7992
10022TIP3    H251482   1.363   3.208  17.106  0.4754 -1.7676 -1.2688
10023TIP3   OH251483   3.613   3.600  14.193 -0.2633 -0.3506  0.1103
10023TIP3    H151484   3.702   3.616  14.161 -0.9717  0.5259 -1.4706
10023TIP3    H251485   3.616   3.623  14.286  1.4036 -1.2739  0.2954
10024TIP3   OH251486   0.142   5.026  12.262 -0.1923  0.6722 -0.1969
10024TIP3    H151487   0.201   4.955  12.236  0.6783  0.1923  2.8325
10024TIP3    H251488   0.078   4.983  12.319 -0.9965  1.9516 -0.1203
10025TIP3   OH251489   4.222   6.495  15.583 -0.0436  0.1605 -0.0877
10025TIP3    H151490   4.199   6.569  15.527 -0.4271  0.5739  0.6075
10025TIP3    H251491   4.171   6.509  15.663 -0.3575 -1.0190 -0.0710
10026TIP3   OH251492   2.813   4.531  12.557 -0.0780  0.2825  0.2068
10026TIP3    H151493   2.896   4.516  12.602  0.1369  2.7819  0.6936
10026TIP3    H251494   2.778   4.443  12.543  3.1719 -0.9176 -1.0441
10027TIP3   OH251495   0.617   5.459  15.700 -0.3621 -0.2656  0.1395
10027TIP3    H151496   0.701   5.447  15.657  0.4860  2.0220  1.0916
10027TIP3    H251497   0.562   5.389  15.665  1.7408 -1.4257 -0.9459
10028TIP3   OH251498   3.679   5.377  11.929 -0.0735  0.4737  0.1175
10028TIP3    H151499   3.771   5.352  11.921  0.2469  1.1825  1.5316
10028TIP3    H251500   3.656   5.413  11.843  0.8761  0.0132 -0.3274
10029TIP3   OH251501   1.846   1.733   5.276  0.3652  0.3401  0.0887
10029TIP3    H151502   1.800   1.698   5.200  0.9111  0.4905 -0.3137
10029TIP3    H251503   1.784   1.724   5.348  0.2702 -0.8849 -0.1389
10030TIP3   OH251504   4.433   4.570  14.373 -0.9757 -0.0632 -0.0163
10030TIP3    H151505   4.417   4.644  14.431  1.4183  0.5316 -0.0409
10030TIP3    H251506   4.464   4.610  14.292 -1.1098 -1.0407 -0.5604
10031TIP3   OH251507   1.962   3.176   2.681  0.2104 -0.1480  0.2034
10031TIP3    H151508   1.908   3.229   2.740  0.5898  1.4879 -0.8860
10031TIP3    H251509   1.935   3.086   2.698 -3.7849  0.6926 -1.2299
10032TIP3   OH251510   1.298   4.407  13.719  0.4277 -0.1416 -0.0675
10032TIP3    H151511   1.239   4.481  13.708 -1.5816 -1.3701  2.0837
10032TIP3    H251512   1.329   4.413  13.809 -0.3570 -2.2914  0.3855
10033TIP3   OH251513   4.202   3.283  11.695 -0.5529 -0.1552  0.2811
10033TIP3    H151514   4.182   3.310  11.784  0.2628  0.0614  0.4027
10033TIP3    H251515   4.263   3.210  11.704 -2.0710 -1.4986 -0.0651
10034TIP3   OH251516   1.934   6.355  13.776 -0.1477 -0.5894 -0.6591
10034TIP3    H151517   1.933   6.294  13.702  1.7999  0.8425 -1.9200
10034TIP3    H251518   2.010   6.327  13.828  1.1948  1.1463 -1.6251
10035TIP3   OH251519   4.579   0.752   5.325 -0.3040  0.1110  0.0553
10035TIP3    H151520   4.607   0.690   5.391 -0.3359 -0.9084 -0.8805
10035TIP3    H251521   4.526   0.816   5.373  2.8815  1.6173  1.6989
10036TIP3   OH251522   3.269   2.285   5.612  1.0485  0.6226  0.5066
10036TIP3    H151523   3.347   2.305   5.665  0.1964 -0.3952  2.1896
10036TIP3    H251524   3.195   2.314   5.665  0.2720  1.8272 -1.2044
10037TIP3   OH251525   2.761   4.602  13.694  0.2232 -0.0619 -0.1838
10037TIP3    H151526   2.823   4.662  13.736  0.4133 -1.1383  1.1237
10037TIP3    H251527   2.815   4.529  13.664 -0.4546 -1.2989  1.5073
10038TIP3   OH251528   6.772   3.537  14.295  0.4731  0.0944 -0.0343
10038TIP3    H151529   6.690   3.577  14.265  0.8146  1.0789  0.3264
10038TIP3    H251530   6.797   3.477  14.225  0.6081  1.4467 -1.1625
10039TIP3   OH251531   4.841   3.867  13.996  0.2196  0.0398  0.4246
10039TIP3    H151532   4.869   3.945  14.044  1.1386 -0.3128  0.4702
10039TIP3    H251533   4.875   3.794  14.047 -0.8629 -0.4003  0.5173
10040TIP3   OH251534   5.484   3.241   1.386  0.4409  0.2167 -0.5158
10040TIP3    H151535   5.565   3.190   1.385 -0.0132 -0.5425  0.7016
10040TIP3    H251536   5.487   3.288   1.470 -0.8203 -0.5331 -0.0443
10041TIP3   OH251537   3.358   6.583  15.635  0.5464  0.4267 -0.0692
10041TIP3    H151538   3.391   6.575  15.724  1.8078 -0.5020 -0.6097
10041TIP3    H251539   3.414   6.526  15.583 -0.0479  1.1112 -1.4951
10042TIP3   OH251540   2.970   1.422   4.261 -0.1923 -0.0391 -0.0942
10042TIP3    H151541   2.981   1.455   4.172 -3.9801  1.4184 -0.0735
10042TIP3    H251542   2.951   1.500   4.313  1.4558 -0.9513  1.9553
10043TIP3   OH251543   0.853   6.398   3.562 -0.1939 -0.2373 -0.4501
10043TIP3    H151544   0.771   6.369   3.602  0.1706 -1.8241 -0.8337
10043TIP3    H251545   0.831   6.411   3.470 -0.1819  0.0493 -0.4142
10044TIP3   OH251546   3.812   4.783   2.329 -0.3406  0.8392 -0.8343
10044TIP3    H151547   3.766   4.862   2.356  0.1141  1.0439 -0.6520
10044TIP3    H251548   3.902   4.796   2.358 -0.6058 -0.4484  0.6888
10045TIP3   OH251549   3.036   4.686  16.537  0.1393 -0.4980  0.1553
10045TIP3    H151550   2.976   4.757  16.518  0.5216 -0.0131  0.7717
10045TIP3    H251551   3.103   4.724  16.593  1.1542 -0.9730 -0.7009
10046TIP3   OH251552   5.093   4.468  13.349 -0.3500 -0.2510 -0.3144
10046TIP3    H151553   5.013   4.520  13.346 -0.0965  0.1369 -0.3594
10046TIP3    H251554   5.087   4.419  13.431 -1.6912 -1.9325 -1.3850
10047TIP3   OH251555   3.815   5.166  15.632  0.0443 -0.0032 -0.4070
10047TIP3    H151556   3.798   5.187  15.724  2.2352  0.4044 -0.0566
10047TIP3    H251557   3.806   5.071  15.627 -1.3801  0.1053 -0.0819
10048TIP3   OH251558   1.896   2.588   4.253  0.0752  0.1097 -0.1470
10048TIP3    H151559   1.954   2.594   4.177 -0.9068  0.6663 -0.8604
10048TIP3    H251560   1.808   2.599   4.217 -0.5728 -1.8573  0.7665
10049TIP3   OH251561   4.338   1.417   4.115 -0.3346  0.2378  0.6850
10049TIP3    H151562   4.259   1.367   4.093 -0.2355  0.5071 -0.3233
10049TIP3    H251563   4.379   1.367   4.185 -0.5639 -0.7685  0.1180
10050TIP3   OH251564   5.377   2.873  10.413  0.3591  0.4875  0.0608
10050TIP3    H151565   5.420   2.905  10.492 -0.8262  0.4698  0.7155
10050TIP3    H251566   5.307   2.937  10.396 -0.4442 -0.4074 -0.0197
10051TIP3   OH251567   1.726   0.911  12.372  0.9613  0.0132 -0.7173
10051TIP3    H151568   1.793   0.876  12.314 -0.0005  1.6044 -2.8431
10051TIP3    H251569   1.656   0.846  12.370  1.6132 -0.7341  0.0249
10052TIP3   OH251570   6.071   1.860   4.748 -0.2808  0.4649 -0.4598
10052TIP3    H151571   6.151   1.901   4.717 -0.1411 -0.6207 -1.5740
10052TIP3    H251572   6.025   1.834   4.668 -0.2133 -1.8065  0.2046
10053TIP3   OH251573   3.572   6.634  15.406 -0.3591  0.4476  0.3205
10053TIP3    H151574   3.535   6.545  15.412  0.1649  0.3003  1.5102
10053TIP3    H251575   3.646   6.625  15.346  0.2043 -0.0966  1.0925
10054TIP3   OH251576   1.286   2.742  12.876  0.2549 -0.7836  0.0125
10054TIP3    H151577   1.241   2.660  12.856  1.0626 -1.8635  2.4279
10054TIP3    H251578   1.268   2.798  12.800  0.7979 -3.6219 -2.3235
10055TIP3   OH251579   1.209   5.666   6.443 -0.1539 -0.1645  0.1281
10055TIP3    H151580   1.243   5.722   6.512  0.1734  0.0421 -0.1966
10055TIP3    H251581   1.276   5.598   6.432 -0.5271 -0.5939  0.4885
10056TIP3   OH251582   0.010   5.564   2.640 -0.8211  0.0651  0.0418
10056TIP3    H151583   0.021   5.619   2.562  0.8506  1.8480  1.4782
10056TIP3    H251584  -0.084   5.558   2.652 -1.0451  2.8064 -0.0490
10057TIP3   OH251585   1.358   5.685   1.038 -0.3648 -0.2771 -0.4784
10057TIP3    H151586   1.414   5.671   0.962  0.7979  1.3937  0.0453
10057TIP3    H251587   1.344   5.597   1.074  2.1188 -0.6961 -0.4852
10058TIP3   OH251588   2.395   0.335  16.429 -0.1540  0.1994 -0.4741
10058TIP3    H151589   2.395   0.331  16.524  1.7574 -0.1565 -0.4799
10058TIP3    H251590   2.357   0.421  16.409  2.7236  1.8122  0.7083
10059TIP3   OH251591   0.106   6.398  11.394 -0.2873 -0.1076 -0.0789
10059TIP3    H151592   0.175   6.331  11.396  0.5728  0.7766  2.6754
10059TIP3    H251593   0.049   6.375  11.468 -1.7494  0.4292 -1.0190
10060TIP3   OH251594   1.719   5.032  12.459 -0.5658 -0.4779  0.1106
10060TIP3    H151595   1.813   5.019  12.465 -0.4602  0.0248 -0.3724
10060TIP3    H251596   1.688   4.958  12.407 -0.4760 -0.7848  0.4904
10061TIP3   OH251597   0.545   3.368  15.948 -0.3244  0.4945  0.3272
10061TIP3    H151598   0.541   3.282  15.991  0.0226  1.1401  1.6942
10061TIP3    H251599   0.562   3.429  16.020 -0.7902  1.7348 -0.6089
10062TIP3   OH251600   4.833   1.507  15.935  0.1246  0.6037  0.4650
10062TIP3    H151601   4.895   1.442  15.903  1.2008  2.5957 -1.6090
10062TIP3    H251602   4.752   1.489  15.887  0.1201  0.1665  0.6387
10063TIP3   OH251603   6.709   4.164   3.501  0.4815  0.5289  0.4733
10063TIP3    H151604   6.708   4.175   3.406 -1.3211  1.8033  0.6193
10063TIP3    H251605   6.744   4.246   3.535  0.8220  0.1976  0.9321
10064TIP3   OH251606   5.711   0.425   0.871 -0.5311 -0.6085  0.3226
10064TIP3    H151607   5.696   0.421   0.965  0.9560 -0.5650  0.5771
10064TIP3    H251608   5.804   0.447   0.863 -1.1155  1.4835 -1.1453
10065TIP3   OH251609   5.415   4.725   4.956 -0.3452  0.0164 -0.4321
10065TIP3    H151610   5.464   4.806   4.967 -4.0063  1.9551  3.2289
10065TIP3    H251611   5.476   4.656   4.984  1.5258  1.9320  0.3530
10066TIP3   OH251612   6.751   3.155  12.251 -0.0214 -0.0287 -0.7926
10066TIP3    H151613   6.780   3.214  12.181  0.0898 -1.1451 -1.7063
10066TIP3    H251614   6.716   3.079  12.205  0.5206 -0.9998  0.3649
10067TIP3   OH251615   3.172   5.089   2.731 -0.0032 -0.1356 -0.0670
10067TIP3    H151616   3.172   5.084   2.827  0.1397  0.7749 -0.0074
10067TIP3    H251617   3.237   5.024   2.704 -0.4482 -0.7927  0.4255
10068TIP3   OH251618   0.516   6.238  14.084 -0.2658  0.1358  0.5718
10068TIP3    H151619   0.457   6.308  14.058  0.9530  1.3493  1.0144
10068TIP3    H251620   0.560   6.212  14.003 -1.3903 -0.7727  0.2419
10069TIP3   OH251621   1.938   0.151  17.189 -1.0950  0.3891 -0.5643
10069TIP3    H151622   1.959   0.059  17.174 -0.1710 -0.0053  2.7020
10069TIP3    H251623   1.854   0.149  17.235 -1.5390  1.2573 -1.3129
10070TIP3   OH251624   5.514   6.756  12.694  0.1169 -0.0905  0.2145
10070TIP3    H151625   5.607   6.731  12.700  0.4919  1.7115  2.5466
10070TIP3    H251626   5.515   6.837  12.643 -0.1528  0.0647  0.4591
10071TIP3   OH251627   5.938   1.703  15.374 -0.0028 -0.4731  0.5044
10071TIP3    H151628   5.939   1.649  15.453  2.2602 -0.9788  0.1822
10071TIP3    H251629   5.907   1.643  15.305 -0.6638 -0.4233  0.7603
10072TIP3   OH251630   2.057   0.411  15.747 -0.0754 -0.3853  0.1622
10072TIP3    H151631   2.076   0.469  15.821 -1.9193  0.7751 -0.2297
10072TIP3    H251632   2.058   0.469  15.671 -2.8627 -0.6591 -0.1273
10073TIP3   OH251633   0.060   0.776   0.851 -0.4712  0.2739 -0.2316
10073TIP3    H151634   0.085   0.831   0.925 -2.3103 -1.4443  1.7626
10073TIP3    H251635  -0.034   0.760   0.865 -0.5287 -1.1972 -2.1744
10074TIP3   OH251636   3.381   5.591  16.476 -0.3960  0.3186 -0.2523
10074TIP3    H151637   3.457   5.556  16.523 -0.7163  0.2810  0.2424
10074TIP3    H251638   3.359   5.672  16.523 -2.2908 -1.0309  1.2481
10075TIP3   OH251639   4.650   3.821   0.618 -0.1880 -0.5148  0.3359
10075TIP3    H151640   4.660   3.773   0.700 -0.6505 -0.6296  0.3266
10075TIP3    H251641   4.643   3.913   0.645 -0.8246 -0.5960  0.4654
10076TIP3   OH251642   2.262   0.745  12.782 -0.1869  0.0686 -0.4506
10076TIP3    H151643   2.172   0.744  12.815 -0.8934  1.4155 -2.2793
10076TIP3    H251644   2.306   0.812  12.835 -0.4715  0.0015 -0.1251
10077TIP3   OH251645   4.266   3.821  13.430  0.3856  0.2119 -0.1062
10077TIP3    H151646   4.264   3.789  13.340 -1.1089  0.7877 -0.2965
10077TIP3    H251647   4.268   3.742  13.484 -0.8872 -0.1926 -0.6219
10078TIP3   OH251648   2.881   5.901   4.103  0.5939  1.0437  0.4336
10078TIP3    H151649   2.867   5.948   4.186  2.1655  1.8606  0.2557
10078TIP3    H251650   2.883   5.970   4.037 -1.1150  0.3508 -0.3709
10079TIP3   OH251651   4.640   2.685   0.570 -0.1588 -0.6862 -0.3110
10079TIP3    H151652   4.692   2.656   0.494 -1.2045 -1.0105 -0.9199
10079TIP3    H251653   4.551   2.653   0.551 -0.7262  0.4459  0.3883
10080TIP3   OH251654   2.368   5.676  16.779  0.1094  0.1072  0.2989
10080TIP3    H151655   2.310   5.600  16.781 -1.4680  1.2184 -1.3344
10080TIP3    H251656   2.319   5.744  16.825  1.1936  0.3611  1.0996
10081TIP3   OH251657   3.306   2.495  17.089  0.2563  0.0064  0.4570
10081TIP3    H151658   3.264   2.412  17.110  0.3050 -0.0024  0.5208
10081TIP3    H251659   3.397   2.484  17.116  0.1831  0.1992  0.7792
10082TIP3   OH251660   6.077   2.477   2.160  0.2978 -0.3842  0.4560
10082TIP3    H151661   6.013   2.548   2.165 -0.0262 -0.5390 -1.2990
10082TIP3    H251662   6.069   2.443   2.071  2.7066 -0.5173  0.2448
10083TIP3   OH251663   4.384   0.286   4.505  0.2459 -0.1576  0.0837
10083TIP3    H151664   4.467   0.326   4.529  0.0154  0.2088  0.2713
10083TIP3    H251665   4.343   0.347   4.445 -0.1252 -0.0845  0.4040
10084TIP3   OH251666   1.229   0.218  12.278 -0.4458  0.0771 -0.6694
10084TIP3    H151667   1.215   0.299  12.230 -0.5355 -0.5755 -1.7688
10084TIP3    H251668   1.318   0.190  12.253 -1.2320 -1.2997 -2.0707
10085TIP3   OH251669   2.141   3.801  15.335 -0.3010 -0.1970 -0.3577
10085TIP3    H151670   2.102   3.874  15.382 -0.2613  0.8421 -1.9075
10085TIP3    H251671   2.074   3.732  15.337 -1.0556  0.5274 -0.4569
10086TIP3   OH251672   5.882   0.241   0.637  0.6047  0.0339 -0.5089
10086TIP3    H151673   5.819   0.284   0.694  0.0755  0.9647 -1.7540
10086TIP3    H251674   5.926   0.177   0.692 -0.5682  0.2464  0.6801
10087TIP3   OH251675   2.082   0.806   0.710 -0.2409  0.6868  0.2332
10087TIP3    H151676   2.168   0.831   0.744 -0.1681  0.6097  0.1027
10087TIP3    H251677   2.077   0.847   0.624  0.2892 -0.5906 -0.4131
10088TIP3   OH251678   5.966   5.394   1.268 -0.5599 -0.8522  0.4473
10088TIP3    H151679   5.872   5.389   1.249 -0.5069  1.4188 -0.6048
10088TIP3    H251680   5.970   5.416   1.361 -1.0030 -2.7738  0.9480
10089TIP3   OH251681   5.313   0.053   2.211 -0.0116  0.2594 -0.3266
10089TIP3    H151682   5.397   0.009   2.193  0.2558  1.0156 -0.9567
10089TIP3    H251683   5.279   0.009   2.288  0.7034 -0.4362 -0.4030
10090TIP3   OH251684   0.970   1.285  17.181  0.2416 -0.3868  0.5521
10090TIP3    H151685   1.007   1.339  17.111 -0.1119 -2.4484 -1.3107
10090TIP3    H251686   1.044   1.268  17.239  1.1205 -0.5460 -0.5748
10091TIP3   OH251687   5.975   0.862  12.517 -0.3629  0.1702  0.1804
10091TIP3    H151688   6.050   0.919  12.533 -0.9001  0.9700 -0.0774
10091TIP3    H251689   5.899   0.914  12.545 -0.9381 -0.0573 -0.8937
10092TIP3   OH251690   5.095   2.355  15.542 -0.4139 -0.1612 -0.3906
10092TIP3    H151691   5.190   2.351  15.527 -0.2400 -0.3037  0.6753
10092TIP3    H251692   5.075   2.449  15.544 -0.0013 -0.0982  1.0979
10093TIP3   OH251693   0.464   0.061   0.310  0.9198 -0.4689 -0.4993
10093TIP3    H151694   0.547   0.106   0.328  0.5423  0.8342 -1.8651
10093TIP3    H251695   0.481   0.008   0.232  0.4912 -0.2414 -0.7512
10094TIP3   OH251696   1.377   4.600  15.943  0.0006  0.1315  0.3715
10094TIP3    H151697   1.315   4.526  15.933  0.9780 -0.8113  1.1704
10094TIP3    H251698   1.381   4.639  15.856 -1.2237 -0.1927  0.1481
10095TIP3   OH251699   2.634   0.902   4.400  0.2217  0.2222  0.4051
10095TIP3    H151700   2.717   0.922   4.359  0.1013  0.5198  0.3047
10095TIP3    H251701   2.571   0.959   4.356 -0.1727 -0.5583 -0.0640
10096TIP3   OH251702   5.125   1.455   4.440 -0.0357 -0.0712 -0.3740
10096TIP3    H151703   5.143   1.361   4.436  0.1490 -0.1167  1.1895
10096TIP3    H251704   5.193   1.495   4.385  0.1479 -0.8108 -0.6871
10097TIP3   OH251705   1.247   0.531   1.636  0.1368 -0.5328  0.2138
10097TIP3    H151706   1.206   0.461   1.585 -0.5181  0.6381 -0.9311
10097TIP3    H251707   1.341   0.512   1.632  0.0275 -0.9030 -0.7733
10098TIP3   OH251708   0.874   1.249   2.763 -0.0376 -0.6257  0.0499
10098TIP3    H151709   0.867   1.253   2.668  0.9127 -0.2886 -0.0146
10098TIP3    H251710   0.930   1.173   2.780  0.1837 -0.4075  0.3161
10099TIP3   OH251711   1.607   4.983   5.207 -0.8233  0.5807  0.0472
10099TIP3    H151712   1.607   4.888   5.195  2.0327  0.3833  1.2778
10099TIP3    H251713   1.514   5.007   5.208 -1.5777 -2.1809 -0.3319
10100TIP3   OH251714   0.058   0.329  15.673 -0.2283  0.0824  0.2075
10100TIP3    H151715   0.105   0.293  15.598  0.1093  0.2306  0.3448
10100TIP3    H251716  -0.033   0.303  15.659 -0.0756 -0.3577  0.0302
10101TIP3   OH251717   1.118   2.771   0.255  0.1160 -0.2579 -0.0064
10101TIP3    H151718   1.154   2.825   0.326  0.6715  0.2025 -0.6382
10101TIP3    H251719   1.138   2.819   0.175 -0.4449 -0.8165 -0.4917
10102TIP3   OH251720   2.132   6.290  11.659  0.3793  1.0219  0.0917
10102TIP3    H151721   2.132   6.209  11.608  0.4361  1.4593 -0.6018
10102TIP3    H251722   2.225   6.312  11.668  0.4525  0.1417  1.6667
10103TIP3   OH251723   4.328   6.235   3.987  0.7749 -0.3395 -0.5566
10103TIP3    H151724   4.345   6.286   3.908  0.5926  2.7017  1.2485
10103TIP3    H251725   4.413   6.229   4.030  0.3655  0.6062  0.4203
10104TIP3   OH251726   6.251   5.690  16.774 -0.5683 -0.0996  0.4538
10104TIP3    H151727   6.191   5.645  16.716  0.7935  1.3267 -2.1423
10104TIP3    H251728   6.325   5.630  16.783 -0.8625 -0.4010  0.8963
10105TIP3   OH251729   6.385   1.940   0.593  0.7192 -0.2282  1.0884
10105TIP3    H151730   6.338   1.870   0.638  1.7971 -1.7181 -0.0393
10105TIP3    H251731   6.362   2.019   0.641 -0.4399 -1.3668  2.4597
10106TIP3   OH251732   2.690   2.591   5.928  0.0850 -0.7422 -0.0161
10106TIP3    H151733   2.743   2.641   5.866 -0.5929 -0.8672 -0.7031
10106TIP3    H251734   2.738   2.509   5.940  0.8852 -0.1834  0.6398
10107TIP3   OH251735   2.221   4.624  15.000 -0.0447  0.3392 -0.1506
10107TIP3    H151736   2.126   4.636  14.996 -0.4301 -2.0161  0.6814
10107TIP3    H251737   2.236   4.536  14.964  1.5822 -0.1633  1.6257
10108TIP3   OH251738   5.734   5.967   6.116  0.2640  0.1409 -0.0329
10108TIP3    H151739   5.792   6.027   6.162  0.6078 -0.8889  0.8879
10108TIP3    H251740   5.786   5.887   6.105 -0.2258 -0.0395 -1.1465
10109TIP3   OH251741   1.779   5.750  11.574  0.1087 -0.2845  1.0370
10109TIP3    H151742   1.795   5.741  11.668 -2.1461 -0.9111  1.3840
10109TIP3    H251743   1.697   5.703  11.559  0.6940 -0.6150 -1.3379
10110TIP3   OH251744   3.818   1.550   6.092 -0.3172  0.4881  0.5283
10110TIP3    H151745   3.801   1.465   6.133 -1.5602  0.3984 -0.1457
10110TIP3    H251746   3.827   1.611   6.165  0.7495 -0.2500  1.0195
10111TIP3   OH251747   4.781   3.896   2.647 -0.1332  0.1483 -0.1346
10111TIP3    H151748   4.830   3.821   2.683  1.3548  1.0561 -0.2181
10111TIP3    H251749   4.721   3.921   2.717 -0.5415 -1.0272 -0.0519
10112TIP3   OH251750   1.061   5.161  14.120 -0.6432  0.5245  0.1877
10112TIP3    H151751   1.035   5.195  14.035  1.4956  0.0262 -0.6786
10112TIP3    H251752   0.981   5.121  14.155 -0.7082 -2.3125 -3.0428
10113TIP3   OH251753   3.265   3.116   2.325 -0.4120 -0.2571  0.1022
10113TIP3    H151754   3.196   3.107   2.260  0.0710  1.2679 -0.6568
10113TIP3    H251755   3.343   3.139   2.274  0.0043  0.8295  1.2024
10114TIP3   OH251756   5.230   2.868  11.640  0.0262 -0.1758  0.2089
10114TIP3    H151757   5.212   2.839  11.551  0.1183 -1.0923  0.4763
10114TIP3    H251758   5.185   2.804  11.695 -0.0342  0.3889  0.8163
10115TIP3   OH251759   5.740   2.762   1.387  0.2062  0.0260 -0.1819
10115TIP3    H151760   5.656   2.809   1.384  0.2051  0.1243  0.9526
10115TIP3    H251761   5.792   2.800   1.317 -0.8400 -0.3032 -1.1564
10116TIP3   OH251762   4.502   6.721  11.466 -0.1093  0.5930  0.7085
10116TIP3    H151763   4.410   6.740  11.483 -0.4307 -0.5989  0.3326
10116TIP3    H251764   4.507   6.706  11.372  0.8366  2.5790  0.3960
10117TIP3   OH251765   5.031   3.002   4.827 -0.0078 -0.2480  0.3550
10117TIP3    H151766   5.055   2.969   4.913  0.7389  2.6581  1.3175
10117TIP3    H251767   4.980   2.932   4.787 -0.8011 -1.4237  3.3596
10118TIP3   OH251768   0.001   3.195   0.453 -0.4715 -0.1519 -0.2832
10118TIP3    H151769  -0.008   3.119   0.396  0.2180  0.2148 -0.8971
10118TIP3    H251770  -0.080   3.197   0.504 -0.4560 -1.3377 -0.2070
10119TIP3   OH251771   1.016   5.552  11.697 -0.0618  0.8156  0.4947
10119TIP3    H151772   1.065   5.537  11.778 -0.2284  0.2076  0.4861
10119TIP3    H251773   1.056   5.492  11.634  0.9552  2.2445 -0.2393
10120TIP3   OH251774   2.123   3.731   1.722  0.1343  0.2104 -0.9437
10120TIP3    H151775   2.065   3.792   1.768  0.6538  0.7923 -1.0635
10120TIP3    H251776   2.207   3.776   1.717  1.0913 -1.2928  0.7436
10121TIP3   OH251777   1.982   2.643  12.372  0.0916  0.4383 -0.4224
10121TIP3    H151778   1.986   2.677  12.461  0.0084  1.0130 -0.6397
10121TIP3    H251779   2.053   2.579  12.368  1.7449  2.2464 -0.7205
10122TIP3   OH251780   6.615   1.554  13.851 -0.1808 -0.0024  0.3868
10122TIP3    H151781   6.616   1.648  13.830 -0.9945 -0.0594  0.0988
10122TIP3    H251782   6.670   1.547  13.929  0.7952  0.5606 -0.2385
10123TIP3   OH251783   5.006   3.037   0.381 -0.3296 -0.3293  0.7113
10123TIP3    H151784   5.038   2.972   0.443  2.7341  1.0211  0.6082
10123TIP3    H251785   5.023   2.999   0.295 -2.3091 -1.1092  0.6153
10124TIP3   OH251786   0.000   3.663  15.050 -0.6957  0.1163  0.4560
10124TIP3    H151787   0.080   3.616  15.025  0.0957  0.9515  1.3913
10124TIP3    H251788  -0.068   3.596  15.048  0.2432 -0.8705  0.8282
10125TIP3   OH251789   2.244   4.797   1.169 -0.0854  0.3427 -0.4218
10125TIP3    H151790   2.246   4.739   1.093 -0.5604 -0.0983 -0.0989
10125TIP3    H251791   2.160   4.842   1.163 -1.1543 -1.3744  1.0815
10126TIP3   OH251792   3.105   6.739   1.452 -0.1314  0.4725 -0.2811
10126TIP3    H151793   3.151   6.823   1.452  2.4139 -0.8690  0.2667
10126TIP3    H251794   3.120   6.703   1.364  1.4830 -0.8143  0.5096
10127TIP3   OH251795   1.956   3.923  15.801  0.1001 -0.0290 -0.0002
10127TIP3    H151796   2.009   3.875  15.864  0.8340  0.2052 -0.4399
10127TIP3    H251797   1.875   3.872  15.796 -0.0435  0.0503  1.2602
10128TIP3   OH251798   2.617   3.084  12.158 -0.1294 -0.4374  0.4259
10128TIP3    H151799   2.573   3.058  12.077 -2.3814  0.8859  1.1982
10128TIP3    H251800   2.697   3.128  12.128 -0.2685 -1.1315 -1.0304
10129TIP3   OH251801   2.872   0.715   0.770 -0.0522  0.0917  0.1663
10129TIP3    H151802   2.898   0.671   0.689 -1.4367 -1.2108  0.3843
10129TIP3    H251803   2.797   0.769   0.744 -0.9228 -0.8420  0.6746
10130TIP3   OH251804   3.971   2.566  13.062  0.1078  0.1384 -0.3667
10130TIP3    H151805   3.892   2.552  13.009  0.4777 -0.2461 -0.8190
10130TIP3    H251806   3.958   2.510  13.138  0.4884 -0.8518 -1.0188
10131TIP3   OH251807   6.243   6.599   2.467 -0.4891  0.0808 -0.7818
10131TIP3    H151808   6.157   6.634   2.440 -0.1154 -0.5479 -2.8486
10131TIP3    H251809   6.232   6.504   2.465  0.3480 -0.0103 -1.4107
10132TIP3   OH251810   5.225   1.609  13.882 -0.7864 -0.3004  0.2357
10132TIP3    H151811   5.251   1.517  13.887 -0.7057 -0.3073 -0.2233
10132TIP3    H251812   5.306   1.657  13.898 -0.8140 -0.3126  0.4078
10133TIP3   OH251813   4.736   5.529  15.401  0.2402 -0.3283  0.6324
10133TIP3    H151814   4.664   5.476  15.436  0.6807  1.1545  3.9466
10133TIP3    H251815   4.815   5.477  15.417  0.1008 -1.2508 -1.5526
10134TIP3   OH251816   2.377   6.349   4.358  0.0867 -0.0637  0.5059
10134TIP3    H151817   2.394   6.385   4.445 -1.7242  0.1354  0.8076
10134TIP3    H251818   2.425   6.406   4.298  2.1088 -0.7655  1.4383
10135TIP3   OH251819   4.170   1.582   3.013 -0.4602  0.1752 -0.2627
10135TIP3    H151820   4.082   1.549   2.993 -0.5165 -0.9857  1.7494
10135TIP3    H251821   4.229   1.523   2.966 -0.6807 -0.7703  0.6260
10136TIP3   OH251822   3.438   1.445   4.631 -0.1618 -0.5160 -0.0162
10136TIP3    H151823   3.505   1.478   4.690  1.1145 -2.6743 -0.1953
10136TIP3    H251824   3.361   1.433   4.686  0.2571 -0.0848  0.6664
10137TIP3   OH251825   5.848   2.166  11.659  0.1474  0.4894  0.1272
10137TIP3    H151826   5.857   2.189  11.752 -0.1262 -0.0263  0.2847
10137TIP3    H251827   5.760   2.129  11.652  0.7765 -1.0242 -0.0024
10138TIP3   OH251828   5.398   1.778   1.596  0.2782 -0.2724  0.3650
10138TIP3    H151829   5.383   1.827   1.514 -0.9512 -0.7385  0.3035
10138TIP3    H251830   5.487   1.802   1.621  2.0043 -2.8187 -2.9512
10139TIP3   OH251831   6.217   0.953  10.407 -0.0511 -0.3010 -0.5263
10139TIP3    H151832   6.133   0.985  10.440  0.0800 -0.9460  0.4797
10139TIP3    H251833   6.199   0.925  10.317 -0.8607 -0.2471 -0.3833
10140TIP3   OH251834   0.350   0.569   3.472 -0.4328  0.7320  0.0210
10140TIP3    H151835   0.420   0.626   3.439 -0.6671  0.2703 -1.3053
10140TIP3    H251836   0.272   0.599   3.426 -0.7249 -0.0877 -0.0237
10141TIP3   OH251837   3.072   2.417  14.854 -0.0587  0.1121  0.1840
10141TIP3    H151838   3.043   2.506  14.877  1.4420  0.1005  2.2758
10141TIP3    H251839   3.035   2.362  14.922  0.1431 -0.6792 -0.3472
10142TIP3   OH251840   5.286   1.733  13.285  0.3682 -0.2382 -0.7444
10142TIP3    H151841   5.371   1.767  13.259  1.4211 -0.9617  1.6874
10142TIP3    H251842   5.273   1.765  13.374 -2.0646  0.1306 -1.1879
10143TIP3   OH251843   2.139   2.118  12.958 -0.1499 -0.2910 -0.3375
10143TIP3    H151844   2.194   2.066  13.017  0.3740 -0.1900 -0.7383
10143TIP3    H251845   2.053   2.077  12.965 -0.4141  0.5174  1.4935
10144TIP3   OH251846   6.506   6.513   1.783 -0.0722  0.5171 -0.1812
10144TIP3    H151847   6.447   6.557   1.721 -1.0644 -0.2555  0.1929
10144TIP3    H251848   6.455   6.438   1.814  1.3034 -0.4365 -0.2039
10145TIP3   OH251849   6.257   3.061  10.944 -0.5933 -0.2212 -0.3550
10145TIP3    H151850   6.314   2.994  10.907 -1.1726 -1.0610  0.2480
10145TIP3    H251851   6.301   3.143  10.924  0.5897 -0.8274 -0.3153
10146TIP3   OH251852   3.544   1.557  12.289 -0.2269 -0.4235  0.0923
10146TIP3    H151853   3.601   1.496  12.334 -0.3166 -0.6028 -0.0374
10146TIP3    H251854   3.602   1.607  12.232 -0.6509 -2.9588 -2.6581
10147TIP3   OH251855   6.056   2.538  14.125  0.5489  0.5922  0.5185
10147TIP3    H151856   6.055   2.628  14.093 -0.6647 -0.2611 -1.9582
10147TIP3    H251857   5.964   2.510  14.122  0.9900 -0.9311  0.6721
10148TIP3   OH251858   0.062   3.961   2.473 -0.2209 -0.7647 -0.1230
10148TIP3    H151859   0.138   3.950   2.529  0.7051  0.1972 -1.1608
10148TIP3    H251860   0.067   3.889   2.410 -0.5435 -1.0936  0.2280
10149TIP3   OH251861   4.991   4.090  17.025 -0.0530 -0.0664 -0.9836
10149TIP3    H151862   4.999   4.186  17.027  0.0141 -0.0752 -0.8165
10149TIP3    H251863   4.916   4.074  16.968 -1.3364  0.1640  0.5884
10150TIP3   OH251864   2.288   3.715  14.883  0.6039 -0.4452 -0.1241
10150TIP3    H151865   2.311   3.645  14.822 -1.0697 -0.9249 -0.2359
10150TIP3    H251866   2.242   3.671  14.955 -0.4093  0.5105 -0.1694
10151TIP3   OH251867   5.486   3.165  11.740  0.0354 -0.3219 -0.3118
10151TIP3    H151868   5.464   3.144  11.649 -1.5008  0.1040 -0.0489
10151TIP3    H251869   5.443   3.097  11.791 -2.7133  1.8670  0.3615
10152TIP3   OH251870   2.332   0.520   6.538 -0.9841  0.1391  0.1506
10152TIP3    H151871   2.285   0.564   6.467 -1.6140 -0.8630 -0.0715
10152TIP3    H251872   2.372   0.591   6.588 -0.7052  0.8692 -1.0828
10153TIP3   OH251873   1.718   1.905   2.852  0.5033 -0.3789  0.1890
10153TIP3    H151874   1.659   1.972   2.888  0.6878  0.0768 -0.3500
10153TIP3    H251875   1.681   1.822   2.882  1.4980  0.0415  2.7240
10154TIP3   OH251876   5.123   0.563   5.339 -0.1472 -0.2303 -0.6467
10154TIP3    H151877   5.139   0.616   5.417  1.0358 -0.0204 -1.0208
10154TIP3    H251878   5.194   0.586   5.280  0.7272 -2.6440 -0.5903
10155TIP3   OH251879   3.278   0.260  16.356 -0.9056 -0.0370  0.3530
10155TIP3    H151880   3.255   0.331  16.296 -1.0630  0.2866  0.7943
10155TIP3    H251881   3.299   0.304  16.438 -0.7443 -0.4825  0.5523
10156TIP3   OH251882   2.131   4.339  13.112  0.5372  0.2468  0.2423
10156TIP3    H151883   2.100   4.422  13.148 -2.3639  0.1995 -1.9687
10156TIP3    H251884   2.204   4.363  13.054 -0.8082  1.3834 -1.0181
10157TIP3   OH251885   3.846   5.366  12.229 -0.5439  0.4806 -0.6952
10157TIP3    H151886   3.927   5.400  12.191 -0.7058  0.5041 -1.0224
10157TIP3    H251887   3.851   5.390  12.322 -0.0109  0.1648 -0.6421
10158TIP3   OH251888   4.997   0.436   5.026  0.4864 -0.2973 -0.1354
10158TIP3    H151889   5.022   0.412   5.115  0.2718  2.0125  0.6000
10158TIP3    H251890   4.907   0.405   5.016  0.1502  0.3098  0.8464
10159TIP3   OH251891   5.022   4.317  15.513  0.6491 -0.0823 -0.0770
10159TIP3    H151892   5.115   4.303  15.530  0.4148 -0.9377  0.5113
10159TIP3    H251893   5.014   4.310  15.417  1.0666 -0.7667 -0.0636
10160TIP3   OH251894   0.633   1.807  13.674 -0.7990  0.4389 -0.4920
10160TIP3    H151895   0.551   1.757  13.674 -0.3004 -0.4398  2.1904
10160TIP3    H251896   0.702   1.740  13.679 -0.0968  1.3086  2.4404
10161TIP3   OH251897   2.361   6.307   4.641 -0.4034 -0.0178 -0.1078
10161TIP3    H151898   2.317   6.251   4.705 -0.5657  0.3444  0.1038
10161TIP3    H251899   2.382   6.387   4.690 -0.4780  0.2400 -0.4946
10162TIP3   OH251900   2.887   6.716   2.261  0.1351 -0.0824 -0.1924
10162TIP3    H151901   2.901   6.797   2.212 -3.4855  1.2554  0.8041
10162TIP3    H251902   2.923   6.734   2.348  2.0426 -0.6720 -0.8311
10163TIP3   OH251903   2.703   2.298  13.352 -0.1166 -0.0053  0.0190
10163TIP3    H151904   2.767   2.361  13.317 -0.9455  0.5764 -0.4650
10163TIP3    H251905   2.714   2.220  13.297  0.3959 -0.0277  0.1464
10164TIP3   OH251906   5.669   0.875  10.834 -0.3236  0.1217 -0.0691
10164TIP3    H151907   5.739   0.919  10.785 -0.1235  0.6108  0.6415
10164TIP3    H251908   5.593   0.879  10.776 -0.4566  1.8931  0.1919
10165TIP3   OH251909   5.862   1.042   6.516 -0.1122  0.2622  0.5022
10165TIP3    H151910   5.791   0.978   6.523  0.3090 -0.0422  2.0813
10165TIP3    H251911   5.942   0.989   6.516  0.1796  0.7014  0.3953
10166TIP3   OH251912   4.352   3.803  16.749 -0.0752 -0.2557  0.7230
10166TIP3    H151913   4.301   3.726  16.777 -3.7795  2.2241  1.1120
10166TIP3    H251914   4.394   3.834  16.829 -2.6478  0.9940  1.6509
10167TIP3   OH251915   5.590   2.093   4.307 -0.1001 -0.6102 -0.4210
10167TIP3    H151916   5.554   2.092   4.396  0.5215 -1.1813 -0.1640
10167TIP3    H251917   5.530   2.148   4.257  0.7961  1.6375  0.8909
10168TIP3   OH251918   1.497   2.364   5.297  0.2820  0.0617  0.6838
10168TIP3    H151919   1.427   2.394   5.355  0.8278  0.4755  1.1221
10168TIP3    H251920   1.556   2.439   5.289  0.4784 -0.1632  0.0106
10169TIP3   OH251921   1.910   0.667  17.146 -0.5900 -0.1335 -0.0049
10169TIP3    H151922   1.899   0.732  17.075 -0.4045  1.0937  1.0767
10169TIP3    H251923   1.820   0.647  17.173 -0.6339 -0.0030 -0.0531
10170TIP3   OH251924   6.588   6.728  15.593 -0.3256  0.1946  0.0695
10170TIP3    H151925   6.620   6.664  15.656  0.1911  1.2255  0.8787
10170TIP3    H251926   6.496   6.704  15.579  0.3102 -1.7145 -0.9283
10171TIP3   OH251927   0.889   0.016  11.986 -0.0444  0.4951 -0.3572
10171TIP3    H151928   0.820  -0.045  11.959  0.2705  0.4356 -1.0353
10171TIP3    H251929   0.922  -0.021  12.068 -0.2157  0.0384 -0.4898
10172TIP3   OH251930   2.713   0.566  12.613 -0.7583  0.3659 -0.0636
10172TIP3    H151931   2.678   0.654  12.606 -1.4099  0.1718  0.6987
10172TIP3    H251932   2.793   0.567  12.560 -0.8323  1.3713 -0.1539
10173TIP3   OH251933   4.913   4.886   0.536  0.8072 -0.4187  0.0968
10173TIP3    H151934   4.837   4.904   0.591  0.3454  0.1693 -0.7170
10173TIP3    H251935   4.877   4.857   0.453  1.4916 -1.0015 -0.0031
10174TIP3   OH251936   2.760   4.924  10.727  0.2945  0.0945 -0.0233
10174TIP3    H151937   2.746   5.016  10.704 -0.3788 -0.0590 -0.2089
10174TIP3    H251938   2.843   4.924  10.775 -0.3543  0.9780  1.1079
10175TIP3   OH251939   5.576   1.867  11.398  0.1742  0.1645  0.7156
10175TIP3    H151940   5.648   1.811  11.368 -0.0060 -0.1857  0.9283
10175TIP3    H251941   5.609   1.956  11.388  0.3638  0.0281  0.1270
10176TIP3   OH251942   1.197   2.451  16.757  0.1695 -0.2095  0.0880
10176TIP3    H151943   1.140   2.442  16.834 -0.5835 -1.4480 -0.6048
10176TIP3    H251944   1.141   2.427  16.684  0.9583  0.7422 -0.8369
10177TIP3   OH251945   5.171   0.760   1.754  0.1512  0.1483 -0.6301
10177TIP3    H151946   5.138   0.691   1.811 -2.0955  1.8258  0.1849
10177TIP3    H251947   5.202   0.828   1.814 -0.4400  1.1186 -1.3986
10178TIP3   OH251948   4.858   0.236  10.764 -0.1888  0.7139 -0.2375
10178TIP3    H151949   4.766   0.242  10.789 -0.1572 -1.7213  0.6288
10178TIP3    H251950   4.869   0.146  10.734  1.8080  1.0991 -0.7466
10179TIP3   OH251951   3.483   0.696  13.494  0.0183 -0.2903  0.3263
10179TIP3    H151952   3.508   0.617  13.542  3.0861  0.6219  0.3365
10179TIP3    H251953   3.434   0.748  13.558 -1.3849 -1.8240  0.5336
10180TIP3   OH251954   0.838   3.420  12.918 -0.6757  0.6998 -0.2966
10180TIP3    H151955   0.928   3.448  12.898 -0.6178  0.6134 -0.1589
10180TIP3    H251956   0.794   3.418  12.833 -0.3705  0.1272 -0.4438
10181TIP3   OH251957   6.389   4.522  12.724  0.7267 -0.6082  0.0751
10181TIP3    H151958   6.342   4.495  12.645  0.3195 -1.7603  0.6946
10181TIP3    H251959   6.481   4.499  12.706  0.7861  0.0341 -0.4450
10182TIP3   OH251960   6.684   6.734   0.182  0.0109  0.2532  0.0675
10182TIP3    H151961   6.752   6.709   0.244  1.0027  0.5005 -0.8897
10182TIP3    H251962   6.616   6.668   0.192  0.4598 -0.0805  0.9372
10183TIP3   OH251963   3.126   3.508   3.361  0.2678 -0.8256 -0.0228
10183TIP3    H151964   3.096   3.596   3.340  2.1857 -0.3743 -0.9261
10183TIP3    H251965   3.048   3.453   3.348 -0.8978  0.6811  0.4119
10184TIP3   OH251966   3.587   2.305   1.731 -0.3540  0.5270 -0.0741
10184TIP3    H151967   3.518   2.363   1.763 -0.2021 -0.1383  1.5180
10184TIP3    H251968   3.613   2.343   1.647 -2.5883  0.8229 -0.6732
10185TIP3   OH251969   4.486   6.305   1.415 -0.1017 -0.1540  0.1747
10185TIP3    H151970   4.545   6.231   1.428  0.0936  0.3203  2.1075
10185TIP3    H251971   4.512   6.369   1.482 -1.0129  1.1940 -0.7274
10186TIP3   OH251972   1.959   5.273  11.297 -0.0864  0.4267 -0.0210
10186TIP3    H151973   1.946   5.368  11.299 -0.4706  0.3568  2.3571
10186TIP3    H251974   1.982   5.250  11.387  1.1384 -1.5993 -0.8131
10187TIP3   OH251975   1.855   6.143  11.454 -0.1662  0.0193  0.1598
10187TIP3    H151976   1.768   6.105  11.466 -0.4119  0.9471  1.4455
10187TIP3    H251977   1.914   6.067  11.451 -0.9701 -0.5978 -0.3705
10188TIP3   OH251978   5.824   2.542  13.522 -0.8518  0.0576  0.5380
10188TIP3    H151979   5.911   2.540  13.482 -1.4844 -0.9978 -0.8321
10188TIP3    H251980   5.783   2.619  13.483  0.1375  1.7679  2.7245
10189TIP3   OH251981   2.622   0.337  13.373 -0.3807  0.4006 -0.0517
10189TIP3    H151982   2.678   0.339  13.295 -1.2096 -1.1830 -0.7047
10189TIP3    H251983   2.683   0.330  13.446  0.4581  2.9715 -0.4572
10190TIP3   OH251984   5.257   0.732   0.343  0.2455 -0.1210  0.2208
10190TIP3    H151985   5.169   0.707   0.313 -0.1860  1.1931  0.3670
10190TIP3    H251986   5.241   0.781   0.423  1.2207 -1.1813  1.0829
10191TIP3   OH251987   3.121   1.432   3.828 -0.5958 -0.1345  0.7143
10191TIP3    H151988   3.088   1.480   3.904  0.6662  1.0195  0.5494
10191TIP3    H251989   3.207   1.401   3.856  0.2670  1.0770 -0.5443
10192TIP3   OH251990   6.070   0.962  17.067  0.6059 -0.1090 -0.0942
10192TIP3    H151991   6.034   0.885  17.022  0.5552  0.1476 -0.4980
10192TIP3    H251992   6.087   1.024  16.997  0.6751  0.2357  0.2297
10193TIP3   OH251993   5.760   1.571   6.272  0.3656  0.1014 -0.1297
10193TIP3    H151994   5.749   1.528   6.357  3.0920 -1.3454 -0.4334
10193TIP3    H251995   5.728   1.506   6.208  3.0338 -0.9286 -0.4863
10194TIP3   OH251996   1.377   4.111   0.100 -0.0965 -0.0516  0.1495
10194TIP3    H151997   1.352   4.128   0.009  0.0736 -0.0590  0.0976
10194TIP3    H251998   1.457   4.163   0.112 -1.5139  1.9778  1.0561
10195TIP3   OH251999   6.262   3.352  13.403  0.3298  0.0731  0.2612
10195TIP3    H152000   6.234   3.303  13.481 -0.0805 -0.4164 -0.1869
10195TIP3    H252001   6.286   3.285  13.340 -1.0357  0.4262 -0.6494
10196TIP3   OH252002   6.703   4.981  14.246 -0.1053 -0.1549  0.1678
10196TIP3    H152003   6.720   4.912  14.310  0.4088 -1.8340 -1.7121
10196TIP3    H252004   6.608   4.982  14.235 -0.1004 -0.6478  0.1003
10197TIP3   OH252005   6.224   6.484  16.574 -0.5230  0.9776 -0.6884
10197TIP3    H152006   6.271   6.432  16.639 -1.7005  2.1948  1.2033
10197TIP3    H252007   6.241   6.440  16.491  1.5334 -0.2596  0.3472
10198TIP3   OH252008   1.808   4.156  12.782 -0.0890 -0.2958 -0.3974
10198TIP3    H152009   1.739   4.092  12.767 -2.4287  2.2161 -0.8247
10198TIP3    H252010   1.811   4.168  12.877  0.5576 -1.2312 -0.2963
10199TIP3   OH252011   4.542   4.625  14.681 -0.1960 -0.0507  0.0133
10199TIP3    H152012   4.466   4.576  14.650 -1.0746  0.8151  0.7528
10199TIP3    H252013   4.568   4.581  14.762  1.0559 -1.2850 -1.0438
10200TIP3   OH252014   4.288   1.841   1.760 -0.2143  0.2789  0.0090
10200TIP3    H152015   4.364   1.899   1.752  0.0383  0.3072  2.2063
10200TIP3    H252016   4.317   1.772   1.819 -1.8289  0.1836  0.7172
10201TIP3   OH252017   1.775   4.390   2.102  0.4673  0.6241  0.4162
10201TIP3    H152018   1.870   4.382   2.102  0.5113  1.1101  0.1272
10201TIP3    H252019   1.756   4.450   2.030  0.0530  1.6854  1.3921
10202TIP3   OH252020   4.898   2.510   5.761 -0.2461 -0.6213 -0.2606
10202TIP3    H152021   4.915   2.539   5.671 -0.3810 -1.0118 -0.4147
10202TIP3    H252022   4.890   2.591   5.811  0.5737 -0.4057 -0.4591
10203TIP3   OH252023   3.313   0.835   0.972 -0.5888 -0.1612 -0.3705
10203TIP3    H152024   3.296   0.930   0.972 -0.5087 -0.1503  0.2132
10203TIP3    H252025   3.263   0.801   1.046  1.6937 -0.1620  1.2182
10204TIP3   OH252026   5.989   3.396   4.565 -0.2385  0.0522  0.4212
10204TIP3    H152027   6.022   3.412   4.653  0.9343  0.1294 -0.0232
10204TIP3    H252028   5.936   3.317   4.572  0.1513 -0.1436  1.1075
10205TIP3   OH252029   5.721   5.341  12.034 -0.2013 -0.3862 -0.0523
10205TIP3    H152030   5.729   5.246  12.027 -0.4817 -0.3481 -0.8655
10205TIP3    H252031   5.804   5.375  12.001 -0.8970 -0.2746 -1.7309
10206TIP3   OH252032   5.785   3.183   5.194  0.3956 -0.2473  0.1659
10206TIP3    H152033   5.792   3.279   5.191  2.0332 -0.3518  0.2733
10206TIP3    H252034   5.860   3.155   5.246 -0.7814 -1.5240  1.2074
10207TIP3   OH252035   6.741   2.141  13.350 -0.2851  0.8820  0.1889
10207TIP3    H152036   6.760   2.219  13.402 -0.9076  0.7099  0.6689
10207TIP3    H252037   6.827   2.111  13.320  0.1869  0.2783  2.1127
10208TIP3   OH252038   0.503   0.225   3.929 -0.0139 -0.1023  0.2166
10208TIP3    H152039   0.488   0.137   3.962 -0.9802 -0.0150  0.0316
10208TIP3    H252040   0.432   0.278   3.968 -0.2069  0.3215 -0.6970
10209TIP3   OH252041   1.967   1.404  14.886 -0.1090  0.1850  0.2019
10209TIP3    H152042   1.955   1.310  14.876 -1.2899  0.4844 -1.5651
10209TIP3    H252043   2.058   1.420  14.864  0.5122 -0.7199  2.0385
10210TIP3   OH252044   3.030   5.824  12.094  0.3853  0.4698  0.7322
10210TIP3    H152045   2.979   5.852  12.018 -1.2930 -2.4425  0.7293
10210TIP3    H252046   2.978   5.851  12.170  1.1207  1.6473  0.8261
10211TIP3   OH252047   0.344   4.222   0.023 -0.4786 -0.2440  0.1570
10211TIP3    H152048   0.432   4.223  -0.014 -0.9973  2.1006 -1.1760
10211TIP3    H252049   0.357   4.230   0.117  0.7493  0.0473 -0.0310
10212TIP3   OH252050   0.608   0.245   6.549 -0.3312 -0.4846 -0.2817
10212TIP3    H152051   0.608   0.302   6.472  0.0874 -0.3587 -0.1903
10212TIP3    H252052   0.666   0.289   6.611 -1.0905 -0.3015  0.3155
10213TIP3   OH252053   3.724   0.469  16.888  0.3512  0.3929 -0.2697
10213TIP3    H152054   3.769   0.531  16.830  2.9414 -1.0509  0.1120
10213TIP3    H252055   3.795   0.424  16.934 -1.6019 -0.2404  2.1843
10214TIP3   OH252056   0.093   0.412   1.573  0.5016 -0.6135 -0.3944
10214TIP3    H152057   0.013   0.381   1.531 -0.1105  0.3919  0.0103
10214TIP3    H252058   0.162   0.395   1.508 -0.0363 -1.4443 -0.7609
10215TIP3   OH252059   6.416   3.864   1.151  0.0570 -0.3893  0.2307
10215TIP3    H152060   6.392   3.901   1.066  1.1516  0.5489  0.3131
10215TIP3    H252061   6.511   3.854   1.147 -0.1843 -3.0244  0.3043
10216TIP3   OH252062   3.725   2.726   1.240 -0.2513  0.1631 -0.6352
10216TIP3    H152063   3.740   2.805   1.188  0.1051  0.6986  0.2694
10216TIP3    H252064   3.747   2.654   1.180  2.6202  0.8175 -0.4644
10217TIP3   OH252065   1.993   3.155  13.555  0.0334 -0.8095 -0.0309
10217TIP3    H152066   1.929   3.225  13.561  1.4455  0.4543  0.6838
10217TIP3    H252067   1.973   3.098  13.629  1.4366  1.0807  1.8747
10218TIP3   OH252068   2.219   2.971  11.873  0.3440  0.6931  0.1780
10218TIP3    H152069   2.264   3.002  11.794 -0.7012  0.6501 -0.4406
10218TIP3    H252070   2.251   3.028  11.943  0.6650  1.2456 -0.4127
10219TIP3   OH252071   2.602   0.440   2.816  0.6193  0.4601 -0.0445
10219TIP3    H152072   2.547   0.363   2.804  0.4358 -0.2379  4.3295
10219TIP3    H252073   2.692   0.406   2.816  0.5089  0.0617  2.5497
10220TIP3   OH252074   6.532   1.324   1.290  0.1987  0.1959  0.2012
10220TIP3    H152075   6.541   1.294   1.200 -0.8500  1.6971 -0.4076
10220TIP3    H252076   6.584   1.260   1.341  0.9343 -0.5665 -1.4496
10221TIP3   OH252077   6.577   3.019  13.892 -0.3300  0.0471 -0.4328
10221TIP3    H152078   6.507   3.049  13.949  0.8716  0.2241  1.0053
10221TIP3    H252079   6.596   2.930  13.922  0.5652  0.2780 -0.2716
10222TIP3   OH252080   5.758   6.309   3.113  0.3640  0.1696  0.8971
10222TIP3    H152081   5.816   6.257   3.057 -1.0582 -0.4481 -0.0315
10222TIP3    H252082   5.676   6.314   3.064  0.0765  2.2403  1.5491
10223TIP3   OH252083   3.891   1.409  14.486  0.0552  0.0350 -0.1161
10223TIP3    H152084   3.968   1.466  14.496  0.2049 -0.4120  1.4841
10223TIP3    H252085   3.831   1.439  14.555 -0.6866 -0.4414 -0.5599
10224TIP3   OH252086   1.181   3.363   0.852 -0.1989 -0.2479  0.5651
10224TIP3    H152087   1.139   3.330   0.931 -1.0235  1.5255  0.8914
10224TIP3    H252088   1.161   3.298   0.785 -2.4033 -0.0819  1.0200
10225TIP3   OH252089   0.608   1.380   4.016 -0.0994 -0.0511  0.3809
10225TIP3    H152090   0.688   1.342   3.980  0.0114  1.1306 -0.6633
10225TIP3    H252091   0.612   1.362   4.110  0.5607 -1.4723  0.0856
10226TIP3   OH252092   3.517   2.408   0.597  0.0680  0.4881  0.0727
10226TIP3    H152093   3.465   2.381   0.521 -0.7110  1.6494  0.1884
10226TIP3    H252094   3.492   2.348   0.667  0.6310 -0.4521 -0.5097
10227TIP3   OH252095   4.920   5.832  10.929 -0.1124 -0.3343  0.5174
10227TIP3    H152096   4.898   5.786  10.848 -2.7706 -2.0407  2.1111
10227TIP3    H252097   4.990   5.780  10.969  0.8863  0.2578 -0.4609
10228TIP3   OH252098   4.123   1.805  15.349  0.2555  0.3212  0.0043
10228TIP3    H152099   4.183   1.862  15.300  0.3421 -0.7638 -1.1842
10228TIP3    H252100   4.125   1.839  15.438  0.3852  2.1146 -0.6640
10229TIP3   OH252101   4.664   3.568  12.568  0.8028 -0.7613  0.1882
10229TIP3    H152102   4.710   3.505  12.512  1.6509  0.7384 -0.8486
10229TIP3    H252103   4.580   3.582  12.525  1.4002  0.2862 -0.6546
10230TIP3   OH252104   4.831   2.685  11.571  0.2536  0.2597 -0.1773
10230TIP3    H152105   4.899   2.644  11.517  0.9701 -1.4506  1.9544
10230TIP3    H252106   4.875   2.760  11.612  0.2826  0.3484 -0.3700
10231TIP3   OH252107   0.560   3.487   0.113  0.2317  0.5765  0.5859
10231TIP3    H152108   0.629   3.422   0.104  1.1687  1.6211  0.2157
10231TIP3    H252109   0.514   3.486   0.029 -0.4259 -0.3567  0.9481
10232TIP3   OH252110   2.652   1.774  12.745 -0.2385 -0.0116  0.1736
10232TIP3    H152111   2.613   1.702  12.794 -0.3781 -0.2021 -0.2102
10232TIP3    H252112   2.630   1.853  12.794 -0.5617 -0.1798  0.2982
10233TIP3   OH252113   0.555   5.632  11.389 -0.6003  0.1577  0.0901
10233TIP3    H152114   0.497   5.650  11.463 -1.0569 -0.6802 -0.0578
10233TIP3    H252115   0.642   5.623  11.428 -0.6252  0.9782  0.3651
10234TIP3   OH252116   2.146   2.583   4.693 -0.5171 -0.4775 -0.2252
10234TIP3    H152117   2.152   2.678   4.694 -0.6021 -0.4649 -0.5898
10234TIP3    H252118   2.072   2.565   4.634 -1.2486 -0.7326  0.7560
10235TIP3   OH252119   2.218   3.102   2.530  0.5968  0.2780  0.2434
10235TIP3    H152120   2.141   3.139   2.575 -0.1103  2.2650 -2.4557
10235TIP3    H252121   2.211   3.008   2.544  1.2378  0.8494  5.4890
10236TIP3   OH252122   4.050   0.865   3.018 -0.2662  0.0387  0.4342
10236TIP3    H152123   4.000   0.935   2.975  1.2642  1.5602  1.0825
10236TIP3    H252124   4.069   0.803   2.947  1.0887  1.8610 -0.8446
10237TIP3   OH252125   1.912   0.086   4.437 -0.6443 -0.6277 -0.0139
10237TIP3    H152126   1.982   0.148   4.415  0.2008 -1.1411  1.1740
10237TIP3    H252127   1.833   0.126   4.401  0.0911  0.5022 -0.4138
10238TIP3   OH252128   5.121   5.083   4.742  0.1723 -0.3684 -0.8477
10238TIP3    H152129   5.108   5.153   4.805  1.0306  1.1495 -2.3374
10238TIP3    H252130   5.039   5.033   4.744 -1.2981  1.9722 -1.3899
10239TIP3   OH252131   6.503   1.241  14.058 -0.1077 -0.0114  0.0982
10239TIP3    H152132   6.450   1.293  14.118  1.0084  1.7379 -0.4054
10239TIP3    H252133   6.593   1.255  14.087  0.2797 -0.9135 -0.6313
10240TIP3   OH252134   0.799   1.488  14.552 -0.0301 -0.1866  0.0572
10240TIP3    H152135   0.793   1.471  14.646 -0.5817 -0.5073 -0.0334
10240TIP3    H252136   0.859   1.420  14.520  0.1166 -0.1096  0.1646
10241TIP3   OH252137   3.441   2.282   3.442  0.1013 -0.7156 -0.7538
10241TIP3    H152138   3.442   2.274   3.347 -1.5121 -1.1415 -0.7473
10241TIP3    H252139   3.392   2.363   3.459  1.3170 -0.0670 -0.3174
10242TIP3   OH252140   3.733   2.324  14.699  0.4057 -0.4136 -0.5466
10242TIP3    H152141   3.777   2.263  14.757 -0.2254 -1.7483 -1.4527
10242TIP3    H252142   3.649   2.342  14.742  0.6002 -0.1767 -0.2701
10243TIP3   OH252143   0.109   5.400   6.704 -0.0131 -0.7328 -0.1258
10243TIP3    H152144   0.081   5.429   6.616 -0.0238  3.8810  1.2843
10243TIP3    H252145   0.204   5.406   6.702 -0.0768  0.5872  0.5448
10244TIP3   OH252146   5.580   1.660   3.355 -0.3405 -0.3804  0.0405
10244TIP3    H152147   5.524   1.648   3.278  2.4043 -0.7541 -1.9777
10244TIP3    H252148   5.588   1.572   3.391  0.3366 -0.6330 -0.7023
10245TIP3   OH252149   2.460   5.432   2.479 -0.2486  0.2666  0.1716
10245TIP3    H152150   2.519   5.427   2.403  1.5669 -1.1366  1.6379
10245TIP3    H252151   2.513   5.470   2.549 -1.1335 -0.8589  1.4824
10246TIP3   OH252152   0.426   5.865   1.827  0.6940 -0.4308 -0.3509
10246TIP3    H152153   0.338   5.895   1.848  0.7887 -0.1046 -0.4136
10246TIP3    H252154   0.483   5.913   1.888  0.9272  0.1693 -1.0223
10247TIP3   OH252155   1.580   3.991   4.617 -0.5785 -0.0056 -0.2450
10247TIP3    H152156   1.488   3.974   4.598 -0.9694  2.6468 -0.9486
10247TIP3    H252157   1.592   4.084   4.596  2.2601 -0.3148 -0.1888
10248TIP3   OH252158   6.063   1.661   4.215 -0.0654  0.1412 -0.2142
10248TIP3    H152159   6.006   1.629   4.145 -1.0553 -0.2100  0.7426
10248TIP3    H252160   6.082   1.583   4.267  0.2982  0.4899  0.1725
10249TIP3   OH252161   5.785   0.569  10.306 -0.0384 -0.1562 -0.4018
10249TIP3    H152162   5.756   0.658  10.288 -2.3273  0.0163  3.6228
10249TIP3    H252163   5.709   0.514  10.285  0.7228 -0.9913 -1.0395
10250TIP3   OH252164   0.823   2.573   2.337 -0.4863  0.3040  0.3237
10250TIP3    H152165   0.887   2.503   2.334 -0.6038  0.2309 -0.5156
10250TIP3    H252166   0.814   2.594   2.430  0.6092  0.1856  0.4592
10251TIP3   OH252167   5.591   0.425   1.592  0.4772 -0.6883  0.2117
10251TIP3    H152168   5.657   0.358   1.575  0.4525 -0.4742 -0.7512
10251TIP3    H252169   5.509   0.377   1.604  0.6275 -0.8849  0.4677
10252TIP3   OH252170   6.643   2.820   0.143 -0.6068  0.2099  0.0987
10252TIP3    H152171   6.667   2.768   0.220 -2.1185 -0.9143 -0.1910
10252TIP3    H252172   6.710   2.799   0.078 -0.6180 -0.5598  0.3393
10253TIP3   OH252173   6.419   1.533   5.748 -0.1499  0.0078  0.3783
10253TIP3    H152174   6.497   1.487   5.778 -0.7027  0.2707  2.2355
10253TIP3    H252175   6.413   1.609   5.805  0.2754  1.9912 -2.0967
10254TIP3   OH252176   6.143   4.457  16.772  0.3115 -0.0743  0.6124
10254TIP3    H152177   6.091   4.388  16.812 -1.3300  1.1866  0.7132
10254TIP3    H252178   6.232   4.423  16.770 -0.6607 -2.6450 -0.3767
10255TIP3   OH252179   4.414   5.706  12.211 -0.4945 -0.0185 -0.5516
10255TIP3    H152180   4.459   5.671  12.287 -0.8657  1.6787  0.4728
10255TIP3    H252181   4.477   5.767  12.172 -0.8472  0.2271 -0.7467
10256TIP3   OH252182   3.912   4.058  16.063 -0.1814 -0.2213 -0.3412
10256TIP3    H152183   3.886   4.149  16.082  0.6600 -0.2166  0.8309
10256TIP3    H252184   3.883   4.044  15.973 -1.5168  0.7756 -0.0974
10257TIP3   OH252185   1.953   1.551  12.516 -0.6514 -0.2112 -0.1196
10257TIP3    H152186   1.975   1.468  12.474  1.0777  0.0443  0.2230
10257TIP3    H252187   1.859   1.546  12.533 -0.4601 -2.3599  0.4637
10258TIP3   OH252188   5.083   5.645  15.479  0.4072  0.4186 -0.4045
10258TIP3    H152189   5.029   5.692  15.543  1.5777  2.0846 -0.6168
10258TIP3    H252190   5.110   5.711  15.416  0.7530 -0.8639 -1.6358
10259TIP3   OH252191   5.163   2.470  15.031  0.1493  0.5206  0.1835
10259TIP3    H152192   5.078   2.481  15.072  0.2468  0.6745  0.3460
10259TIP3    H252193   5.147   2.414  14.955  0.0997 -0.3667  0.8560
10260TIP3   OH252194   5.983   1.082   5.547 -0.6999 -0.4366 -0.2125
10260TIP3    H152195   6.001   1.041   5.632 -1.6405 -2.8619 -1.1267
10260TIP3    H252196   5.906   1.137   5.563 -0.7331 -0.6962  0.5526
10261TIP3   OH252197   3.266   4.851  16.393  0.3263 -0.3443 -0.1586
10261TIP3    H152198   3.300   4.786  16.454  0.3153  0.0467  0.2660
10261TIP3    H252199   3.249   4.802  16.312  0.8974 -0.7465 -0.0343
10262TIP3   OH252200   3.383   1.988  11.751  0.2733 -0.2685  0.1197
10262TIP3    H152201   3.453   1.970  11.814  0.8664 -0.1896 -0.5145
10262TIP3    H252202   3.357   2.078  11.770  0.0961 -0.4144  0.5910
10263TIP3   OH252203   0.021   5.485  16.920 -0.0029 -0.6346 -0.7745
10263TIP3    H152204  -0.016   5.532  16.995  0.1080  1.7086 -2.1359
10263TIP3    H252205  -0.053   5.476  16.860  0.2304 -1.3052 -0.9527
10264TIP3   OH252206   1.422   1.550  12.532  0.1989 -0.5686 -0.2470
10264TIP3    H152207   1.480   1.552  12.608 -0.3388 -1.6752  0.2012
10264TIP3    H252208   1.358   1.620  12.549  1.0168  0.2308 -0.4452
10265TIP3   OH252209   4.601   1.288   5.569  0.3359  0.3381  0.1255
10265TIP3    H152210   4.626   1.231   5.642 -0.2515 -1.3606 -0.9662
10265TIP3    H252211   4.675   1.348   5.559  0.0976  1.0969  2.5969
10266TIP3   OH252212   2.562   0.612   1.509 -0.1618 -0.0345 -0.0136
10266TIP3    H152213   2.478   0.592   1.551 -1.0607 -1.1762 -2.3056
10266TIP3    H252214   2.539   0.668   1.435  0.9184 -1.6353 -1.5818
10267TIP3   OH252215   0.381   4.884  14.884  0.3176  0.3352  0.0398
10267TIP3    H152216   0.440   4.858  14.813 -0.8745 -0.1208 -0.8057
10267TIP3    H252217   0.438   4.921  14.951  1.4892  0.5361 -1.0583
10268TIP3   OH252218   3.944   1.109   4.469 -0.1448 -0.5953 -0.5189
10268TIP3    H152219   3.995   1.183   4.502 -0.5817 -0.9199  0.9169
10268TIP3    H252220   3.869   1.104   4.528 -1.4854 -0.5512 -2.1999
10269TIP3   OH252221   5.803   1.807  11.622  0.2555  0.4526  0.1970
10269TIP3    H152222   5.834   1.843  11.539 -0.4465  1.6069  0.4286
10269TIP3    H252223   5.736   1.869  11.652 -0.5147 -0.7095  0.9205
10270TIP3   OH252224   0.615   3.728  16.541  0.1093  0.1889 -0.0795
10270TIP3    H152225   0.568   3.650  16.571  0.5949  0.5135  1.5530
10270TIP3    H252226   0.642   3.772  16.621  1.4045  1.0968 -0.9985
10271TIP3   OH252227   2.760   2.312   4.252 -0.2483 -0.6202  0.6077
10271TIP3    H152228   2.793   2.402   4.246 -1.0789 -0.3843 -0.5160
10271TIP3    H252229   2.675   2.320   4.295 -0.1356 -0.9182  0.8895
10272TIP3   OH252230   4.321   3.697   4.018  0.0767  0.1551 -0.6745
10272TIP3    H152231   4.355   3.713   4.106  0.0304  1.2573 -0.8467
10272TIP3    H252232   4.365   3.763   3.964  0.8485 -1.1535 -1.6518
10273TIP3   OH252233   0.443   4.994  14.438 -0.3024 -0.0863 -0.4587
10273TIP3    H152234   0.356   4.980  14.401 -2.2222  2.0098  2.9659
10273TIP3    H252235   0.472   5.078  14.402 -0.4717  0.0827 -0.1982
10274TIP3   OH252236   0.769   1.675   3.545  0.0199  0.4001  0.0073
10274TIP3    H152237   0.681   1.637   3.547  0.7904 -1.3795  1.5474
10274TIP3    H252238   0.814   1.629   3.475 -0.1676  1.0853 -0.5676
10275TIP3   OH252239   6.542   4.024   3.685 -0.2626  0.4468 -0.2307
10275TIP3    H152240   6.601   4.069   3.625 -1.2434  0.1691 -1.4289
10275TIP3    H252241   6.527   3.939   3.643  1.2047 -0.8387  1.7705
10276TIP3   OH252242   0.418   4.616   0.324 -0.2542 -0.6119 -0.1452
10276TIP3    H152243   0.510   4.590   0.324  0.0753  0.5286 -1.2521
10276TIP3    H252244   0.397   4.630   0.417  0.7042 -0.7891  0.1018
10277TIP3   OH252245   4.194   0.653   4.659  0.2489  0.3270  0.0428
10277TIP3    H152246   4.218   0.561   4.668  0.6298  0.4669  0.5415
10277TIP3    H252247   4.155   0.660   4.572 -1.2683 -0.6256  0.6286
10278TIP3   OH252248   0.952   3.343   0.544 -0.1234  0.0259  0.5716
10278TIP3    H152249   1.030   3.289   0.558  0.2068  0.6106  1.0050
10278TIP3    H252250   0.952   3.361   0.450 -0.8511 -1.6523  0.2376
10279TIP3   OH252251   4.722   6.702  16.953  0.3706 -0.4821 -0.1664
10279TIP3    H152252   4.751   6.621  16.995 -0.6936 -1.1472 -0.6963
10279TIP3    H252253   4.796   6.762  16.964 -0.0097 -0.5130  2.9907
10280TIP3   OH252254   1.541   6.541  12.915 -0.5031  0.0033  0.0647
10280TIP3    H152255   1.540   6.547  13.010  3.1879 -0.9171  0.2385
10280TIP3    H252256   1.572   6.452  12.897 -2.6632 -0.3576 -2.0182
10281TIP3   OH252257   1.479   6.118   2.677 -0.5242 -0.3583  0.2143
10281TIP3    H152258   1.424   6.070   2.615 -1.1083 -0.9509  1.1763
10281TIP3    H252259   1.420   6.140   2.750 -0.1847  1.5519 -0.0681
10282TIP3   OH252260   2.153   0.436  14.937 -0.2496 -0.0616 -0.1059
10282TIP3    H152261   2.177   0.447  14.845  0.7862  1.7551  0.3630
10282TIP3    H252262   2.235   0.444  14.985 -0.8233 -0.6865  1.0195
10283TIP3   OH252263   0.205   3.368   3.021  0.1895  0.0623 -0.0193
10283TIP3    H152264   0.208   3.285   2.975  2.9583 -0.4384  0.9615
10283TIP3    H252265   0.170   3.347   3.108  0.6765 -0.0503  0.1515
10284TIP3   OH252266   5.794   4.733  15.432 -0.2340  0.1945 -0.4560
10284TIP3    H152267   5.850   4.796  15.476 -0.7967  0.8598 -0.6812
10284TIP3    H252268   5.851   4.659  15.413  0.1100  0.0623  1.0202
10285TIP3   OH252269   2.823   1.188  11.172  0.9964  0.2365 -0.0196
10285TIP3    H152270   2.871   1.204  11.091 -0.7266  0.6841 -0.9712
10285TIP3    H252271   2.744   1.142  11.144  0.6150 -0.0420  1.4782
10286TIP3   OH252272   3.783   6.017   4.277  0.0919  0.1608  0.2566
10286TIP3    H152273   3.832   5.943   4.242 -0.0105  0.0323  0.3792
10286TIP3    H252274   3.847   6.068   4.326 -0.2719 -1.0934  2.1309
10287TIP3   OH252275   3.935   3.555   4.788 -0.0302  0.8524 -0.3233
10287TIP3    H152276   3.978   3.636   4.815  0.4690  1.1149 -1.8504
10287TIP3    H252277   4.007   3.496   4.764 -0.3391 -0.4407  1.8188
10288TIP3   OH252278   5.576   5.700   5.708 -0.2435  0.2926  0.1624
10288TIP3    H152279   5.573   5.760   5.783 -1.0601 -0.6774  0.9187
10288TIP3    H252280   5.484   5.687   5.685 -0.1286 -1.4487  0.6421
10289TIP3   OH252281   3.385   4.296   4.917 -0.2205 -0.1011  0.1884
10289TIP3    H152282   3.476   4.276   4.894  0.0946  0.3210  1.0669
10289TIP3    H252283   3.390   4.337   5.003 -1.3968 -1.5583  0.9555
10290TIP3   OH252284   5.529   0.540  12.994  0.2578 -0.0467 -0.0498
10290TIP3    H152285   5.497   0.471  12.936 -1.3154 -1.0462  1.9174
10290TIP3    H252286   5.623   0.526  13.000  0.3045 -0.4372 -1.6904
10291TIP3   OH252287   6.011   4.010   4.673 -0.4098  0.6947  0.1693
10291TIP3    H152288   6.014   4.061   4.592  1.6976  0.4483  0.0529
10291TIP3    H252289   6.100   3.974   4.681 -1.1814 -0.9307  1.5321
10292TIP3   OH252290   2.959   6.497   0.679  0.8381 -0.1533  0.3668
10292TIP3    H152291   2.892   6.437   0.645 -0.3112  0.5479  1.3701
10292TIP3    H252292   2.932   6.514   0.769  2.3679  0.1598  0.7659
10293TIP3   OH252293   6.658   3.419  16.641 -0.0411  0.0410  0.1373
10293TIP3    H152294   6.683   3.475  16.714  0.1647  0.8506 -0.5364
10293TIP3    H252295   6.582   3.462  16.603  0.2623 -0.0050 -0.5359
10294TIP3   OH252296   6.727   6.457   5.009 -0.2745 -0.4372 -0.0547
10294TIP3    H152297   6.742   6.364   4.992 -0.0872 -0.3576 -0.3295
10294TIP3    H252298   6.678   6.488   4.933 -1.9863 -0.7300  0.9091
10295TIP3   OH252299   6.499   4.983  14.992 -0.5687  0.0510  0.8396
10295TIP3    H152300   6.492   4.916  15.059 -1.5016 -0.1186  0.5799
10295TIP3    H252301   6.443   5.054  15.023 -2.6509 -0.8605 -0.7355
10296TIP3   OH252302   5.237   5.733  11.805 -0.3521 -0.0237 -0.9113
10296TIP3    H152303   5.238   5.758  11.897 -1.1251 -1.3597 -0.5233
10296TIP3    H252304   5.162   5.674  11.797 -0.0937 -0.1803 -2.3244
10297TIP3   OH252305   4.201   2.359   1.650 -0.3888  0.5626 -0.2312
10297TIP3    H152306   4.228   2.327   1.564 -0.2787  0.3478 -0.1165
10297TIP3    H252307   4.117   2.317   1.667  0.5828 -1.0517  0.6928
10298TIP3   OH252308   1.058   0.878   3.052  0.7987 -0.4406 -0.6239
10298TIP3    H152309   0.980   0.828   3.029  0.7863 -0.4895 -0.4737
10298TIP3    H252310   1.054   0.886   3.147  0.2017  0.8215 -0.7482
10299TIP3   OH252311   0.460   4.692   1.294 -0.2084 -0.1875  0.1434
10299TIP3    H152312   0.371   4.726   1.300  0.7661  2.4776  0.4219
10299TIP3    H252313   0.501   4.719   1.377  1.1614 -0.4181 -0.4529
10300TIP3   OH252314   0.356   3.047  12.677  0.1734  0.2264  0.2210
10300TIP3    H152315   0.348   2.988  12.602 -0.7473 -1.6846  1.7981
10300TIP3    H252316   0.394   2.994  12.747 -1.3655  1.2625  1.8960
10301TIP3   OH252317   2.967   3.251   2.522  0.2537  0.1982  0.0068
10301TIP3    H152318   2.886   3.213   2.489  1.1854 -0.4346 -1.6161
10301TIP3    H252319   2.986   3.202   2.602 -0.1377 -0.7251 -0.4600
10302TIP3   OH252320   5.685   6.661  15.969 -0.0704 -0.1678 -0.6340
10302TIP3    H152321   5.651   6.736  16.019  1.8529  0.8382 -0.7612
10302TIP3    H252322   5.743   6.616  16.031  0.7531 -0.0760 -1.3369
10303TIP3   OH252323   1.880   4.718  13.296 -0.4485 -0.2539 -0.1085
10303TIP3    H152324   1.891   4.811  13.277  0.4646 -0.7760 -2.2999
10303TIP3    H252325   1.810   4.690  13.237 -0.2317 -1.0962  0.0383
10304TIP3   OH252326   0.451   3.305   2.122  0.4411 -0.2199  0.1008
10304TIP3    H152327   0.494   3.230   2.164  1.0722 -0.6216 -1.2346
10304TIP3    H252328   0.358   3.283   2.121  0.7449 -1.5194 -1.3192
10305TIP3   OH252329   0.603   5.570  15.134 -0.1911  0.7061 -0.2090
10305TIP3    H152330   0.595   5.561  15.229 -0.8318 -0.9728 -0.4128
10305TIP3    H252331   0.556   5.651  15.113 -0.2213  0.9712  0.8723
10306TIP3   OH252332   5.737   5.711   0.661 -0.4161  0.4229  0.1407
10306TIP3    H152333   5.695   5.772   0.721  2.1493  1.3244  1.0562
10306TIP3    H252334   5.823   5.694   0.698  0.6638 -0.1819 -2.4764
10307TIP3   OH252335   4.053   0.618  12.412 -0.0240 -0.1820 -0.1091
10307TIP3    H152336   4.122   0.636  12.476  2.3359 -3.0848 -1.7184
10307TIP3    H252337   4.076   0.672  12.336  0.6045 -1.2747 -0.7076
10308TIP3   OH252338   5.129   0.041   1.204 -0.5080  0.2380 -0.2148
10308TIP3    H152339   5.132  -0.019   1.279 -0.5110 -0.9016 -1.1313
10308TIP3    H252340   5.076   0.114   1.235  0.0031  0.0681  1.1144
10309TIP3   OH252341   1.620   3.785   0.452 -0.5365  0.2538 -0.3174
10309TIP3    H152342   1.696   3.840   0.469  0.8989 -1.8202  0.1339
10309TIP3    H252343   1.605   3.792   0.357  1.9149 -1.4331 -0.8690
10310TIP3   OH252344   6.418   3.180  13.243 -0.8200  0.0539 -0.3684
10310TIP3    H152345   6.504   3.192  13.283 -1.2898  1.6006  0.1906
10310TIP3    H252346   6.428   3.213  13.154 -0.4615 -1.0876 -0.7672
10311TIP3   OH252347   0.794   4.880   5.484  0.0882  0.1220  0.5886
10311TIP3    H152348   0.718   4.826   5.506 -0.5971  1.6342  2.0067
10311TIP3    H252349   0.787   4.893   5.389 -1.1532 -0.1761  0.6259
10312TIP3   OH252350   3.641   0.416  13.041  0.0298 -0.2686 -0.4328
10312TIP3    H152351   3.675   0.472  13.110 -3.8164  0.7524  0.7657
10312TIP3    H252352   3.675   0.454  12.960 -0.2060  2.0870  0.5426
10313TIP3   OH252353   2.258   1.933  12.629 -0.3421  0.3264 -0.5707
10313TIP3    H152354   2.235   2.013  12.676  2.9819  0.1343  1.5553
10313TIP3    H252355   2.250   1.955  12.536 -3.0749  1.9584  0.0185
10314TIP3   OH252356   0.448   6.081  14.747 -0.6324 -0.0027  0.0566
10314TIP3    H152357   0.539   6.104  14.769 -0.9495  1.6227 -0.2918
10314TIP3    H252358   0.409   6.163  14.717 -1.5905 -1.1452 -1.9259
10315TIP3   OH252359   4.417   1.735  14.158  0.3123  0.0550  0.0919
10315TIP3    H152360   4.331   1.732  14.117  0.2062  0.0494  0.3183
10315TIP3    H252361   4.478   1.742  14.084  0.1347 -0.1918 -0.0793
10316TIP3   OH252362   0.152   4.656   5.181  0.3575 -0.2479  0.2680
10316TIP3    H152363   0.067   4.699   5.194  0.4080 -0.4268  1.1818
10316TIP3    H252364   0.144   4.572   5.227  0.5654 -0.8527 -0.7774
10317TIP3   OH252365   4.490   4.355   4.737  0.5344  0.2586 -0.3315
10317TIP3    H152366   4.561   4.303   4.699  0.6182  0.5010 -0.5056
10317TIP3    H252367   4.508   4.444   4.709 -0.2146  0.2212 -0.9422
10318TIP3   OH252368   2.305   5.070  14.038  0.4007  0.1540 -0.0448
10318TIP3    H152369   2.390   5.058  14.079 -0.0289 -0.2528  0.7517
10318TIP3    H252370   2.309   5.017  13.958  1.1255  0.6827 -0.3663
10319TIP3   OH252371   6.488   5.721   2.220 -0.9429 -0.4990 -0.2671
10319TIP3    H152372   6.492   5.625   2.229 -0.2191 -0.5122 -0.6906
10319TIP3    H252373   6.539   5.753   2.294 -1.5951 -0.4260  0.1544
10320TIP3   OH252374   4.798   0.795  13.552  0.4222 -0.1785 -0.0728
10320TIP3    H152375   4.876   0.742  13.536  0.9795  0.8930 -0.9468
10320TIP3    H252376   4.754   0.799  13.467 -0.8177 -1.1152  0.5052
10321TIP3   OH252377   4.585   3.331  15.161  0.4010 -0.3815 -0.1139
10321TIP3    H152378   4.599   3.423  15.139 -4.3158  1.2395  2.7567
10321TIP3    H252379   4.566   3.288  15.077  0.0586  1.8321 -1.1893
10322TIP3   OH252380   0.890   2.598   1.732 -0.8917  0.1824 -0.7126
10322TIP3    H152381   0.943   2.519   1.722 -0.0238  0.4725  1.5041
10322TIP3    H252382   0.938   2.666   1.685  1.8391  0.9304  2.9890
10323TIP3   OH252383   3.851   3.962  11.711  0.0595 -0.2443  0.5777
10323TIP3    H152384   3.881   4.045  11.750 -0.2844  0.6393 -1.0024
10323TIP3    H252385   3.928   3.930  11.664 -0.2010 -0.1566  0.0962
10324TIP3   OH252386   6.627   5.073   5.228 -0.5387 -0.0930  0.0871
10324TIP3    H152387   6.540   5.084   5.267 -0.5955  0.2972 -0.1407
10324TIP3    H252388   6.685   5.126   5.283 -0.5147 -0.0335  0.0059
10325TIP3   OH252389   6.711   4.793   5.235  0.5688  0.7293  0.0153
10325TIP3    H152390   6.710   4.889   5.235  0.5589  0.7298  0.1789
10325TIP3    H252391   6.619   4.768   5.237  0.5817  0.7170  0.4974
10326TIP3   OH252392   5.123   5.545  13.628 -0.1770 -0.8124 -0.0979
10326TIP3    H152393   5.085   5.614  13.574 -1.1783  0.5050  2.2526
10326TIP3    H252394   5.060   5.530  13.697  1.2388 -2.2623  0.9320
10327TIP3   OH252395   2.973   0.967  12.918 -0.7185  0.7594 -0.0761
10327TIP3    H152396   2.954   0.901  12.852 -1.4667  0.3551  0.5347
10327TIP3    H252397   3.058   1.003  12.892  0.4964 -1.5992  0.5050
10328TIP3   OH252398   5.643   0.094  14.647 -0.3330 -0.0113 -0.4746
10328TIP3    H152399   5.657   0.163  14.712  0.1039 -0.6548  0.1214
10328TIP3    H252400   5.547   0.087  14.641 -0.3796  0.1616 -0.0143
10329TIP3   OH252401   1.718   5.888  12.477 -0.5201  0.3404 -0.6251
10329TIP3    H152402   1.661   5.964  12.466 -0.9653  0.1804  0.4774
10329TIP3    H252403   1.771   5.886  12.397 -2.8923 -0.2229 -2.2410
10330TIP3   OH252404   1.923   5.691   1.628  0.1546  0.4899 -0.6470
10330TIP3    H152405   1.903   5.598   1.639 -1.8012  1.2281  2.9395
10330TIP3    H252406   1.867   5.720   1.556 -0.2491 -0.8338 -0.8691
10331TIP3   OH252407   5.676   3.263  12.324 -0.2154  0.4959  1.0213
10331TIP3    H152408   5.588   3.299  12.315  0.0731  1.1531  0.8211
10331TIP3    H252409   5.734   3.331  12.289  0.2174 -0.8098 -0.8595
10332TIP3   OH252410   3.819   3.013  15.801  0.0887  0.8144 -0.3992
10332TIP3    H152411   3.853   2.981  15.884 -1.0867 -0.0760 -0.2496
10332TIP3    H252412   3.726   2.991  15.803  0.4334 -1.1831 -2.8215
10333TIP3   OH252413   0.281   2.954   4.600 -0.2763 -0.2607  0.2486
10333TIP3    H152414   0.245   3.026   4.547 -0.6591 -0.6972 -0.0809
10333TIP3    H252415   0.207   2.921   4.651  0.2313  0.5885  1.5622
10334TIP3   OH252416   0.057   2.314   0.838  0.0585  0.2127  0.1622
10334TIP3    H152417  -0.001   2.290   0.910  1.1211 -0.5801  0.7780
10334TIP3    H252418   0.033   2.255   0.766 -0.1086  0.1022  0.3091
10335TIP3   OH252419   6.166   1.995  16.566 -0.0331 -0.1250 -0.1942
10335TIP3    H152420   6.241   1.951  16.608  1.4152  2.4742  0.0180
10335TIP3    H252421   6.128   2.049  16.635 -2.1218 -1.3524 -0.3277
10336TIP3   OH252422   6.756   6.231  11.043  0.0975 -0.1220 -0.1727
10336TIP3    H152423   6.696   6.197  10.977  0.2324  3.2006 -2.1199
10336TIP3    H252424   6.704   6.295  11.092  0.4913 -1.3250  1.8959
10337TIP3   OH252425   5.957   6.055   3.826 -0.1816  0.6336  0.4663
10337TIP3    H152426   6.018   6.006   3.881  0.4335 -0.2075 -0.9589
10337TIP3    H252427   5.911   5.989   3.775  0.1408  1.4894 -0.9491
10338TIP3   OH252428   1.564   5.283   1.681  0.4986 -0.0791 -0.3496
10338TIP3    H152429   1.468   5.272   1.682  0.2355  1.8947 -0.6186
10338TIP3    H252430   1.590   5.275   1.772  0.3794 -2.7326 -0.5023
10339TIP3   OH252431   4.414   5.014  13.371  0.8461 -0.2607 -0.3241
10339TIP3    H152432   4.354   4.944  13.396  1.3753 -0.1089  1.3936
10339TIP3    H252433   4.394   5.086  13.430 -0.1331  1.3138 -2.4979
10340TIP3   OH252434   4.018   6.603  14.259  0.2476  0.1359  0.0006
10340TIP3    H152435   4.088   6.663  14.237  0.5492 -0.3820 -0.4668
10340TIP3    H252436   3.938   6.655  14.250  0.5791  0.7785  0.7361
10341TIP3   OH252437   1.432   5.431   2.325  0.5528 -0.8544 -0.4031
10341TIP3    H152438   1.441   5.506   2.266  0.2201 -1.2949 -1.0208
10341TIP3    H252439   1.347   5.443   2.366 -0.2440 -1.7584 -1.7435
10342TIP3   OH252440   3.118   2.980   3.941 -0.4476 -0.0555 -0.6771
10342TIP3    H152441   3.141   3.073   3.942  1.1958 -0.4474  1.2771
10342TIP3    H252442   3.188   2.939   3.891 -0.5002 -0.4092 -0.4600
10343TIP3   OH252443   0.563   0.455   3.713  0.2991  0.4206  0.3477
10343TIP3    H152444   0.480   0.497   3.690 -0.4540 -0.3590  1.5676
10343TIP3    H252445   0.549   0.423   3.802  2.6444  2.1134  1.3472
10344TIP3   OH252446   6.054   3.097   1.753  0.6476  0.7912 -0.5868
10344TIP3    H152447   5.982   3.156   1.772  1.3818  1.7670 -0.7965
10344TIP3    H252448   6.125   3.154   1.722  1.7906 -0.0450  0.4214
10345TIP3   OH252449   6.426   3.466  12.683  0.0356  0.2074 -0.1876
10345TIP3    H152450   6.377   3.486  12.763  1.9856  0.8285  0.8876
10345TIP3    H252451   6.409   3.374  12.666 -0.7764  0.1976  0.6615
10346TIP3   OH252452   1.137   5.668  12.219 -0.3120 -0.1053 -0.1111
10346TIP3    H152453   1.171   5.739  12.273 -2.0206  0.6625 -0.0249
10346TIP3    H252454   1.123   5.596  12.280 -0.4788  0.1388  0.1353
10347TIP3   OH252455   1.455   4.811   1.622 -0.4125 -0.1094 -0.6896
10347TIP3    H152456   1.432   4.730   1.667  0.6518 -0.1878 -0.2648
10347TIP3    H252457   1.524   4.849   1.676 -0.6220  0.8740 -1.1128
10348TIP3   OH252458   1.398   6.061   4.395  0.6269 -0.4863 -0.3574
10348TIP3    H152459   1.362   6.037   4.310 -0.0020 -0.5930 -0.0657
10348TIP3    H252460   1.446   6.142   4.379  1.7025 -1.2599 -1.0921
10349TIP3   OH252461   3.291   0.318   3.423  0.2290 -0.0941 -0.4350
10349TIP3    H152462   3.271   0.405   3.390  0.4156  0.4405  0.8539
10349TIP3    H252463   3.255   0.316   3.511  0.5415 -1.2004 -0.3205
10350TIP3   OH252464   2.700   2.892   1.152  0.1162  0.3614  0.6725
10350TIP3    H152465   2.786   2.859   1.175  0.2981  0.3583 -0.0144
10350TIP3    H252466   2.643   2.863   1.224  0.5611 -0.1760  0.8098
10351TIP3   OH252467   4.783   3.333  14.917  0.2585 -0.2804  0.4240
10351TIP3    H152468   4.871   3.317  14.952  1.0616 -1.0217 -1.8224
10351TIP3    H252469   4.746   3.245  14.904 -0.2794 -0.0059  0.0649
10352TIP3   OH252470   0.043   5.607  11.768  0.9935  0.0284  0.5436
10352TIP3    H152471   0.080   5.665  11.835  2.7455  0.3510 -0.6530
10352TIP3    H252472   0.074   5.644  11.685 -1.5712 -0.0472 -0.5015
10353TIP3   OH252473   4.959   2.518  15.982 -0.3937 -0.1638 -0.5253
10353TIP3    H152474   4.988   2.608  15.966 -0.5577 -0.2378 -1.2807
10353TIP3    H252475   4.937   2.485  15.895  1.0653 -1.4106 -0.4398
10354TIP3   OH252476   5.877   4.298   3.515  0.2894 -0.1236 -0.1968
10354TIP3    H152477   5.946   4.315   3.450  1.9663  0.9160  1.7994
10354TIP3    H252478   5.855   4.206   3.502  0.7650  0.0090 -2.0864
10355TIP3   OH252479   0.863   0.426  13.580 -0.4805 -0.0304 -0.0476
10355TIP3    H152480   0.826   0.339  13.594 -0.3150 -0.2247 -0.8145
10355TIP3    H252481   0.907   0.447  13.663 -1.0566 -0.4124  0.3529
10356TIP3   OH252482   2.664   4.550   5.980  0.0126  0.1397  0.4834
10356TIP3    H152483   2.665   4.456   5.965 -0.2871  0.3975 -1.2579
10356TIP3    H252484   2.664   4.559   6.076 -0.3922 -1.6214  0.6651
10357TIP3   OH252485   1.933   2.671  14.288 -0.1936  0.4591 -0.0881
10357TIP3    H152486   1.950   2.591  14.338  1.0955  0.9147  0.1957
10357TIP3    H252487   2.017   2.715  14.283 -0.8403  1.6554 -0.5264
10358TIP3   OH252488   4.974   0.440   5.795 -0.0314 -0.8300  0.0985
10358TIP3    H152489   4.990   0.535   5.792  0.1943 -0.8994 -1.1126
10358TIP3    H252490   4.940   0.419   5.708 -2.1516 -1.5010  1.0657
10359TIP3   OH252491   0.135   0.155   0.137 -0.2566  0.3966  0.0419
10359TIP3    H152492   0.135   0.097   0.061  0.9956  0.3979  0.0352
10359TIP3    H252493   0.131   0.096   0.212  1.4499  0.2746  0.0472
10360TIP3   OH252494   2.590   4.178   3.782  0.3441 -0.7822  0.1663
10360TIP3    H152495   2.552   4.178   3.693  2.3992  1.8929 -0.7807
10360TIP3    H252496   2.684   4.180   3.768  0.6802  0.7487  2.4140
10361TIP3   OH252497   4.399   5.171   3.725  0.3363  0.4667  0.0859
10361TIP3    H152498   4.413   5.133   3.812  0.9692  0.7137  0.0967
10361TIP3    H252499   4.372   5.097   3.671  0.3062  0.2417  0.4088
10362TIP3   OH252500   1.423   5.830  15.681  1.0001  0.0126  0.0118
10362TIP3    H152501   1.359   5.768  15.717 -0.6157  0.5090 -1.9119
10362TIP3    H252502   1.458   5.875  15.758 -1.3580  0.1018  1.0826
10363TIP3   OH252503   3.753   0.477   0.394  0.2641  0.3979  0.1079
10363TIP3    H152504   3.671   0.494   0.348  0.4446  2.0672  0.3736
10363TIP3    H252505   3.780   0.563   0.426  0.9072 -0.5128  2.0447
10364TIP3   OH252506   3.750   0.333  12.272 -0.4132 -0.2161  0.0050
10364TIP3    H152507   3.833   0.334  12.225 -0.4600 -0.9289 -0.0910
10364TIP3    H252508   3.687   0.371  12.210 -0.0647  0.8090  0.2693
10365TIP3   OH252509   1.929   0.452  16.079 -0.0950 -0.2321 -0.3481
10365TIP3    H152510   1.862   0.456  16.011 -2.1614 -0.3821  1.6283
10365TIP3    H252511   2.001   0.507  16.046 -1.9448  1.4163 -1.7139
10366TIP3   OH252512   1.863   0.106  11.195  0.2110  0.6978  0.4052
10366TIP3    H152513   1.953   0.139  11.186  0.7828 -0.8346  0.2474
10366TIP3    H252514   1.857   0.037  11.129 -0.5461 -0.3150  1.5185
10367TIP3   OH252515   4.772   6.766  13.065 -0.0450 -0.0615  0.3168
10367TIP3    H152516   4.717   6.763  13.144 -0.8463 -0.1985 -0.2358
10367TIP3    H252517   4.837   6.833  13.084 -1.3699  1.2372  0.3993
10368TIP3   OH252518   3.714   1.057   3.022 -0.3075 -0.2048 -0.1534
10368TIP3    H152519   3.736   0.981   3.075 -1.3413 -0.5008 -0.1456
10368TIP3    H252520   3.645   1.101   3.071 -0.3375  0.2523 -0.6032
10369TIP3   OH252521   4.828   2.258   1.090 -0.1130  0.4323 -0.3291
10369TIP3    H152522   4.793   2.302   1.013 -1.0261 -1.3929 -1.0078
10369TIP3    H252523   4.750   2.224   1.135  0.6313 -2.3117 -1.0070
10370TIP3   OH252524   5.275   3.351  15.803  0.8667 -0.2820 -0.0875
10370TIP3    H152525   5.239   3.385  15.721 -0.4907 -1.2009  0.1024
10370TIP3    H252526   5.348   3.296  15.776  2.2176  1.6727 -0.4788
10371TIP3   OH252527   6.442   1.138  15.061  0.1887 -0.1989 -0.5463
10371TIP3    H152528   6.460   1.055  15.106  0.8295 -0.6494 -1.6051
10371TIP3    H252529   6.476   1.205  15.120  1.6168 -0.8202 -0.6294
10372TIP3   OH252530   6.126   4.751   1.169  0.2464  0.5012 -0.1640
10372TIP3    H152531   6.208   4.701   1.172  1.2628  1.9569 -2.2967
10372TIP3    H252532   6.140   4.824   1.229  0.3911  0.5615 -0.2694
10373TIP3   OH252533   5.977   4.263  15.074 -0.3487  0.0140  0.1638
10373TIP3    H152534   5.946   4.321  15.005 -0.3973 -0.9526 -0.6308
10373TIP3    H252535   6.032   4.318  15.129  1.5745  0.2365 -1.9581
10374TIP3   OH252536   0.832   2.168   4.184 -0.0526  0.1815 -0.1003
10374TIP3    H152537   0.769   2.213   4.127 -0.0408 -0.5579 -0.7020
10374TIP3    H252538   0.917   2.181   4.142  0.2347  1.3090  0.7909
10375TIP3   OH252539   2.956   4.038   5.690  0.2286 -0.1947 -0.4858
10375TIP3    H152540   3.008   3.970   5.733  0.5353 -0.0679 -0.6558
10375TIP3    H252541   2.903   3.991   5.626  1.1203 -0.1671 -1.2535
10376TIP3   OH252542   1.073   6.639   4.940 -0.0443  0.4661 -0.3254
10376TIP3    H152543   1.061   6.734   4.942  0.6460  0.5385  1.7147
10376TIP3    H252544   1.005   6.605   4.999  1.8249 -0.0311  1.5803
10377TIP3   OH252545   2.468   1.424   5.904 -0.1263 -0.3154  0.0957
10377TIP3    H152546   2.383   1.391   5.934 -0.1764  0.6826  1.0698
10377TIP3    H252547   2.533   1.372   5.953 -0.1657 -0.8201 -0.3753
10378TIP3   OH252548   4.523   6.044  14.422  0.2071 -0.9870 -0.2082
10378TIP3    H152549   4.515   5.999  14.506  1.4322  1.9492  1.5672
10378TIP3    H252550   4.443   6.096  14.416  0.6281 -0.3512 -0.3240
10379TIP3   OH252551   6.027   4.303   2.358  0.1324 -0.7208  0.1144
10379TIP3    H152552   5.993   4.380   2.312  1.7389 -0.7998 -1.2706
10379TIP3    H252553   6.078   4.339   2.430 -0.0084 -0.5109  0.1083
10380TIP3   OH252554   2.720   3.412  10.142 -0.1668 -0.2209 -0.5797
10380TIP3    H152555   2.766   3.380  10.220 -0.1933 -0.3426 -0.6118
10380TIP3    H252556   2.771   3.487  10.113 -0.0884 -0.2479 -0.5135
10381TIP3   OH252557   6.019   6.649  13.166 -0.1143  0.5386  0.0266
10381TIP3    H152558   6.008   6.678  13.257  1.4300 -0.0304  0.4143
10381TIP3    H252559   6.102   6.602  13.166 -0.5717 -0.2989 -1.4858
10382TIP3   OH252560   4.237   3.543   6.578  0.1900 -0.0945 -0.0031
10382TIP3    H152561   4.269   3.530   6.489  0.2767 -1.3072  0.1847
10382TIP3    H252562   4.161   3.600   6.569  0.9149  0.7679 -0.7222
10383TIP3   OH252563   3.054   6.631  16.221 -0.1383 -0.1769  0.2847
10383TIP3    H152564   3.008   6.551  16.196  1.6199 -0.5635 -1.8141
10383TIP3    H252565   2.985   6.698  16.222 -1.0016 -0.9758 -1.6300
10384TIP3   OH252566   1.634   3.710   1.660 -0.7991  0.2693  0.1546
10384TIP3    H152567   1.569   3.779   1.665 -0.9956  0.0276  1.0537
10384TIP3    H252568   1.703   3.745   1.604 -1.3875  0.7830 -0.2422
10385TIP3   OH252569   1.985   5.520   3.949  0.4299  0.3144  0.7788
10385TIP3    H152570   1.930   5.534   4.026 -0.2204 -0.2031  0.4095
10385TIP3    H252571   2.029   5.604   3.936  0.9173  0.2630  1.9970
10386TIP3   OH252572   4.445   2.370   5.736  0.4719 -0.2080 -0.2346
10386TIP3    H152573   4.463   2.276   5.739  0.9154 -0.0951  1.4516
10386TIP3    H252574   4.464   2.400   5.825  1.9372  1.7750 -1.1783
10387TIP3   OH252575   5.178   1.238   5.374 -0.3040 -0.3018  0.5476
10387TIP3    H152576   5.220   1.272   5.454  0.4513  1.1675 -0.4422
10387TIP3    H252577   5.221   1.285   5.303 -1.4319 -1.1154 -0.6979
10388TIP3   OH252578   0.166   0.417  16.517 -0.1856 -0.0366 -0.5349
10388TIP3    H152579   0.139   0.379  16.601 -1.0892  2.4704  0.3384
10388TIP3    H252580   0.258   0.393  16.509  0.5732  1.7237  2.3465
10389TIP3   OH252581   1.563   6.053  12.316 -0.5115 -0.2239  0.3884
10389TIP3    H152582   1.484   6.089  12.356  0.4724  2.0395  0.3494
10389TIP3    H252583   1.544   6.051  12.222  0.0713  1.9410  0.1979
10390TIP3   OH252584   1.765   0.308   1.495  0.2238  0.0109 -0.1811
10390TIP3    H152585   1.723   0.337   1.576  2.8745 -0.4170  1.3952
10390TIP3    H252586   1.813   0.229   1.520  0.7830 -0.3447 -2.2737
10391TIP3   OH252587   0.864   0.109   2.007 -0.3265 -0.5246  0.7855
10391TIP3    H152588   0.816   0.027   2.021 -1.0085 -0.0817  1.0146
10391TIP3    H252589   0.945   0.098   2.057  1.2292 -2.5188 -2.0209
10392TIP3   OH252590   5.047   2.190   1.271  0.4213 -0.0145 -0.4644
10392TIP3    H152591   4.984   2.220   1.206 -0.4787  1.6312  1.1437
10392TIP3    H252592   5.121   2.250   1.263  0.4821 -0.0585 -0.2477
10393TIP3   OH252593   2.078   4.493  14.727  0.6528  0.0009  0.2879
10393TIP3    H152594   2.017   4.478  14.799  0.3338 -0.2415 -0.0350
10393TIP3    H252595   2.066   4.585  14.704  0.5608  0.0076  0.3621
10394TIP3   OH252596   1.829   6.625   2.876  0.2381  0.8647 -0.5342
10394TIP3    H152597   1.839   6.586   2.789  0.2054  0.5817 -0.4134
10394TIP3    H252598   1.916   6.617   2.915 -0.0820 -0.2874 -0.0206
10395TIP3   OH252599   5.805   3.807  11.287 -0.2185 -0.1477  0.0622
10395TIP3    H152600   5.840   3.886  11.329 -1.0582  0.0949  0.2981
10395TIP3    H252601   5.821   3.737  11.351 -0.7307  0.0753  0.4410
10396TIP3   OH252602   4.526   2.572  12.920  0.3152 -0.1174  0.6519
10396TIP3    H152603   4.527   2.644  12.983  0.7861  1.2817 -0.9153
10396TIP3    H252604   4.437   2.573  12.884 -0.5032 -2.0655  2.5682
10397TIP3   OH252605   0.224   0.915  10.965  0.3516 -0.0669  0.2421
10397TIP3    H152606   0.137   0.876  10.979 -0.3392  1.3073 -0.0500
10397TIP3    H252607   0.215   0.960  10.880  1.6663 -0.7506 -0.2661
10398TIP3   OH252608   5.651   4.714  13.611 -0.2025  0.2315 -0.6238
10398TIP3    H152609   5.585   4.650  13.638  0.8094 -0.1761  0.9961
10398TIP3    H252610   5.717   4.710  13.680  0.3651  2.3248 -1.0135
10399TIP3   OH252611   4.884   0.930   4.392  0.6980 -0.0771  0.4502
10399TIP3    H152612   4.976   0.958   4.394 -0.1697  2.9529  1.5311
10399TIP3    H252613   4.888   0.834   4.390  3.8796 -0.0191  0.9088
10400TIP3   OH252614   4.463   2.455   2.890  0.0748  0.3371  0.0259
10400TIP3    H152615   4.545   2.440   2.843 -0.5143 -0.3032 -0.8032
10400TIP3    H252616   4.468   2.400   2.968  0.9299  1.1862  0.5869
10401TIP3   OH252617   2.555   4.149   3.469 -0.2196  0.0272  0.7592
10401TIP3    H152618   2.582   4.185   3.384 -0.0123 -0.5960  0.5624
10401TIP3    H252619   2.544   4.055   3.453  0.5715 -0.2118  1.6126
10402TIP3   OH252620   0.372   1.534   6.712  0.1444  0.5206  0.1027
10402TIP3    H152621   0.285   1.573   6.720 -0.9916 -1.7139 -1.0439
10402TIP3    H252622   0.365   1.474   6.638  2.5143 -0.1006  0.3461
10403TIP3   OH252623   2.339   4.432  16.863 -0.1964  0.0901 -0.2792
10403TIP3    H152624   2.393   4.511  16.870 -1.7434  1.0429  0.9549
10403TIP3    H252625   2.390   4.364  16.908  0.4038  0.7502  0.0409
10404TIP3   OH252626   2.507   4.609  14.441  0.1205 -0.2621  0.5566
10404TIP3    H152627   2.466   4.693  14.421 -0.0404 -0.5554 -0.3556
10404TIP3    H252628   2.566   4.592  14.368  0.9950 -0.4143  1.2840
10405TIP3   OH252629   0.344   5.028   3.753  0.2722  0.0850  0.4903
10405TIP3    H152630   0.280   5.041   3.683 -1.8370 -1.2069  2.1022
10405TIP3    H252631   0.382   4.942   3.735 -0.4307 -0.3452  1.0361
10406TIP3   OH252632   3.237   1.734  10.665  0.4223 -0.1281  0.3810
10406TIP3    H152633   3.279   1.812  10.701  0.5156 -0.1001  0.2137
10406TIP3    H252634   3.233   1.750  10.571 -1.6918  0.6931  0.6071
10407TIP3   OH252635   1.144   5.855   4.164  0.2063  0.7431 -0.3522
10407TIP3    H152636   1.149   5.771   4.119  0.6921  0.6329 -0.0957
10407TIP3    H252637   1.064   5.896   4.130 -0.4776 -0.1810  0.1469
10408TIP3   OH252638   6.049   2.139   6.427  0.3790 -0.0180  0.0148
10408TIP3    H152639   6.050   2.088   6.346 -0.6160 -1.2290  0.7600
10408TIP3    H252640   6.076   2.078   6.495 -0.7348  0.4590  0.8996
10409TIP3   OH252641   5.529   6.164   4.825 -0.1672 -0.3536 -0.0587
10409TIP3    H152642   5.544   6.187   4.916 -3.6774  1.3769  0.1642
10409TIP3    H252643   5.496   6.245   4.785  1.1031 -1.1406 -2.8358
10410TIP3   OH252644   0.061   3.684  13.538 -0.4324 -0.0340 -0.2246
10410TIP3    H152645   0.049   3.702  13.631  0.3224  2.0556 -0.5105
10410TIP3    H252646   0.004   3.609  13.521 -2.0435  0.7466  1.5124
10411TIP3   OH252647   4.977   3.085  15.430  0.1530 -0.6344  0.0496
10411TIP3    H152648   4.930   3.088  15.513  0.2284  1.2304  0.0504
10411TIP3    H252649   4.913   3.112  15.364  0.8404  0.6201 -0.1222
10412TIP3   OH252650   3.188   5.977   5.757  0.2948 -0.2833 -0.5580
10412TIP3    H152651   3.196   6.035   5.682  1.3959  1.5068  0.8976
10412TIP3    H252652   3.094   5.973   5.774  0.2014  1.0059 -0.7284
10413TIP3   OH252653   2.442   4.451   1.489  0.4066  0.6531 -0.3989
10413TIP3    H152654   2.390   4.520   1.529  0.8895 -0.0449  1.4879
10413TIP3    H252655   2.525   4.492   1.467  0.6452  0.7086  0.6031
10414TIP3   OH252656   5.780   2.414   3.795  0.1448  0.2321  0.3397
10414TIP3    H152657   5.774   2.390   3.702 -0.3972 -0.8841  0.6544
10414TIP3    H252658   5.696   2.387   3.832  0.3667  0.6637  1.1630
10415TIP3   OH252659   0.779   4.632  12.897  0.3379  0.4426  0.1640
10415TIP3    H152660   0.797   4.708  12.952 -1.2756  0.7156  0.3577
10415TIP3    H252661   0.703   4.658  12.845  2.1212  0.3852 -2.5891
10416TIP3   OH252662   5.156   2.358  11.033  0.2601  0.4993  0.0816
10416TIP3    H152663   5.230   2.376  10.976  1.3515 -2.1668  0.5678
10416TIP3    H252664   5.079   2.384  10.982  1.3553  0.3303 -1.6888
10417TIP3   OH252665   5.524   4.191  16.676  0.1857  0.5645  0.2346
10417TIP3    H152666   5.604   4.237  16.649  0.9787 -0.2679  1.1151
10417TIP3    H252667   5.480   4.169  16.593 -0.0754  2.6391 -0.1992
10418TIP3   OH252668   3.363   6.487  13.388 -0.2221  0.3524 -0.3768
10418TIP3    H152669   3.306   6.417  13.356  0.9157  0.5997 -3.0897
10418TIP3    H252670   3.303   6.553  13.422 -1.3749 -1.0541  0.3915
10419TIP3   OH252671   3.130   0.526   6.476 -0.1458  0.3299  0.1349
10419TIP3    H152672   3.073   0.598   6.448 -3.1792 -0.9747  2.6235
10419TIP3    H252673   3.160   0.552   6.563 -0.7194 -1.0828  0.7667
10420TIP3   OH252674   3.947   5.020  13.397 -0.2369 -0.2635  0.1526
10420TIP3    H152675   3.987   5.091  13.348 -2.4888 -1.4157 -3.5565
10420TIP3    H252676   3.992   4.941  13.365  0.6473 -0.7524  2.5240
10421TIP3   OH252677   4.259   3.375   2.619 -0.6589  0.1940 -0.0726
10421TIP3    H152678   4.296   3.360   2.706 -0.5974 -0.4830 -0.2153
10421TIP3    H252679   4.284   3.465   2.597 -1.8165  0.8375  1.1744
10422TIP3   OH252680   0.160   3.234  13.283  0.0994  0.6617  0.5587
10422TIP3    H152681   0.213   3.165  13.322 -0.2900 -0.2684 -0.5183
10422TIP3    H252682   0.216   3.312  13.287  0.4668  0.3454  1.9656
10423TIP3   OH252683   6.129   5.871   6.026  0.1800  0.2473 -0.6243
10423TIP3    H152684   6.046   5.830   6.049  0.4003 -0.4035 -0.9510
10423TIP3    H252685   6.160   5.820   5.951  2.2380 -1.3945  1.2376
10424TIP3   OH252686   0.307   4.198  10.920  0.0893  0.1503 -0.0742
10424TIP3    H152687   0.386   4.159  10.883 -0.7794  0.3717 -2.2204
10424TIP3    H252688   0.339   4.269  10.975  1.4569 -0.8320  0.4225
10425TIP3   OH252689   5.086   1.018   1.101 -0.0071  0.2593 -0.5298
10425TIP3    H152690   5.008   1.024   1.156  1.5329  1.8827  1.5637
10425TIP3    H252691   5.112   0.926   1.104 -0.6005  0.1241  0.5241
10426TIP3   OH252692   1.176   1.607  12.823  0.2547  0.0014  0.4809
10426TIP3    H152693   1.089   1.640  12.846 -0.6326 -0.8428 -1.5294
10426TIP3    H252694   1.192   1.640  12.735  2.2104  0.5469  1.0190
10427TIP3   OH252695   0.295   3.130   5.243 -0.6475  0.0588  0.0177
10427TIP3    H152696   0.337   3.046   5.226 -0.1900  0.4660 -0.8961
10427TIP3    H252697   0.204   3.108   5.264 -0.5735 -0.6499 -0.4112
10428TIP3   OH252698   0.779   3.676   5.858 -0.5708  0.0690  0.2071
10428TIP3    H152699   0.776   3.667   5.954 -2.1675  0.7316  0.2401
10428TIP3    H252700   0.845   3.743   5.842 -0.5979  0.2610  0.8782
10429TIP3   OH252701   6.722   6.178   4.923  0.7022 -0.2590  0.2760
10429TIP3    H152702   6.639   6.130   4.930  0.4329  0.0457 -0.6876
10429TIP3    H252703   6.782   6.117   4.881  0.4465  0.1409 -0.6737
10430TIP3   OH252704   1.084   5.617   0.167 -0.1360 -0.2043  0.0848
10430TIP3    H152705   1.180   5.613   0.175 -0.0992  1.1767  0.6155
10430TIP3    H252706   1.069   5.690   0.107 -0.8831  0.3626  0.9484
10431TIP3   OH252707   3.009   2.009  15.708  0.5202  0.4955 -0.2744
10431TIP3    H152708   2.994   2.069  15.781  0.6724  2.2481 -1.6382
10431TIP3    H252709   3.074   1.947  15.741 -0.9569 -0.0291  1.7666
10432TIP3   OH252710   6.363   4.513   4.649  0.8704 -0.6589  0.3566
10432TIP3    H152711   6.457   4.504   4.667  0.9337  0.1057  0.4206
10432TIP3    H252712   6.356   4.499   4.554  0.6818 -3.4991  0.7591
10433TIP3   OH252713   4.293   1.592  11.563  0.5629  0.0511 -0.0354
10433TIP3    H152714   4.245   1.524  11.516  0.1931  0.0421  0.3518
10433TIP3    H252715   4.246   1.673  11.541  0.0001 -0.0324  0.8163
10434TIP3   OH252716   4.614   5.847  16.919  0.1803  0.4430 -0.1028
10434TIP3    H152717   4.595   5.940  16.911  1.0252  0.6853  0.5899
10434TIP3    H252718   4.529   5.805  16.930 -0.1385  1.2153  0.3981
10435TIP3   OH252719   4.871   5.254  12.576 -0.3682 -0.0167 -0.6595
10435TIP3    H152720   4.965   5.268  12.562 -0.2180 -1.3586 -1.0157
10435TIP3    H252721   4.856   5.286  12.665  0.7150 -1.1386 -0.0629
10436TIP3   OH252722   4.841   3.933   1.732  0.3507 -0.6050 -0.2183
10436TIP3    H152723   4.849   3.848   1.775  0.8986 -0.6030 -0.3047
10436TIP3    H252724   4.919   3.939   1.677  0.6384  0.2184  0.2664
10437TIP3   OH252725   1.873   1.143   2.599  0.1840  0.7624 -0.5145
10437TIP3    H152726   1.857   1.208   2.530 -0.2708  1.5328  0.2995
10437TIP3    H252727   1.822   1.067   2.573  1.4394  0.3728 -1.9584
10438TIP3   OH252728   0.326   1.442   2.935  0.0708 -0.2391 -0.4596
10438TIP3    H152729   0.313   1.481   2.849 -1.3633  0.1682 -0.0631
10438TIP3    H252730   0.311   1.348   2.921 -0.0511 -0.1880 -0.6677
10439TIP3   OH252731   6.175   1.059   4.119  0.3743 -0.4039  0.4572
10439TIP3    H152732   6.122   1.136   4.140  2.2934  1.7605 -2.3091
10439TIP3    H252733   6.113   0.987   4.116 -2.0363  1.6672 -0.4383
10440TIP3   OH252734   3.256   4.647   5.000  0.2337  0.1323 -0.1466
10440TIP3    H152735   3.318   4.595   5.051  1.1370  1.4778  0.1439
10440TIP3    H252736   3.170   4.621   5.033  0.8210  1.6215  2.6994
10441TIP3   OH252737   5.858   4.671   1.731  0.2694 -0.4104 -0.2746
10441TIP3    H152738   5.855   4.601   1.796 -0.4764 -0.4841 -0.3817
10441TIP3    H252739   5.766   4.697   1.719  0.6301  1.4205  0.6721
10442TIP3   OH252740   1.400   5.367   0.718  0.2296  0.8285  0.1323
10442TIP3    H152741   1.334   5.326   0.664  0.0718  0.5072  0.5657
10442TIP3    H252742   1.374   5.460   0.722  0.8668  1.0691 -1.2490
10443TIP3   OH252743   1.726   6.297   2.107  0.0501 -0.0823 -0.2187
10443TIP3    H152744   1.645   6.263   2.144  0.3422 -1.7423 -1.0817
10443TIP3    H252745   1.783   6.311   2.182 -1.1699  1.5273  0.4446
10444TIP3   OH252746   3.691   3.211   2.172  0.4629 -0.4327 -0.3075
10444TIP3    H152747   3.647   3.291   2.144  0.3577 -0.7158 -0.9551
10444TIP3    H252748   3.780   3.238   2.192  0.5793 -0.2661 -1.0715
10445TIP3   OH252749   2.159   6.677   1.020  0.0771  0.0887  0.5988
10445TIP3    H152750   2.174   6.733   1.097 -3.4948  0.6038  1.0143
10445TIP3    H252751   2.146   6.738   0.948  0.8323 -0.3509  0.0770
10446TIP3   OH252752   2.647   5.366  15.320  0.7479 -0.5653 -0.2167
10446TIP3    H152753   2.692   5.396  15.241 -0.0110  1.2587  0.0043
10446TIP3    H252754   2.708   5.304  15.360  1.4132 -1.0351 -1.8940
10447TIP3   OH252755   3.039   0.691  17.079  0.3820  0.2525  0.0150
10447TIP3    H152756   2.947   0.691  17.103 -0.0908 -1.8448 -1.6892
10447TIP3    H252757   3.077   0.618  17.128  0.9498  0.5131 -0.0229
10448TIP3   OH252758   5.657   2.750   5.607  0.1688  0.2172 -0.0550
10448TIP3    H152759   5.700   2.834   5.596  0.2796  0.2326  0.4773
10448TIP3    H252760   5.629   2.725   5.519 -0.3420  1.0650 -0.1390
10449TIP3   OH252761   5.378   0.158  13.319 -0.0222  0.1284  0.2118
10449TIP3    H152762   5.398   0.230  13.380  1.0726 -1.1173  1.3605
10449TIP3    H252763   5.461   0.110  13.311 -0.5281 -0.5385 -1.1776
10450TIP3   OH252764   0.059   1.172   1.186  0.5404 -0.7027  0.1779
10450TIP3    H152765  -0.020   1.212   1.151  0.5224 -1.1970 -0.3493
10450TIP3    H252766   0.034   1.143   1.274  0.5373  0.3831  0.5318
10451TIP3   OH252767   2.775   2.575   0.320  0.0846 -0.0587 -0.6086
10451TIP3    H152768   2.851   2.620   0.356  0.4013  0.5125 -1.9619
10451TIP3    H252769   2.736   2.530   0.395  0.2855  1.7077  0.5890
10452TIP3   OH252770   4.363   3.507  11.434 -0.2132  1.4357 -0.0668
10452TIP3    H152771   4.457   3.517  11.445 -0.0315  0.3489 -0.5690
10452TIP3    H252772   4.352   3.492  11.340 -0.7449  0.0601  0.2123
10453TIP3   OH252773   3.367   5.423   3.094  0.0814  0.6432  0.0185
10453TIP3    H152774   3.301   5.488   3.118 -0.0487  0.1587  1.0215
10453TIP3    H252775   3.354   5.351   3.157  1.7943  0.7037  0.4729
10454TIP3   OH252776   6.380   5.401  12.270 -0.3636  0.5036  0.6554
10454TIP3    H152777   6.333   5.351  12.203  1.2466  1.0067 -0.8900
10454TIP3    H252778   6.396   5.338  12.340 -0.0916 -0.6489 -0.4107
10455TIP3   OH252779   2.952   2.115   4.134  0.0392  0.2555  0.5451
10455TIP3    H152780   2.972   2.149   4.047  0.9035  1.3950  1.1625
10455TIP3    H252781   2.881   2.172   4.166  0.8371  0.8910  1.2104
10456TIP3   OH252782   5.334   6.150   0.610  0.3499  0.1025 -0.4319
10456TIP3    H152783   5.310   6.242   0.616  1.4347  0.3301  0.5703
10456TIP3    H252784   5.320   6.127   0.518  0.3685  1.3469 -0.7452
10457TIP3   OH252785   6.655   5.771   5.392 -1.0320 -0.0617 -0.1439
10457TIP3    H152786   6.634   5.715   5.467 -1.5562  0.5052  0.1425
10457TIP3    H252787   6.749   5.783   5.396 -1.0163 -0.3125  0.2334
10458TIP3   OH252788   1.759   2.044  16.958  0.4490  0.7876 -0.4022
10458TIP3    H152789   1.686   1.990  16.989 -0.0101  1.1152 -0.9082
10458TIP3    H252790   1.824   1.980  16.927  0.5530  0.4861  0.4359
10459TIP3   OH252791   6.548   4.052  13.677 -0.6128 -0.6447 -0.3613
10459TIP3    H152792   6.507   4.138  13.678 -0.9379 -0.8065  0.2989
10459TIP3    H252793   6.616   4.056  13.744  1.3405  0.0417 -2.3431
10460TIP3   OH252794   2.555   2.252  15.634 -0.2816  0.1008  0.3010
10460TIP3    H152795   2.492   2.262  15.705  0.3832 -0.4826  0.9792
10460TIP3    H252796   2.638   2.284  15.670  0.5231 -2.1299  0.4921
10461TIP3   OH252797   0.753   2.740  14.048  0.0529  0.2634 -0.0059
10461TIP3    H152798   0.713   2.683  14.113  1.7276 -0.3030  0.5461
10461TIP3    H252799   0.810   2.682  13.997  0.1620  1.0536 -0.7926
10462TIP3   OH252800   2.987   1.575  15.404  0.2618  0.0146  0.2501
10462TIP3    H152801   3.058   1.550  15.463 -1.0691 -0.6956  1.5723
10462TIP3    H252802   2.970   1.496  15.352  0.1542  0.0468  0.2354
10463TIP3   OH252803   1.381   6.298   1.836 -0.1544 -0.0173 -0.0230
10463TIP3    H152804   1.407   6.206   1.847 -0.6661 -0.5335 -2.9584
10463TIP3    H252805   1.461   6.347   1.856  1.1316 -1.2706 -1.8741
10464TIP3   OH252806   0.083   2.383   3.208  0.3678 -0.0101 -1.0606
10464TIP3    H152807   0.044   2.322   3.271  0.2055 -1.1040 -2.2217
10464TIP3    H252808   0.171   2.400   3.243  0.4204 -0.9197 -0.7408
10465TIP3   OH252809   6.214   6.505   3.705 -0.2081  0.0399 -0.3097
10465TIP3    H152810   6.270   6.506   3.783  0.3514  0.6052 -0.7158
10465TIP3    H252811   6.195   6.597   3.688  0.4832 -0.0056 -1.4155
10466TIP3   OH252812   0.979   2.727  14.448 -0.5985  0.0377 -0.9178
10466TIP3    H152813   1.037   2.658  14.415 -0.4283  0.1044 -0.7620
10466TIP3    H252814   0.898   2.716  14.398 -0.4562 -0.0641 -1.1291
10467TIP3   OH252815   3.031   5.656  10.813  0.3765 -0.3193  0.2357
10467TIP3    H152816   2.956   5.696  10.855  0.4685  2.6796 -2.2374
10467TIP3    H252817   3.106   5.684  10.865  0.2070  0.6801 -0.0551
10468TIP3   OH252818   0.795   6.289  16.222  0.0131  0.2975  0.1031
10468TIP3    H152819   0.876   6.314  16.266  0.7668  0.0456 -1.1405
10468TIP3    H252820   0.801   6.329  16.135 -1.7308  1.2832  0.4119
10469TIP3   OH252821   1.156   0.481  13.252  0.0955  0.0214  0.5319
10469TIP3    H152822   1.203   0.528  13.184  0.9314 -0.9532  0.4119
10469TIP3    H252823   1.198   0.395  13.255 -2.3943 -1.2630 -0.3183
10470TIP3   OH252824   1.778   4.637  12.989  0.0495  0.3292 -0.5572
10470TIP3    H152825   1.764   4.565  13.051 -0.5311  0.9496  0.0537
10470TIP3    H252826   1.732   4.610  12.910 -1.0590  0.4908  0.0235
10471TIP3   OH252827   6.613   1.305  11.735  0.5756  0.4688  0.1947
10471TIP3    H152828   6.675   1.308  11.663  1.5529  0.4497  1.0215
10471TIP3    H252829   6.653   1.246  11.799 -1.8622 -2.2494 -0.6951
10472TIP3   OH252830   0.036   6.176  16.534 -0.4758 -0.0142  0.1985
10472TIP3    H152831  -0.045   6.185  16.483  0.3254  0.7170 -0.9797
10472TIP3    H252832   0.043   6.082  16.551 -0.8518 -0.2575 -0.9196
10473TIP3   OH252833   6.046   2.018   6.159 -0.1521 -0.3989 -0.2533
10473TIP3    H152834   5.988   2.001   6.085 -0.5182 -0.3902  0.0296
10473TIP3    H252835   6.125   1.967   6.140  0.1834  0.4451 -1.1709
10474TIP3   OH252836   5.605   6.379   1.516 -0.1107  0.0329 -0.0784
10474TIP3    H152837   5.698   6.391   1.537 -0.1657 -0.2675  0.3585
10474TIP3    H252838   5.604   6.315   1.445  0.1559  2.0908 -1.9850
10475TIP3   OH252839   0.064   3.951  16.507  0.2627  0.4884  0.4109
10475TIP3    H152840  -0.013   4.005  16.523  0.4167  0.6955  0.4531
10475TIP3    H252841   0.034   3.861  16.520 -0.3226  0.4760 -0.9629
10476TIP3   OH252842   0.979   6.194  14.391 -0.2576  0.1868 -0.6360
10476TIP3    H152843   0.936   6.148  14.319 -1.2257  1.3311 -0.8020
10476TIP3    H252844   0.947   6.284  14.385 -0.2121  0.3396  1.1164
10477TIP3   OH252845   6.048   4.385   3.326  0.1569 -1.1056 -0.6397
10477TIP3    H152846   6.079   4.442   3.256 -1.4269  1.0670  0.3540
10477TIP3    H252847   6.127   4.362   3.375  0.6606  1.6841 -0.0550
10478TIP3   OH252848   4.500   5.048   3.957  0.1451 -0.5289 -0.7389
10478TIP3    H152849   4.582   5.078   3.917  0.2938  1.4078  0.9117
10478TIP3    H252850   4.526   5.017   4.044 -0.7632 -0.5026 -0.4532
10479TIP3   OH252851   6.404   0.891  12.738  0.2254 -0.3740  0.0671
10479TIP3    H152852   6.464   0.944  12.685 -0.4751  0.2365 -0.1297
10479TIP3    H252853   6.339   0.860  12.675  0.5414 -1.3319  0.2149
10480TIP3   OH252854   2.231   5.208  12.764 -0.2449 -0.3184  0.0099
10480TIP3    H152855   2.294   5.272  12.730 -1.7429  0.9724 -0.4196
10480TIP3    H252856   2.266   5.184  12.850  0.7859  0.4491 -0.1801
10481TIP3   OH252857   5.344   6.060  16.897  0.3957  0.1103  0.0347
10481TIP3    H152858   5.298   6.103  16.969  0.8087 -0.0155  0.3771
10481TIP3    H252859   5.404   6.000  16.940  0.9643  0.3636 -0.4088
10482TIP3   OH252860   6.383   0.241   2.468  0.3086  0.1804 -0.0347
10482TIP3    H152861   6.457   0.296   2.493  0.1227  0.5093 -0.2123
10482TIP3    H252862   6.310   0.272   2.521  0.3899 -0.3922  0.4119
10483TIP3   OH252863   5.061   2.251  12.761  0.2665  0.4821  0.2379
10483TIP3    H152864   5.074   2.166  12.805  1.1142  0.0128 -0.8895
10483TIP3    H252865   5.108   2.242  12.678  1.0961  2.3658  0.4791
10484TIP3   OH252866   1.654   0.538  15.977  0.2501  0.2316  0.0574
10484TIP3    H152867   1.632   0.527  16.069  2.6533  0.7518  0.7445
10484TIP3    H252868   1.651   0.449  15.940  0.1310 -0.0918  0.8487
10485TIP3   OH252869   1.861   6.740  15.620 -0.5399 -0.3268 -0.3945
10485TIP3    H152870   1.928   6.797  15.655 -1.4430 -0.1240  1.0226
10485TIP3    H252871   1.901   6.653  15.617 -0.6816 -0.4866  1.8369
10486TIP3   OH252872   6.351   1.203  12.697  0.2281  0.4159  0.0443
10486TIP3    H152873   6.359   1.293  12.729  1.0787  0.3564  0.0137
10486TIP3    H252874   6.441   1.172  12.692 -0.1151 -0.8068  1.1017
10487TIP3   OH252875   0.144   4.666   3.029  0.2985  0.3138 -0.2489
10487TIP3    H152876   0.126   4.670   3.123 -0.9870  1.3311 -0.5111
10487TIP3    H252877   0.088   4.735   2.992  0.8512 -0.0356 -1.7420
10488TIP3   OH252878   3.178   3.428  11.587  0.5849 -0.0546 -0.2401
10488TIP3    H152879   3.109   3.428  11.654  1.5424 -2.8255  0.8091
10488TIP3    H252880   3.258   3.406  11.635  1.6607  0.0013 -1.9691
10489TIP3   OH252881   2.647   5.600  13.791 -0.1781  0.0756  0.9577
10489TIP3    H152882   2.600   5.664  13.845  0.4192  0.5441  0.9237
10489TIP3    H252883   2.738   5.607  13.820  0.0648 -0.0109  0.2203
10490TIP3   OH252884   1.892   0.193  15.832  0.0619 -0.0452  0.2259
10490TIP3    H152885   1.799   0.210  15.815 -0.1557 -1.6075 -0.2598
10490TIP3    H252886   1.937   0.271  15.801 -1.2170  1.4595  2.0339
10491TIP3   OH252887   2.817   4.112  12.191  0.1585  0.3104 -0.2029
10491TIP3    H152888   2.904   4.104  12.231 -0.8162 -0.2259  1.8222
10491TIP3    H252889   2.813   4.203  12.162  1.9047 -0.0062 -1.5543
10492TIP3   OH252890   0.264   2.435   0.663 -0.0947  0.1580  0.5581
10492TIP3    H152891   0.258   2.350   0.620 -0.2846  1.2506 -1.6695
10492TIP3    H252892   0.195   2.434   0.729 -2.3181 -0.2173 -1.6775
10493TIP3   OH252893   4.610   5.460   5.629  0.3324  0.6020  0.8356
10493TIP3    H152894   4.538   5.398   5.638  1.8674 -1.6298 -1.4355
10493TIP3    H252895   4.656   5.455   5.713  0.8281 -1.9212  0.4631
10494TIP3   OH252896   3.614   4.025  13.910 -0.2414  0.3824 -0.1928
10494TIP3    H152897   3.621   3.957  13.977  2.4307  0.3567 -0.4629
10494TIP3    H252898   3.604   3.977  13.828  0.3251  0.3505 -0.2413
10495TIP3   OH252899   3.789   4.164  11.130  0.0987  0.0555  0.0445
10495TIP3    H152900   3.696   4.179  11.111 -0.7067 -1.1852  2.7116
10495TIP3    H252901   3.820   4.246  11.168 -0.0957  0.2063 -0.1200
10496TIP3   OH252902   3.850   5.723  13.418 -0.2003 -0.1746 -0.3158
10496TIP3    H152903   3.933   5.692  13.380  0.5017  0.5223  0.6532
10496TIP3    H252904   3.869   5.735  13.511 -1.6312 -0.8438  0.0797
10497TIP3   OH252905   1.054   2.705  14.729 -0.4100  0.4085  0.0965
10497TIP3    H152906   1.040   2.621  14.773 -0.6808  1.2275  1.5922
10497TIP3    H252907   1.017   2.693  14.641  0.1473 -1.2426  0.0646
10498TIP3   OH252908   2.932   0.502  13.353 -0.0760 -0.7549 -0.1716
10498TIP3    H152909   2.896   0.575  13.403 -0.8879 -1.0077 -0.3867
10498TIP3    H252910   2.926   0.427  13.412 -0.5337 -0.9383 -0.4468
10499TIP3   OH252911   4.365   1.657   1.974  0.8987 -0.0177  0.4652
10499TIP3    H152912   4.335   1.567   1.966  1.5085 -0.1360 -0.5784
10499TIP3    H252913   4.460   1.650   1.983  1.0640  0.5613 -0.7111
10500TIP3   OH252914   0.504   1.356  13.266  0.1336  0.0170 -0.0313
10500TIP3    H152915   0.534   1.340  13.177  0.9180 -0.2881  0.2813
10500TIP3    H252916   0.471   1.446  13.265  1.8343  0.6423 -0.1819
10501TIP3   OH252917   3.183   4.819   1.261  0.2963  0.3989  0.9785
10501TIP3    H152918   3.222   4.900   1.227 -1.3491  1.0737  0.6310
10501TIP3    H252919   3.094   4.819   1.226 -0.4868 -0.3796  2.8938
10502TIP3   OH252920   0.338   0.364  12.726  0.1981  0.1470  0.5420
10502TIP3    H152921   0.279   0.398  12.658  1.8324  4.1293  0.9469
10502TIP3    H252922   0.418   0.342  12.678  0.1748 -0.3222  0.7200
10503TIP3   OH252923   1.506   5.567   2.097 -0.3249  0.3918  0.0196
10503TIP3    H152924   1.523   5.510   2.022 -0.9081  0.3099 -0.0488
10503TIP3    H252925   1.412   5.581   2.097 -0.3063  0.5689  0.6122
10504TIP3   OH252926   4.749   5.422   6.655 -0.3943  0.7684  0.1547
10504TIP3    H152927   4.766   5.340   6.701 -2.7880  0.6050  0.8270
10504TIP3    H252928   4.770   5.490   6.719  1.1014  0.6991 -0.2344
10505TIP3   OH252929   2.292   2.366  16.616  0.0355 -0.0896 -0.1743
10505TIP3    H152930   2.279   2.318  16.535 -0.8264 -1.0421  0.5191
10505TIP3    H252931   2.306   2.456  16.588 -0.7596 -0.3171 -1.3570
10506TIP3   OH252932   0.497   3.507  11.761  0.6410 -0.0114  1.2742
10506TIP3    H152933   0.498   3.446  11.687  0.5930  2.5332 -0.9206
10506TIP3    H252934   0.589   3.520  11.783  0.7003 -0.1677  1.1204
10507TIP3   OH252935   0.657   1.719  14.796  0.1358  0.4471 -0.0551
10507TIP3    H152936   0.697   1.633  14.782  0.0165  0.4326 -0.2992
10507TIP3    H252937   0.686   1.771  14.721 -1.9803 -0.1512 -1.3146
10508TIP3   OH252938   2.660   2.372  17.105  0.6783  0.1828 -0.5883
10508TIP3    H152939   2.666   2.277  17.105  0.3709  0.1660 -0.8668
10508TIP3    H252940   2.717   2.399  17.178  1.7270 -0.1446 -1.2792
10509TIP3   OH252941   6.289   4.158  14.687  0.6299 -0.2776  0.7845
10509TIP3    H152942   6.283   4.068  14.658 -0.6490 -0.5473  1.8203
10509TIP3    H252943   6.207   4.173  14.736  0.6295  1.5555  0.2616
10510TIP3   OH252944   1.879   1.907   0.882 -0.2770  0.1660  0.0931
10510TIP3    H152945   1.935   1.919   0.806  3.0435 -0.4453  2.2945
10510TIP3    H252946   1.825   1.985   0.885  0.7409  0.9891 -1.9229
10511TIP3   OH252947   1.347   3.777   0.569  0.2530  0.3476  0.2396
10511TIP3    H152948   1.433   3.763   0.531  0.4125 -1.2569  1.1387
10511TIP3    H252949   1.309   3.689   0.575 -1.3590  1.0115  0.0513
10512TIP3   OH252950   2.433   3.571   1.499  0.3844  0.1889 -0.2532
10512TIP3    H152951   2.370   3.572   1.427  0.3982  0.2121 -0.2650
10512TIP3    H252952   2.382   3.550   1.577  0.4458 -0.3052 -0.3453
10513TIP3   OH252953   5.739   5.669   3.024 -0.2891 -0.2600  0.2049
10513TIP3    H152954   5.761   5.577   3.008 -0.2246  0.0357 -1.5100
10513TIP3    H252955   5.665   5.686   2.966  1.0849  1.3649 -1.1206
10514TIP3   OH252956   5.675   0.332   5.683  0.2749  0.6208 -0.0110
10514TIP3    H152957   5.604   0.393   5.701  0.2475  0.2064  1.3180
10514TIP3    H252958   5.737   0.382   5.631  0.1904  1.7428  0.9563
10515TIP3   OH252959   2.291   5.445  11.525 -0.0626 -0.2074  0.1381
10515TIP3    H152960   2.267   5.441  11.618 -1.0837  1.0622 -0.0521
10515TIP3    H252961   2.316   5.355  11.503 -2.5383 -1.1461  0.9317
10516TIP3   OH252962   2.859   3.125  15.070  0.4291  0.0345 -0.2641
10516TIP3    H152963   2.799   3.105  14.999 -2.3274 -0.6093  2.1540
10516TIP3    H252964   2.875   3.219  15.061 -0.3377  0.0677 -1.4036
10517TIP3   OH252965   3.673   3.587   0.373  0.0195  0.7047  0.2015
10517TIP3    H152966   3.601   3.531   0.345  0.3916  0.6792 -0.7306
10517TIP3    H252967   3.636   3.640   0.444 -1.0502  1.0275 -0.5836
10518TIP3   OH252968   2.448   0.870   4.774  0.2465  0.3920  0.2450
10518TIP3    H152969   2.436   0.777   4.756 -1.2153  0.5644  0.2840
10518TIP3    H252970   2.539   0.877   4.803 -0.2081 -1.3125  2.1811
10519TIP3   OH252971   3.201   6.786   4.468 -0.1359  0.1276 -0.8085
10519TIP3    H152972   3.192   6.877   4.498  1.1350  0.3385 -1.0108
10519TIP3    H252973   3.245   6.793   4.384  1.7417 -0.7626  0.0615
10520TIP3   OH252974   3.306   5.732  10.712  0.1513 -0.1140  0.0422
10520TIP3    H152975   3.270   5.744  10.800  0.8690  0.5029  0.2565
10520TIP3    H252976   3.304   5.638  10.697 -0.9654 -0.1482  0.2972
10521TIP3   OH252977   2.005   2.271   1.894  0.1258  0.5155  0.3724
10521TIP3    H152978   2.035   2.183   1.870  0.1923  0.3454  1.0555
10521TIP3    H252979   2.003   2.319   1.812 -1.3652 -0.5628 -0.2698
10522TIP3   OH252980   0.059   5.204   0.337  0.3058 -0.1993 -0.4827
10522TIP3    H152981  -0.017   5.262   0.339 -0.4656 -1.2228  1.2300
10522TIP3    H252982   0.054   5.162   0.252 -0.3463  0.6694 -0.8856
10523TIP3   OH252983   0.374   2.457   4.047  0.0937 -0.0074  0.0048
10523TIP3    H152984   0.429   2.535   4.045 -0.5914  0.4632 -1.3757
10523TIP3    H252985   0.397   2.413   4.128  1.6251  0.8103  0.0229
10524TIP3   OH252986   1.485   2.485   0.056  0.1348 -0.4818 -0.0475
10524TIP3    H152987   1.468   2.437   0.138 -0.7265  0.8369  0.5701
10524TIP3    H252988   1.481   2.418  -0.012 -0.3062 -1.4180  0.8748
10525TIP3   OH252989   0.037   5.142   0.056  0.5353 -0.4442 -0.1107
10525TIP3    H152990  -0.005   5.095  -0.017 -0.6752 -0.0021  0.2771
10525TIP3    H252991   0.128   5.153   0.029  1.0664 -3.7003  0.1363
10526TIP3   OH252992   4.304   5.431  16.204 -0.0501  0.7120  0.1897
10526TIP3    H152993   4.394   5.422  16.235  0.1693  0.4748 -0.4944
10526TIP3    H252994   4.263   5.493  16.264  0.3342  0.2016  0.9888
10527TIP3   OH252995   6.655   3.601  16.851 -0.2087 -0.2083 -0.5910
10527TIP3    H152996   6.599   3.628  16.924 -0.2868  0.4045 -0.8788
10527TIP3    H252997   6.640   3.666  16.783  2.5419  1.2710  0.1491
10528TIP3   OH252998   1.696   3.485   2.245 -0.5676 -0.0222 -0.2545
10528TIP3    H152999   1.753   3.505   2.171 -1.8097  0.1344 -1.1868
10528TIP3    H253000   1.738   3.411   2.289  1.3516  1.2976  0.1960
10529TIP3   OH253001   0.842   3.523  12.252  0.0915 -0.1524 -0.0589
10529TIP3    H153002   0.878   3.611  12.266  0.5827 -0.1821 -1.0874
10529TIP3    H253003   0.768   3.536  12.193 -1.0891 -0.1984  1.3727
10530TIP3   OH253004   0.975   2.418  15.795  0.1343 -0.1426 -0.1053
10530TIP3    H153005   0.934   2.401  15.880 -1.0839  0.8385 -0.4779
10530TIP3    H253006   1.056   2.465  15.816  0.1428 -0.4410  0.5423
10531TIP3   OH253007   5.493   3.237   5.904 -0.6404 -0.1221  0.3379
10531TIP3    H153008   5.512   3.291   5.981 -1.3540 -0.1381  0.5267
10531TIP3    H253009   5.479   3.149   5.940  0.0525 -0.3426  0.0810
10532TIP3   OH253010   1.354   4.371   5.752 -0.2361  0.2616  0.1771
10532TIP3    H153011   1.341   4.459   5.787  1.3462  1.1129 -1.2906
10532TIP3    H253012   1.390   4.320   5.825 -3.7387  0.0380  1.8609
10533TIP3   OH253013   4.242   1.189   5.174 -0.5703  0.2798  1.0142
10533TIP3    H153014   4.283   1.232   5.100 -0.8102 -1.3568 -0.1043
10533TIP3    H253015   4.285   1.227   5.251  0.8059  0.8571 -0.0216
10534TIP3   OH253016   1.835   6.422   4.386  0.5362 -0.5780  0.3023
10534TIP3    H153017   1.858   6.480   4.458  2.2516 -0.6933 -0.1158
10534TIP3    H253018   1.920   6.389   4.354 -0.4194 -4.2710  1.3089
10535TIP3   OH253019   5.932   4.579   4.673  0.4129  0.1461 -0.0016
10535TIP3    H153020   5.984   4.621   4.742 -0.1663  1.7999 -0.5511
10535TIP3    H253021   5.875   4.519   4.720  0.9748  0.2642  0.8451
10536TIP3   OH253022   3.136   4.666  17.228 -0.2790 -0.2421 -0.0862
10536TIP3    H153023   3.127   4.573  17.208 -1.0097 -0.2209  0.1180
10536TIP3    H253024   3.068   4.683  17.293  0.0615  0.3662  0.1127
10537TIP3   OH253025   1.174   6.631   6.327 -0.1327  0.6121  0.2640
10537TIP3    H153026   1.232   6.578   6.273  0.9518  1.7913  0.2370
10537TIP3    H253027   1.180   6.592   6.415 -0.3718 -0.1026 -0.0368
10538TIP3   OH253028   2.060   3.347   4.326  0.2154  0.7409 -0.3350
10538TIP3    H153029   1.981   3.380   4.366  0.3811  0.2635  0.3864
10538TIP3    H253030   2.126   3.414   4.343 -0.2091  1.5032 -1.6059
10539TIP3   OH253031   5.393   5.187  14.210  0.4424  0.0066 -0.1222
10539TIP3    H153032   5.379   5.097  14.239 -0.7595  0.3603  0.4190
10539TIP3    H253033   5.391   5.239  14.290  1.0347  0.5328 -0.4446
10540TIP3   OH253034   3.771   2.881  15.405 -0.2957 -0.6385  0.3269
10540TIP3    H153035   3.804   2.838  15.483 -0.5010  0.9085  1.2901
10540TIP3    H253036   3.836   2.859  15.337  0.4695 -1.0845  1.1886
10541TIP3   OH253037   4.724   5.526   3.839 -0.2037  0.4139 -0.3118
10541TIP3    H153038   4.748   5.523   3.747  1.0675  1.9515 -0.0552
10541TIP3    H253039   4.656   5.594   3.844 -1.3895 -0.7489 -0.3357
10542TIP3   OH253040   4.873   4.935   5.418  0.7315 -0.5035  0.2690
10542TIP3    H153041   4.790   4.979   5.402  0.2525 -0.6794  2.1543
10542TIP3    H253042   4.891   4.950   5.510  3.0962 -0.0036 -0.2375
10543TIP3   OH253043   1.416   1.938   0.222  0.4880 -0.1259 -0.7733
10543TIP3    H153044   1.439   1.853   0.184  2.3522 -0.5768  1.2140
10543TIP3    H253045   1.388   1.917   0.312  0.3308  1.3019 -0.4770
10544TIP3   OH253046   5.734   4.839  16.459  0.5020  0.2156  0.0356
10544TIP3    H153047   5.646   4.872  16.477  0.7607  0.8006  0.2349
10544TIP3    H253048   5.734   4.750  16.496 -0.0285  0.1765 -0.0462
10545TIP3   OH253049   4.550   2.213   1.086  0.3992 -0.5803 -0.1486
10545TIP3    H153050   4.497   2.140   1.119  1.1626 -0.2744  1.8038
10545TIP3    H253051   4.505   2.292   1.117  0.6345 -0.2673 -0.6065
10546TIP3   OH253052   2.916   0.035   5.602  0.1100  0.3324  0.0021
10546TIP3    H153053   2.989  -0.002   5.652 -0.0184 -0.6439 -0.5307
10546TIP3    H253054   2.838   0.013   5.655 -0.0206 -0.6543 -0.5842
10547TIP3   OH253055   1.451   0.283   1.237 -0.5739  0.1640  0.3260
10547TIP3    H153056   1.398   0.318   1.165 -1.6067  1.7432  1.8254
10547TIP3    H253057   1.389   0.231   1.288  0.5976 -2.6070 -0.9819
10548TIP3   OH253058   6.331   5.246   3.715 -0.1899  0.1245 -0.2936
10548TIP3    H153059   6.296   5.300   3.785  0.8881 -0.8895  1.0579
10548TIP3    H253060   6.351   5.308   3.645  0.8110  1.4794  1.1357
10549TIP3   OH253061   0.547   3.500  12.931 -0.0144 -0.2351 -0.3369
10549TIP3    H153062   0.632   3.537  12.956 -1.3388  0.7130  3.1049
10549TIP3    H253063   0.486   3.574  12.939 -1.6022 -1.5640  0.0215
10550TIP3   OH253064   4.362   5.660   2.848 -0.0524  0.3335 -0.5112
10550TIP3    H153065   4.364   5.567   2.824 -0.7909  0.5280 -1.3440
10550TIP3    H253066   4.449   5.677   2.884 -0.2120 -0.9030  0.4944
10551TIP3   OH253067   2.741   1.268   4.218  0.0277  0.1088  0.2933
10551TIP3    H153068   2.699   1.348   4.250  0.1101  0.8977 -1.5171
10551TIP3    H253069   2.828   1.296   4.190  0.3815 -0.7925  0.4620
10552TIP3   OH253070   1.832   3.678  14.702  0.2487  0.2487 -0.7942
10552TIP3    H153071   1.907   3.619  14.697  0.4407  0.5096 -1.0588
10552TIP3    H253072   1.795   3.664  14.789  0.2041 -0.3665 -0.9105
10553TIP3   OH253073   5.137   6.492  11.863 -0.2943  0.2964 -0.2187
10553TIP3    H153074   5.059   6.499  11.918 -0.1694  0.9039 -0.1109
10553TIP3    H253075   5.209   6.486  11.926 -0.2164  0.2046 -0.3159
10554TIP3   OH253076   5.844   6.085  15.437  0.5755  0.0502  0.6180
10554TIP3    H153077   5.895   6.006  15.419  3.0292  1.3659  1.5743
10554TIP3    H253078   5.845   6.133  15.354  0.1709 -0.3140  0.3999
10555TIP3   OH253079   3.593   4.917  15.116 -0.0177  0.0769 -0.0553
10555TIP3    H153080   3.654   4.951  15.051 -0.5683  1.0801 -0.0578
10555TIP3    H253081   3.510   4.908  15.069 -0.3514  0.5558  0.4297
10556TIP3   OH253082   6.610   5.326  11.304  0.1336  0.1254 -0.0142
10556TIP3    H153083   6.601   5.231  11.298  0.4275  0.0348  0.8093
10556TIP3    H253084   6.533   5.361  11.259 -0.1543 -0.5103 -0.0190
10557TIP3   OH253085   3.790   2.821   3.111 -0.0135 -0.0198 -0.3502
10557TIP3    H153086   3.776   2.764   3.035 -0.9779 -0.1289 -0.0885
10557TIP3    H253087   3.719   2.800   3.171  0.4328  0.4570  0.3596
10558TIP3   OH253088   4.263   6.202  11.882 -0.6703  0.0863  0.3041
10558TIP3    H153089   4.300   6.121  11.847  0.6923  0.8397 -0.0494
10558TIP3    H253090   4.328   6.232  11.946 -1.4602  0.5637  0.8833
10559TIP3   OH253091   3.646   6.068   0.051 -0.0974  0.3599  0.3962
10559TIP3    H153092   3.732   6.101   0.025 -0.5769  1.3804  0.0631
10559TIP3    H253093   3.593   6.147   0.064 -0.5441 -0.2103  2.1755
10560TIP3   OH253094   6.516   3.347   6.051 -0.0232  0.0094 -0.1380
10560TIP3    H153095   6.520   3.284   5.980  1.9367 -1.0062  0.8279
10560TIP3    H253096   6.592   3.404   6.036 -1.2714  1.6052 -0.5019
10561TIP3   OH253097   2.987   2.676  12.478 -0.0157  0.1174 -0.0769
10561TIP3    H153098   3.070   2.723  12.489  0.1209 -0.2247  0.3627
10561TIP3    H253099   2.922   2.746  12.473  0.2125  0.3690  0.3525
10562TIP3   OH253100   6.302   0.775   5.829  0.1801  0.4632  0.2611
10562TIP3    H153101   6.367   0.840   5.802 -0.7810  1.2359 -0.2388
10562TIP3    H253102   6.288   0.722   5.751  1.4906 -0.8256  0.8706
10563TIP3   OH253103   2.818   5.865   0.363  0.2072 -0.3309  0.7991
10563TIP3    H153104   2.836   5.773   0.343 -1.3676 -0.2678 -1.0463
10563TIP3    H253105   2.770   5.863   0.445 -1.2666 -1.2853 -0.0716
10564TIP3   OH253106   2.806   3.154  13.958  0.0532  0.6119 -0.1177
10564TIP3    H153107   2.886   3.175  13.909  0.7080  1.4478  1.2851
10564TIP3    H253108   2.761   3.090  13.903  1.0366  1.1194 -1.5640
10565TIP3   OH253109   2.488   0.687  16.873  0.0333  0.3664  0.1947
10565TIP3    H153110   2.478   0.596  16.903 -1.2175  0.4709  0.1010
10565TIP3    H253111   2.541   0.680  16.794 -0.2361 -0.3070  0.0704
10566TIP3   OH253112   2.179   2.937   4.961  0.1705 -0.6938  0.3463
10566TIP3    H153113   2.102   2.933   4.903 -0.0245  0.5820  0.4987
10566TIP3    H253114   2.252   2.959   4.903  0.0762 -0.0070  0.4735
10567TIP3   OH253115   0.067   1.318  13.214 -0.1882  0.5219  0.0937
10567TIP3    H153116   0.158   1.335  13.236  0.5471 -1.5027 -1.2250
10567TIP3    H253117   0.052   1.228  13.241 -1.2869  0.2909 -1.2384
10568TIP3   OH253118   4.683   2.598  15.000  0.0287 -0.0057 -0.1669
10568TIP3    H153119   4.597   2.556  14.996 -1.1382  2.3663 -0.8178
10568TIP3    H253120   4.693   2.623  15.092  0.2026 -0.6152 -0.0166
10569TIP3   OH253121   5.863   5.737  14.803 -0.7280 -0.0198  0.7665
10569TIP3    H153122   5.942   5.693  14.770 -1.6015 -1.6048  0.7645
10569TIP3    H253123   5.870   5.827  14.769  1.8327  0.3208  2.0231
10570TIP3   OH253124   5.597   4.046  15.823  0.2366 -0.1972  0.5171
10570TIP3    H153125   5.526   3.984  15.804 -1.2991  1.4471  0.7253
10570TIP3    H253126   5.571   4.127  15.779  0.1657  1.5393  3.5482
10571TIP3   OH253127   1.998   0.193  15.096  0.0223 -0.4102  0.0694
10571TIP3    H153128   1.951   0.113  15.120 -0.1244 -0.4673 -0.4041
10571TIP3    H253129   2.045   0.170  15.016 -1.9585  0.6954 -1.4454
10572TIP3   OH253130   1.233   1.502   0.007  1.0691  0.1828  0.1991
10572TIP3    H153131   1.215   1.439   0.077  0.5358  0.0281 -0.0729
10572TIP3    H253132   1.301   1.559   0.042 -0.2110  1.0095  1.3873
10573TIP3   OH253133   3.576   1.780  16.130  0.5869  0.1094 -0.1301
10573TIP3    H153134   3.665   1.747  16.131  0.2847 -0.7399 -0.4405
10573TIP3    H253135   3.524   1.707  16.096 -0.2724  0.4798  0.3742
10574TIP3   OH253136   2.708   1.402  12.136  0.6375 -0.1092 -0.0715
10574TIP3    H153137   2.785   1.415  12.191  0.8318  0.9136 -0.5699
10574TIP3    H253138   2.652   1.344  12.186  2.1003 -1.5425 -0.0661
10575TIP3   OH253139   1.451   5.577   2.890 -0.1794  0.3080 -0.0047
10575TIP3    H153140   1.533   5.530   2.876  0.1140  0.7276  0.2705
10575TIP3    H253141   1.447   5.590   2.985 -0.8457 -0.2106  0.0442
10576TIP3   OH253142   6.769   1.087  13.319  0.6976 -0.3094  0.0168
10576TIP3    H153143   6.820   1.027  13.374  1.1829 -1.1205 -1.2707
10576TIP3    H253144   6.684   1.094  13.363  1.5675  0.2428  1.6499
10577TIP3   OH253145   1.855   4.679  10.656 -0.1631 -0.3028 -0.2144
10577TIP3    H153146   1.808   4.635  10.585 -1.0976 -1.5134  1.1296
10577TIP3    H253147   1.902   4.609  10.701 -0.7576  0.2051  1.2425
10578TIP3   OH253148   4.591   5.911   1.171 -0.1429 -0.2123 -0.0974
10578TIP3    H153149   4.661   5.847   1.157  0.2912 -0.0453  1.2690
10578TIP3    H253150   4.518   5.878   1.119 -0.1503 -2.1990  1.1340
10579TIP3   OH253151   1.634   3.297  16.145  0.2798  0.4774 -0.0758
10579TIP3    H153152   1.577   3.227  16.114 -0.8347  0.8395  1.1110
10579TIP3    H253153   1.629   3.291  16.240  1.7581  0.8982  0.0333
10580TIP3   OH253154   2.897   3.882  15.183  0.3906 -0.2653  0.0373
10580TIP3    H153155   2.854   3.836  15.254  1.5421  0.1302  0.9982
10580TIP3    H253156   2.832   3.947  15.153 -0.5146 -1.2046 -0.0512
10581TIP3   OH253157   6.039   5.822  11.251  0.0934  0.2244  0.3735
10581TIP3    H153158   5.968   5.883  11.274  0.7129  1.1827 -0.2496
10581TIP3    H253159   6.119   5.865  11.280  0.6695  0.3615 -1.3654
10582TIP3   OH253160   1.536   5.728  13.197  1.1983  0.3005  0.1384
10582TIP3    H153161   1.522   5.678  13.278 -0.3231 -1.6311 -1.2594
10582TIP3    H253162   1.470   5.797  13.200 -0.7280 -1.4403 -0.7001
10583TIP3   OH253163   2.461   0.040  12.015  0.3216  0.1226 -0.2845
10583TIP3    H153164   2.440   0.027  11.922 -2.9193 -0.5337  0.4760
10583TIP3    H253165   2.502  -0.043  12.041 -0.6558 -0.4931 -0.6557
10584TIP3   OH253166   6.483   2.287  13.999  0.8298  0.1280  0.3238
10584TIP3    H153167   6.395   2.326  14.001  0.4881 -0.5372 -0.6528
10584TIP3    H253168   6.491   2.241  14.082 -0.1143 -0.5440  0.0573
10585TIP3   OH253169   3.091   1.614   2.394  0.4300  0.9163 -0.0386
10585TIP3    H153170   3.059   1.542   2.339 -0.5783  1.5202 -0.2410
10585TIP3    H253171   3.166   1.576   2.441 -1.0871 -0.7518  1.0749
10586TIP3   OH253172   1.751   0.538   0.230 -0.0979 -0.7338  0.3928
10586TIP3    H153173   1.704   0.537   0.147  0.5295  2.5087 -0.0767
10586TIP3    H253174   1.838   0.574   0.208 -0.4772  1.7519  2.6295
10587TIP3   OH253175   4.732   2.601   1.138  0.4386 -0.1390 -0.0496
10587TIP3    H153176   4.723   2.589   1.232  0.5882 -2.1185 -0.2633
10587TIP3    H253177   4.653   2.561   1.101  0.3957  0.5920 -0.7649
10588TIP3   OH253178   4.217   2.995   4.931  0.3723  0.0391 -0.7764
10588TIP3    H153179   4.139   2.982   4.986 -0.0696  0.1017 -1.3822
10588TIP3    H253180   4.289   3.000   4.993 -0.3475  1.9405 -0.0662
10589TIP3   OH253181   6.253   0.742   4.821 -0.2095  0.6309  0.0116
10589TIP3    H153182   6.348   0.753   4.820 -0.0889  0.2522  2.6558
10589TIP3    H253183   6.219   0.829   4.840 -0.4430  0.9050 -1.6190
10590TIP3   OH253184   2.704   2.025  12.066  0.4202 -0.7576 -1.0342
10590TIP3    H153185   2.691   2.001  11.974  2.1761 -0.2823 -1.4219
10590TIP3    H253186   2.780   2.084  12.065  0.8280 -1.2267  0.7860
10591TIP3   OH253187   4.530   5.386  15.546  0.1540  0.3094  0.1939
10591TIP3    H153188   4.504   5.415  15.634 -1.3939  1.4692 -0.6325
10591TIP3    H253189   4.452   5.343  15.511  0.1761  1.4626 -1.3087
10592TIP3   OH253190   1.959   5.455   3.093 -0.0407  0.1362  0.0252
10592TIP3    H153191   1.930   5.511   3.021  0.9103  0.6059  0.0024
10592TIP3    H253192   1.884   5.452   3.152 -0.7905 -0.1529 -0.9180
10593TIP3   OH253193   0.391   3.332  14.711  0.0487 -0.7466  0.1495
10593TIP3    H153194   0.388   3.427  14.709  1.7796 -0.6684  0.4131
10593TIP3    H253195   0.317   3.304  14.656 -2.3542  0.6984  2.5084
10594TIP3   OH253196   1.165   5.274   3.579  0.3867 -0.0861  0.1571
10594TIP3    H153197   1.168   5.301   3.487  0.6109  1.5308  0.6306
10594TIP3    H253198   1.187   5.181   3.576  0.5831 -0.0148 -1.4103
10595TIP3   OH253199   4.096   0.222  11.821 -0.4842  0.2848  0.8965
10595TIP3    H153200   4.028   0.180  11.768 -1.5809  2.0519  0.8486
10595TIP3    H253201   4.166   0.157  11.827 -1.7159 -1.1486  0.0101
10596TIP3   OH253202   0.007   3.125  15.672 -0.1559  0.0426 -0.0308
10596TIP3    H153203   0.083   3.142  15.617 -0.3480 -1.3105 -0.7362
10596TIP3    H253204   0.011   3.031  15.691  0.7144  0.7371  3.5105
10597TIP3   OH253205   5.870   4.761  14.594  0.1805 -0.4006  0.0632
10597TIP3    H153206   5.825   4.726  14.671 -3.3116  0.1343 -1.6189
10597TIP3    H253207   5.842   4.704  14.523  3.5764 -1.0570 -0.8588
10598TIP3   OH253208   2.672   4.951  12.487 -0.4534  0.2937  0.3352
10598TIP3    H153209   2.601   5.013  12.503  0.5532  0.8129  3.0668
10598TIP3    H253210   2.743   5.004  12.452 -0.0403  0.4740  1.4333
10599TIP3   OH253211   0.231   1.485  12.861 -0.5713  0.3372 -0.2781
10599TIP3    H153212   0.244   1.394  12.833  3.4755  0.0537  2.1391
10599TIP3    H253213   0.186   1.478  12.945 -0.2353  0.5590 -0.0800
10600TIP3   OH253214   2.592   0.176  12.200  0.4736 -0.1750 -0.3355
10600TIP3    H153215   2.687   0.173  12.207  0.3729 -2.3853  0.4867
10600TIP3    H253216   2.572   0.132  12.117  0.0668 -1.9555  0.6834
10601TIP3   OH253217   3.747   1.518   0.549  0.1140 -0.0460 -0.3051
10601TIP3    H153218   3.834   1.514   0.510  0.0654  1.5343 -0.6181
10601TIP3    H253219   3.762   1.547   0.639 -0.0411 -0.4324 -0.1528
10602TIP3   OH253220   4.945   2.608   5.516  0.5330  0.7685 -0.3072
10602TIP3    H153221   4.874   2.672   5.530 -0.6344 -0.7421  0.8508
10602TIP3    H253222   5.001   2.649   5.450  0.2709  3.3608  0.9947
10603TIP3   OH253223   6.662   2.995   0.675  0.2028 -0.2386  0.1014
10603TIP3    H153224   6.664   3.081   0.716  0.5618 -1.4126  2.6488
10603TIP3    H253225   6.605   3.006   0.598 -0.7834  1.9423  1.1032
10604TIP3   OH253226   4.877   1.630   2.370 -0.4431  0.5602 -0.0664
10604TIP3    H153227   4.788   1.655   2.395 -1.1165  0.0906 -1.9495
10604TIP3    H253228   4.912   1.706   2.324 -0.4696  0.1156 -0.8191
10605TIP3   OH253229   0.590   4.609   4.291  0.5061  0.4689 -0.2114
10605TIP3    H153230   0.517   4.665   4.266  2.3085  2.7091 -0.6637
10605TIP3    H253231   0.597   4.620   4.386 -1.0613 -1.4462  0.1552
10606TIP3   OH253232   3.353   3.068  14.687 -0.0461 -0.2087 -0.0898
10606TIP3    H153233   3.303   2.989  14.707  0.1362 -0.2344  0.2733
10606TIP3    H253234   3.333   3.086  14.595 -1.5851  0.4004  0.3522
10607TIP3   OH253235   6.208   0.818   0.620 -0.2588 -0.2098  0.1206
10607TIP3    H153236   6.250   0.904   0.625  1.1630 -0.8930  0.2043
10607TIP3    H253237   6.272   0.758   0.660 -0.8304 -1.4391 -0.7957
10608TIP3   OH253238   1.791   2.407   0.141 -0.5350  0.2221  0.0803
10608TIP3    H153239   1.727   2.336   0.151  0.2691 -0.4691  0.4266
10608TIP3    H253240   1.867   2.377   0.191 -0.0291  1.1367 -0.1392
10609TIP3   OH253241   0.752   3.538   4.012 -0.1272  0.1149 -0.0785
10609TIP3    H153242   0.756   3.598   3.938 -0.9016 -0.2830 -0.4457
10609TIP3    H253243   0.778   3.591   4.088 -2.3822  1.3378 -0.1301
10610TIP3   OH253244   5.818   0.350  17.060  0.0564 -0.8047 -0.5195
10610TIP3    H153245   5.752   0.310  17.116  0.7710 -0.9015  0.2782
10610TIP3    H253246   5.768   0.398  16.993 -0.8042 -1.2296 -0.1864
10611TIP3   OH253247   2.012   6.764  12.300  0.4273 -0.0900  0.3109
10611TIP3    H153248   2.099   6.795  12.324  0.5971 -1.0055  0.9146
10611TIP3    H253249   2.019   6.668  12.302 -0.1839 -0.1675 -1.1572
10612TIP3   OH253250   3.771   4.276   4.076 -0.4888  0.0669 -0.7518
10612TIP3    H153251   3.866   4.269   4.082 -0.6830 -0.4557  2.0864
10612TIP3    H253252   3.752   4.367   4.101 -1.0096 -0.9782  2.8522
10613TIP3   OH253253   1.960   2.394  12.173  0.2624 -0.9605  0.2502
10613TIP3    H153254   2.032   2.452  12.198  0.2008 -0.3189 -0.9987
10613TIP3    H253255   1.962   2.395  12.077 -0.2174 -2.4346  0.2267
10614TIP3   OH253256   5.210   0.712   5.552 -0.5337 -0.8859  0.4010
10614TIP3    H153257   5.216   0.678   5.641 -0.2007 -1.4761  0.1594
10614TIP3    H253258   5.291   0.762   5.540  0.1820 -2.1389 -0.1095
10615TIP3   OH253259   6.157   6.082   5.850 -0.1991 -0.2040  0.0332
10615TIP3    H153260   6.167   6.034   5.932 -0.5042  0.0848  0.2420
10615TIP3    H253261   6.077   6.045   5.811 -0.1114 -0.2704 -0.0816
10616TIP3   OH253262   2.259   6.680  12.942 -0.4662  0.2928 -0.8964
10616TIP3    H153263   2.182   6.674  12.885  0.7003  0.3798 -2.5014
10616TIP3    H253264   2.315   6.745  12.900 -0.3371  1.6311  1.2625
10617TIP3   OH253265   5.731   1.782  10.462 -0.1701 -0.2124 -0.0117
10617TIP3    H153266   5.685   1.862  10.489  1.7753  1.0930 -0.4830
10617TIP3    H253267   5.719   1.779  10.367 -0.1517 -0.4375 -0.0069
10618TIP3   OH253268   6.603   5.276   1.338  0.2018  0.7652  0.3144
10618TIP3    H153269   6.674   5.304   1.280  1.3684 -0.6567  1.0283
10618TIP3    H253270   6.529   5.261   1.279  0.9995  0.6064 -0.6599
10619TIP3   OH253271   6.253   4.545  14.240  0.0707 -0.3000  0.0773
10619TIP3    H153272   6.256   4.455  14.205  1.3035 -0.3552  0.3184
10619TIP3    H253273   6.293   4.538  14.326 -0.4681  0.3593  0.3810
10620TIP3   OH253274   4.161   1.058  11.994  0.0351  0.0661  0.7313
10620TIP3    H153275   4.157   1.128  12.059 -2.0971  1.6897 -1.0692
10620TIP3    H253276   4.087   1.001  12.015 -0.6867  0.6172 -0.2320
10621TIP3   OH253277   1.369   3.194   0.267 -0.2003 -0.0584  0.1754
10621TIP3    H153278   1.440   3.140   0.232 -1.1529 -1.4870  0.4039
10621TIP3    H253279   1.298   3.184   0.204 -0.9858 -0.4751  1.1177
10622TIP3   OH253280   1.605   3.817   1.345 -0.0248  0.1508  0.1494
10622TIP3    H153281   1.522   3.865   1.341  0.7057  1.4013 -0.1919
10622TIP3    H253282   1.672   3.885   1.347  1.0782 -0.8716 -1.3271
10623TIP3   OH253283   1.468   1.532   0.420  0.1340  0.0495 -0.0863
10623TIP3    H153284   1.518   1.477   0.359 -0.7727  1.5047 -2.1628
10623TIP3    H253285   1.442   1.471   0.490  4.4987 -0.8301  0.9332
10624TIP3   OH253286   2.658   0.394   4.424  0.2057  0.4245 -0.1023
10624TIP3    H153287   2.669   0.473   4.476  1.0641  1.0513 -1.1966
10624TIP3    H253288   2.725   0.401   4.356  1.7683 -2.3290  1.0924
10625TIP3   OH253289   3.407   3.971   4.989 -0.1197  0.5012 -0.4560
10625TIP3    H153290   3.333   4.031   4.976  1.3776  2.0485 -2.3537
10625TIP3    H253291   3.438   3.952   4.900  1.5640 -0.3543  0.2843
10626TIP3   OH253292   6.346   4.616  16.459 -0.5943  0.1887 -0.5733
10626TIP3    H153293   6.369   4.621  16.366  0.1354 -2.6032 -0.5898
10626TIP3    H253294   6.250   4.610  16.459 -0.7056  1.8221 -1.0483
10627TIP3   OH253295   0.549   1.795  11.205  0.1371 -0.5610  0.5689
10627TIP3    H153296   0.570   1.796  11.298 -0.1486  0.5690  0.6265
10627TIP3    H253297   0.478   1.858  11.195  1.5663  0.8941 -0.7317
10628TIP3   OH253298   0.999   0.760   3.617 -0.8131 -0.8963  0.1549
10628TIP3    H153299   0.994   0.846   3.658 -0.1855 -0.6893 -0.2120
10628TIP3    H253300   0.910   0.725   3.625 -1.1779 -0.0294 -0.1150
10629TIP3   OH253301   4.015   0.108   1.081  0.3433  0.2776  0.0154
10629TIP3    H153302   3.967   0.151   1.152  0.2374 -0.0677  0.1583
10629TIP3    H253303   3.989   0.016   1.088  0.4259  0.2233 -0.3992
10630TIP3   OH253304   4.736   0.732   1.219 -0.4884 -0.3146  0.0512
10630TIP3    H153305   4.795   0.797   1.181 -0.7921 -0.4611 -0.6686
10630TIP3    H253306   4.649   0.773   1.216 -0.6675 -0.7128 -0.3237
10631TIP3   OH253307   6.533   4.422   3.656 -0.4686 -0.2131  0.2268
10631TIP3    H153308   6.627   4.426   3.638 -0.1970 -0.3475  1.5238
10631TIP3    H253309   6.492   4.409   3.571  0.5911  1.2834 -0.5286
10632TIP3   OH253310   3.599   0.136   1.871  0.1895  0.8869 -0.0263
10632TIP3    H153311   3.574   0.119   1.962 -2.5896  1.7890 -0.5730
10632TIP3    H253312   3.617   0.230   1.869 -1.1046  1.1342 -0.6752
10633TIP3   OH253313   0.985   2.570  15.417  0.4289 -0.1366  0.5045
10633TIP3    H153314   1.030   2.631  15.476  0.7171 -1.5655  1.8030
10633TIP3    H253315   0.902   2.551  15.461 -0.6862  1.1229 -1.0314
10634TIP3   OH253316   3.605   5.475  11.426 -0.1381  0.2878 -0.2065
10634TIP3    H153317   3.581   5.441  11.513  1.8046 -1.5095 -0.3402
10634TIP3    H253318   3.635   5.564  11.442  0.4986 -0.1417  1.0141
10635TIP3   OH253319   0.975   2.222  15.223 -0.1790  0.6663  0.2120
10635TIP3    H153320   0.926   2.262  15.295 -0.2201 -0.7571  1.0060
10635TIP3    H253321   0.932   2.137  15.210  1.7552 -0.3872  0.5866
10636TIP3   OH253322   2.181   6.370  12.274  0.0422  0.0769  0.3572
10636TIP3    H153323   2.233   6.383  12.194 -1.5836 -0.1617 -0.7561
10636TIP3    H253324   2.223   6.427  12.339  1.4777  0.1625 -0.6165
10637TIP3   OH253325   0.753   0.638   3.638  0.4536 -0.3667  0.0208
10637TIP3    H153326   0.743   0.596   3.553 -1.8564  1.7555 -0.8328
10637TIP3    H253327   0.685   0.598   3.693  1.1393 -0.8545  0.5293
10638TIP3   OH253328   2.855   6.144  14.333  0.4501 -0.4666  0.2422
10638TIP3    H153329   2.940   6.165  14.371  0.5739 -0.3071 -0.1221
10638TIP3    H253330   2.835   6.056  14.367  1.5985 -1.2659 -1.1039
10639TIP3   OH253331   6.179   3.206  17.228  0.1141  0.0618 -0.2011
10639TIP3    H153332   6.148   3.128  17.274  5.0354  0.0819  3.5254
10639TIP3    H253333   6.135   3.279  17.272 -0.3223 -0.2886 -0.0545
10640TIP3   OH253334   4.487   3.486  13.283 -0.2457  0.5929  0.6675
10640TIP3    H153335   4.479   3.507  13.376  0.7292 -0.6031  1.0235
10640TIP3    H253336   4.533   3.403  13.281 -0.8711  0.2756 -0.8718
10641TIP3   OH253337   3.594   1.456   1.184  0.1153 -0.1941  0.9191
10641TIP3    H153338   3.506   1.452   1.221 -0.2669 -2.6937 -0.1208
10641TIP3    H253339   3.638   1.526   1.233 -2.4969  1.2568  1.2649
10642TIP3   OH253340   0.752   1.223  10.969  0.3249  0.1880  0.0850
10642TIP3    H153341   0.699   1.156  11.013  0.2087  0.9383  1.1112
10642TIP3    H253342   0.689   1.271  10.914  0.3006 -0.1606 -0.1923
10643TIP3   OH253343   3.519   1.864  13.646  0.1609  0.1959  0.4539
10643TIP3    H153344   3.559   1.782  13.675  1.5522  1.2370  1.5707
10643TIP3    H253345   3.517   1.857  13.551 -1.2837 -1.8155  0.5877
10644TIP3   OH253346   5.161   4.291   4.544 -0.0131 -0.4746  0.4612
10644TIP3    H153347   5.176   4.315   4.636 -1.0619 -0.9082  0.7532
10644TIP3    H253348   5.237   4.238   4.520 -0.3286 -1.4034  1.4582
10645TIP3   OH253349   3.084   1.722   3.574 -0.0613 -0.3624 -0.2262
10645TIP3    H153350   3.153   1.781   3.604 -1.4477  1.6208 -0.8360
10645TIP3    H253351   3.017   1.726   3.643  0.0172 -1.5683 -0.0683
10646TIP3   OH253352   2.919   4.156   3.450 -0.2311  0.2452 -0.5701
10646TIP3    H153353   2.984   4.173   3.382  0.9722  2.2093  1.0227
10646TIP3    H253354   2.885   4.069   3.429  1.8336 -0.1854 -2.2874
10647TIP3   OH253355   2.998   0.394  15.500  0.2445 -0.4323  0.3715
10647TIP3    H153356   3.001   0.330  15.429 -0.2452 -1.7057  1.4854
10647TIP3    H253357   3.090   0.406  15.525  0.4905  0.5722 -0.9350
10648TIP3   OH253358   4.971   2.894  13.348 -0.3275  0.0594 -0.1354
10648TIP3    H153359   5.055   2.916  13.388 -0.0927  0.0312 -0.6064
10648TIP3    H253360   4.971   2.941  13.264 -1.1340  0.7408  0.2296
10649TIP3   OH253361   5.824   1.422   5.838  0.0552 -0.0654 -0.6226
10649TIP3    H153362   5.796   1.514   5.834 -0.4773 -0.2461 -1.1242
10649TIP3    H253363   5.790   1.391   5.922  1.2100  0.5052  0.0669
10650TIP3   OH253364   2.983   0.120  13.170  0.3377  0.1929  0.4910
10650TIP3    H153365   3.014   0.123  13.260  0.2306 -0.7956  0.5709
10650TIP3    H253366   3.055   0.080  13.120 -0.4893 -1.4374  0.5578
10651TIP3   OH253367   3.117   3.365  11.322  0.0982  0.3379 -0.3343
10651TIP3    H153368   3.160   3.383  11.406  0.8041  1.0574 -0.8493
10651TIP3    H253369   3.188   3.344  11.262 -0.3772  0.1633 -0.8427
10652TIP3   OH253370   3.273   0.372   0.865 -0.2046  0.1347 -0.6025
10652TIP3    H153371   3.276   0.467   0.871 -1.0428  0.2666 -1.8967
10652TIP3    H253372   3.191   0.354   0.819 -0.2197 -1.2290 -0.0714
10653TIP3   OH253373   5.102   6.491   3.347 -0.0986 -0.2140  0.2858
10653TIP3    H153374   5.156   6.433   3.400  2.1968  1.1024 -0.5707
10653TIP3    H253375   5.164   6.541   3.294 -2.1494  1.2318 -0.8332
10654TIP3   OH253376   0.062   4.557  12.880  0.0180 -0.0294 -0.0360
10654TIP3    H153377   0.044   4.650  12.867  1.5604  0.4120  0.8494
10654TIP3    H253378   0.036   4.540  12.971 -0.7927 -0.6002 -0.3706
10655TIP3   OH253379   5.512   2.781  16.874  0.4813 -0.1740  0.1164
10655TIP3    H153380   5.450   2.735  16.931  1.4284 -0.4279  0.9391
10655TIP3    H253381   5.594   2.733  16.883  1.3663  1.4125  0.6661
10656TIP3   OH253382   0.610   3.460  10.628  0.1792 -0.0218 -0.3565
10656TIP3    H153383   0.596   3.406  10.706 -0.8869  0.8017  0.0503
10656TIP3    H253384   0.677   3.415  10.578 -0.0049 -1.2022  0.4546
10657TIP3   OH253385   4.631   4.128  17.041 -0.4839  0.2847  0.1606
10657TIP3    H153386   4.541   4.149  17.017 -0.2281 -1.1034 -2.1391
10657TIP3    H253387   4.627   4.038  17.073  0.0057  0.3704  0.4639
10658TIP3   OH253388   3.030   1.915  12.209  0.0425  0.4885 -0.4612
10658TIP3    H153389   3.098   1.859  12.248 -0.7876  0.2615  0.6609
10658TIP3    H253390   2.964   1.924  12.278 -1.9652 -0.8037 -2.1795
10659TIP3   OH253391   0.104   3.891  12.080  0.0733  0.4261 -0.5918
10659TIP3    H153392   0.009   3.882  12.087  0.2820 -1.0958  0.5209
10659TIP3    H253393   0.123   3.974  12.124 -0.6602  0.3242 -0.0585
10660TIP3   OH253394   5.885   3.362   3.614  0.2212  0.6874 -1.0217
10660TIP3    H153395   5.968   3.411   3.613  0.1264  0.8350 -2.1137
10660TIP3    H253396   5.876   3.328   3.525 -0.5277  0.0430 -0.7040
10661TIP3   OH253397   1.878   1.807  13.659  0.3331 -0.3762 -0.4626
10661TIP3    H153398   1.796   1.853  13.676  0.3952 -0.5879  0.4078
10661TIP3    H253399   1.870   1.724  13.707  2.1088  0.7048  1.7964
10662TIP3   OH253400   4.656   4.902   1.631 -0.6298  0.0246 -0.2095
10662TIP3    H153401   4.562   4.884   1.629 -0.7661  0.1998  2.5565
10662TIP3    H253402   4.690   4.846   1.701  0.7045  2.5828  1.2748
10663TIP3   OH253403   4.794   4.949   2.812  0.2208  0.4506 -0.3805
10663TIP3    H153404   4.729   4.895   2.769 -1.6982  1.7155  0.8722
10663TIP3    H253405   4.875   4.933   2.763 -0.5682 -2.5475 -0.8118
10664TIP3   OH253406   6.425   2.988   2.552  0.0282 -0.1696  0.0126
10664TIP3    H153407   6.494   3.037   2.508  0.6779 -1.8516 -0.8790
10664TIP3    H253408   6.373   2.951   2.481 -1.2838  0.3850  0.6777
10665TIP3   OH253409   4.373   2.258   2.340  0.0513  0.3014 -0.0141
10665TIP3    H153410   4.380   2.165   2.322  2.1526  0.4486 -0.0641
10665TIP3    H253411   4.286   2.282   2.309 -1.2431 -1.9930  1.6719
10666TIP3   OH253412   5.248   5.326   2.781 -0.3297 -0.4832  0.3346
10666TIP3    H153413   5.293   5.374   2.712 -0.8017 -1.2760 -0.5377
10666TIP3    H253414   5.163   5.370   2.790 -0.5338 -0.7944 -0.0620
10667TIP3   OH253415   1.807   3.890   6.396  0.1572 -0.1748 -0.0183
10667TIP3    H153416   1.863   3.944   6.342  2.5474 -1.6960  0.8468
10667TIP3    H253417   1.866   3.852   6.461 -1.9488 -1.5120  1.1771
10668TIP3   OH253418   6.017   0.144   4.979  0.1118  0.6426 -0.2322
10668TIP3    H153419   6.028   0.049   4.990 -1.3506  0.4411 -0.3529
10668TIP3    H253420   6.063   0.182   5.053  0.9793 -0.1535 -0.3511
10669TIP3   OH253421   2.967   5.227  11.083  0.9602  0.3663 -0.3727
10669TIP3    H153422   2.978   5.296  11.018  0.1398 -1.1495 -2.1625
10669TIP3    H253423   3.051   5.180  11.082  1.4694  1.2179  0.7468
10670TIP3   OH253424   3.009   6.198  14.849 -0.2126 -0.2800  0.3886
10670TIP3    H153425   3.085   6.153  14.812  0.6737  0.5974  1.1265
10670TIP3    H253426   2.957   6.128  14.890 -0.0937 -0.9530 -0.5719
10671TIP3   OH253427   4.504   5.525   3.482 -0.8343 -0.4775  0.2927
10671TIP3    H153428   4.569   5.576   3.530  0.5468 -0.5257 -1.4570
10671TIP3    H253429   4.503   5.440   3.526  0.9765 -0.7827 -0.1796
10672TIP3   OH253430   6.106   5.894  16.532  0.4040  0.0214 -0.0578
10672TIP3    H153431   6.129   5.978  16.492 -0.6738  1.0129  1.3562
10672TIP3    H253432   6.185   5.867  16.580 -0.1678  1.6816  1.8851
10673TIP3   OH253433   4.022   2.319   0.420  0.3102  0.0782  0.2473
10673TIP3    H153434   4.013   2.327   0.326 -0.0144 -0.2473  0.2507
10673TIP3    H253435   4.018   2.225   0.437  1.8165  0.0345  0.4347
10674TIP3   OH253436   3.971   3.949  16.529  0.2212  0.1706 -0.1250
10674TIP3    H153437   3.930   4.005  16.463 -1.3153  0.0554  0.7219
10674TIP3    H253438   4.003   4.008  16.596 -0.1123  0.1328  0.0661
10675TIP3   OH253439   0.343   6.642   1.708 -0.3207  0.2878  0.1034
10675TIP3    H153440   0.416   6.627   1.769  0.0294 -0.0226 -0.3936
10675TIP3    H253441   0.323   6.735   1.717  0.0468  0.3445  0.3421
10676TIP3   OH253442   5.157   2.823   3.127  0.2828  0.0957  0.1935
10676TIP3    H153443   5.159   2.742   3.178 -1.4736  0.4631  0.8818
10676TIP3    H253444   5.066   2.830   3.097  1.1309  0.1909 -2.5216
10677TIP3   OH253445   1.908   2.241   3.276 -0.4939 -0.3297  0.1319
10677TIP3    H153446   1.875   2.154   3.295 -1.9974  0.2807  0.4437
10677TIP3    H253447   1.898   2.290   3.358  0.1670  0.1715 -0.0822
10678TIP3   OH253448   0.582   3.951  14.757 -0.1192 -0.2444 -0.3109
10678TIP3    H153449   0.673   3.954  14.726 -0.0165 -0.9187 -0.0791
10678TIP3    H253450   0.537   4.017  14.704  0.7725  1.0148  0.4731
10679TIP3   OH253451   2.923   3.264  11.135  0.2739  0.2218 -0.4163
10679TIP3    H153452   2.933   3.330  11.067 -0.8384  0.1893 -0.6300
10679TIP3    H253453   2.830   3.241  11.132  0.3057 -0.1082  0.8091
10680TIP3   OH253454   4.823   3.105  16.949  0.6416  0.4166  0.5069
10680TIP3    H153455   4.824   3.163  17.025 -0.4961  0.3152  0.6166
10680TIP3    H253456   4.823   3.017  16.987  0.2750  0.3655  0.3935
10681TIP3   OH253457   5.090   6.564  16.944  0.8810  0.1690  0.4269
10681TIP3    H153458   5.059   6.590  17.031  0.9347  1.9631 -0.0677
10681TIP3    H253459   5.096   6.468  16.948 -0.8437  0.0999  1.8070
10682TIP3   OH253460   3.860   2.043   0.237 -0.5351 -0.0425  0.2450
10682TIP3    H153461   3.938   2.066   0.286  0.2436  1.6211 -1.6965
10682TIP3    H253462   3.891   2.030   0.147 -2.3439 -0.3111 -0.3631
10683TIP3   OH253463   3.918   4.573  16.826  0.7785  0.1458  0.1794
10683TIP3    H153464   4.001   4.539  16.793  0.5213  0.4347 -0.7616
10683TIP3    H253465   3.853   4.510  16.796  0.7839 -0.7532  1.9639
10684TIP3   OH253466   4.453   3.285  16.375  0.4598  0.5084 -0.5504
10684TIP3    H153467   4.393   3.290  16.449  0.9258 -0.5820 -0.0864
10684TIP3    H253468   4.433   3.363  16.323  0.7971  1.8133  1.2135
10685TIP3   OH253469   2.873   1.615  12.472  0.6601 -0.1137  0.4216
10685TIP3    H153470   2.911   1.594  12.387 -0.7233  0.0806 -0.2610
10685TIP3    H253471   2.936   1.580  12.536  0.9944 -1.5934 -0.6782
10686TIP3   OH253472   5.921   6.197  11.523 -0.4689  0.5443 -0.0981
10686TIP3    H153473   5.895   6.127  11.582 -1.3559  0.7525 -0.2376
10686TIP3    H253474   5.890   6.277  11.565  0.2781  0.8278 -0.0847
10687TIP3   OH253475   4.375   1.535   4.731 -0.3353  0.5064 -0.0385
10687TIP3    H153476   4.378   1.599   4.659  0.7717  0.7066  0.1803
10687TIP3    H253477   4.425   1.460   4.700 -1.1612 -0.0408 -0.0724
10688TIP3   OH253478   5.883   0.231  10.989 -1.3049 -0.1592  0.2112
10688TIP3    H153479   5.952   0.172  10.958  0.9727  1.7807  1.4799
10688TIP3    H253480   5.899   0.313  10.945 -3.0827  0.2183  0.2124
10689TIP3   OH253481   3.112   0.043  13.394  0.0931  0.3351  0.0490
10689TIP3    H153482   3.190   0.078  13.437  1.1222 -1.2053 -0.5422
10689TIP3    H253483   3.048   0.033  13.464  1.3346 -0.9606  1.0121
10690TIP3   OH253484   3.335   5.923   1.084 -0.2622  0.0017  0.2808
10690TIP3    H153485   3.427   5.898   1.091  0.2583  1.3335 -1.4583
10690TIP3    H253486   3.311   5.900   0.994 -1.0846  1.4082  0.1356
10691TIP3   OH253487   1.994   3.715   3.648 -0.4311  0.1338  0.2817
10691TIP3    H153488   1.967   3.794   3.694  0.9550  1.2000 -0.7035
10691TIP3    H253489   2.049   3.668   3.711  1.1693  1.4111 -0.1303
10692TIP3   OH253490   6.757   5.435   6.470  0.0063 -0.1343  0.3017
10692TIP3    H153491   6.775   5.499   6.400 -0.9785  1.1854  1.2320
10692TIP3    H253492   6.663   5.422   6.466  0.1631 -1.3014  0.3302
10693TIP3   OH253493   3.807   2.634   1.004  0.3087  0.6314  0.9951
10693TIP3    H153494   3.775   2.598   0.921  0.2358  1.9828  0.4171
10693TIP3    H253495   3.884   2.686   0.979 -1.2585  3.2446  1.3701
10694TIP3   OH253496   3.283   3.673  11.776  0.1763  0.0298  0.5289
10694TIP3    H153497   3.216   3.689  11.842  0.3728  0.7793  0.5603
10694TIP3    H253498   3.344   3.611  11.817 -0.1515 -0.1506  0.7383
10695TIP3   OH253499   4.614   4.221  16.550 -0.4513 -0.0511  0.0744
10695TIP3    H153500   4.536   4.262  16.515 -0.8807 -0.8038  0.1302
10695TIP3    H253501   4.581   4.145  16.599  0.2078  0.4088  1.2543
10696TIP3   OH253502   3.639   4.676  16.678  0.9054  0.0198 -0.0022
10696TIP3    H153503   3.650   4.581  16.686 -1.4750 -0.1691  1.3490
10696TIP3    H253504   3.671   4.711  16.761 -1.4172  0.0820  0.9016
10697TIP3   OH253505   4.434   5.108  15.164 -1.0066 -0.0807 -0.3592
10697TIP3    H153506   4.482   5.125  15.083 -0.2242  0.5753  0.2376
10697TIP3    H253507   4.499   5.068  15.222 -1.7428 -1.2097 -0.2891
10698TIP3   OH253508   3.117   5.002   2.314 -0.2141  0.3515 -0.4109
10698TIP3    H153509   3.044   5.063   2.325 -0.9999 -0.4024 -1.4068
10698TIP3    H253510   3.189   5.056   2.280  0.3414  1.4999  2.3901
10699TIP3   OH253511   4.075   6.768  14.950  0.2134  0.4468 -0.7796
10699TIP3    H153512   4.116   6.708  15.012  1.9689  0.0840 -2.2545
10699TIP3    H253513   3.981   6.756  14.964  0.5515 -1.3709  0.1263
10700TIP3   OH253514   3.461   3.182  13.444  0.0221  0.4468  0.8701
10700TIP3    H153515   3.413   3.132  13.510  0.5603  1.3805  1.9911
10700TIP3    H253516   3.520   3.118  13.403 -1.0105 -0.3424  0.6103
10701TIP3   OH253517   6.572   5.436  16.333  0.4049  0.2686  0.9184
10701TIP3    H153518   6.506   5.368  16.347  0.7032 -0.2117  0.0508
10701TIP3    H253519   6.565   5.457  16.240 -0.2239  1.9945  1.3412
10702TIP3   OH253520   2.734   6.251   5.663 -0.3550 -0.2847  0.5913
10702TIP3    H153521   2.650   6.245   5.709 -0.2283 -0.4056  0.8019
10702TIP3    H253522   2.759   6.343   5.672 -0.5395 -0.2154  0.3993
10703TIP3   OH253523   1.338   4.084   4.310  0.4124 -0.0376 -0.1897
10703TIP3    H153524   1.318   4.099   4.218 -0.3713 -0.7104 -0.1387
10703TIP3    H253525   1.255   4.054   4.348  0.6159  0.6643  0.8259
10704TIP3   OH253526   5.391   3.260  13.594  0.5416 -0.6338  0.1471
10704TIP3    H153527   5.380   3.335  13.536  1.4810 -0.7093 -0.1473
10704TIP3    H253528   5.475   3.276  13.638  0.4894 -1.2410  0.4734
10705TIP3   OH253529   0.145   0.946   1.053 -0.5133  0.4659 -0.4194
10705TIP3    H153530   0.112   1.024   1.098 -0.1378  0.5236 -0.2424
10705TIP3    H253531   0.188   0.895   1.122  1.0185  1.0742 -0.9160
10706TIP3   OH253532   3.133   3.918   3.542 -0.1557  0.8279 -0.5514
10706TIP3    H153533   3.147   3.969   3.622  1.4073 -0.3226 -0.0544
10706TIP3    H253534   3.193   3.958   3.478 -1.6121  1.9288 -1.2471
10707TIP3   OH253535   0.840   6.647  11.679  0.0806 -0.0253 -0.0855
10707TIP3    H153536   0.812   6.737  11.668 -0.6776 -0.1407  0.8566
10707TIP3    H253537   0.760   6.595  11.667  0.1821 -0.4593  1.0786
10708TIP3   OH253538   1.037   1.076   4.982 -0.1831 -0.3596 -0.3399
10708TIP3    H153539   1.021   1.159   4.937 -0.5674 -0.2938 -0.0813
10708TIP3    H253540   1.072   1.101   5.067 -1.3723 -0.4282  0.1766
10709TIP3   OH253541   3.751   2.814   5.506 -0.8266  0.0762  0.2075
10709TIP3    H153542   3.717   2.725   5.502 -0.0450 -0.3111  1.7205
10709TIP3    H253543   3.840   2.807   5.472  0.1429 -0.2297  2.7088
10710TIP3   OH253544   0.166   4.722  13.508 -0.1858  0.2798  0.0067
10710TIP3    H153545   0.074   4.700  13.490  1.0801 -3.4162 -2.7002
10710TIP3    H253546   0.196   4.653  13.567  0.9040  1.3860  0.7572
10711TIP3   OH253547   2.393   4.503  15.783 -0.0341 -0.1168  0.4429
10711TIP3    H153548   2.465   4.558  15.751  0.2812 -0.1061  1.1672
10711TIP3    H253549   2.337   4.491  15.706  2.1145 -2.3304 -0.8876
10712TIP3   OH253550   4.837   1.562   1.543 -0.5936 -0.0334  0.2810
10712TIP3    H153551   4.749   1.552   1.578 -0.7436  0.6935  0.1316
10712TIP3    H253552   4.829   1.540   1.450 -0.4902 -0.5598  0.3953
10713TIP3   OH253553   3.213   2.021   0.561  0.4931  0.7702 -0.0973
10713TIP3    H153554   3.284   1.974   0.604 -0.5518 -0.7659  0.0298
10713TIP3    H253555   3.170   2.069   0.631  0.0776 -0.0579  0.2287
10714TIP3   OH253556   3.789   4.914  14.623  0.0879 -0.2327 -0.1492
10714TIP3    H153557   3.822   4.866  14.700  0.2468 -1.4016 -0.9395
10714TIP3    H253558   3.760   4.846  14.563 -2.2889  0.7421 -0.1446
10715TIP3   OH253559   6.525   0.870  17.187 -0.7603  0.1467  0.1694
10715TIP3    H153560   6.596   0.814  17.221 -1.2929 -0.5438  0.1548
10715TIP3    H253561   6.489   0.820  17.113  1.1619  2.1397 -2.2063
10716TIP3   OH253562   5.290   5.583   2.969 -0.0535  0.2430  0.1734
10716TIP3    H153563   5.336   5.615   3.047 -0.8580  0.9653  0.3530
10716TIP3    H253564   5.356   5.532   2.922  0.6029  0.2936  1.0305
10717TIP3   OH253565   3.066   0.009  11.490 -0.3417  0.6470  0.0615
10717TIP3    H153566   3.106  -0.078  11.487  0.3495  0.8824  1.7652
10717TIP3    H253567   2.991  -0.000  11.548 -0.1801  1.2236  0.3672
10718TIP3   OH253568   5.386   2.376  16.401 -0.4482  0.1686  0.2234
10718TIP3    H153569   5.298   2.348  16.376  0.2588 -1.1535 -0.8532
10718TIP3    H253570   5.406   2.448  16.342  0.1711 -1.1922 -1.2476
10719TIP3   OH253571   2.567   4.736  16.739  0.6248 -0.1572 -0.1883
10719TIP3    H153572   2.638   4.674  16.753  0.4577 -0.4028 -0.4249
10719TIP3    H253573   2.511   4.694  16.674  2.3349  1.7544 -2.9948
10720TIP3   OH253574   6.104   2.254   4.821  0.1563 -0.4009 -0.2246
10720TIP3    H153575   6.097   2.204   4.902  0.6312  0.0695  0.1077
10720TIP3    H253576   6.059   2.336   4.838  0.6154 -0.1316 -0.3004
10721TIP3   OH253577   3.105   4.087  11.393 -0.4324 -0.0666 -0.2451
10721TIP3    H153578   3.057   4.007  11.369 -1.8522  0.2871  1.3351
10721TIP3    H253579   3.036   4.150  11.415  0.7151  1.2368 -0.3522
10722TIP3   OH253580   2.912   5.662  13.209 -0.5953 -0.0951 -0.4006
10722TIP3    H153581   2.948   5.603  13.276 -0.3304  0.2428 -0.2464
10722TIP3    H253582   2.823   5.629  13.195 -2.0906  2.2036  2.9621
10723TIP3   OH253583   6.764   1.979  12.614 -0.3644  0.2855  0.2290
10723TIP3    H153584   6.787   1.888  12.631 -0.6515  0.3810  1.1147
10723TIP3    H253585   6.845   2.017  12.578 -0.0019 -0.1058  0.6252
10724TIP3   OH253586   3.295   5.912  16.387  0.2252  0.9921 -0.4027
10724TIP3    H153587   3.332   5.897  16.473  0.9805  0.4930 -0.8069
10724TIP3    H253588   3.324   5.837  16.334 -2.5738 -0.2272 -0.3483
10725TIP3   OH253589   1.273   2.699  14.537  0.7463 -0.2612 -0.1424
10725TIP3    H153590   1.218   2.767  14.498  0.3145 -0.6718 -0.2534
10725TIP3    H253591   1.226   2.618  14.521  0.7487 -0.4758  0.9130
10726TIP3   OH253592   1.249   4.883   1.231  0.0246 -1.1080  0.1252
10726TIP3    H153593   1.178   4.889   1.166 -0.1783  1.2117  0.5128
10726TIP3    H253594   1.222   4.942   1.301  1.1941 -2.0851  1.4069
10727TIP3   OH253595   5.581   5.563   4.659 -0.0674 -0.1432 -0.1101
10727TIP3    H153596   5.518   5.628   4.629 -1.1831 -1.0835  0.1822
10727TIP3    H253597   5.617   5.600   4.740  0.0207  0.5484 -0.4611
10728TIP3   OH253598   2.423   1.618   4.400  0.6989  0.0294 -0.0198
10728TIP3    H153599   2.453   1.693   4.350  0.7155 -0.3238 -0.5477
10728TIP3    H253600   2.332   1.638   4.422  0.0395 -0.6947 -1.9401
10729TIP3   OH253601   2.386   6.393  16.057 -0.3736  0.8226  0.5261
10729TIP3    H153602   2.343   6.310  16.037 -0.9439  1.4596 -0.9946
10729TIP3    H253603   2.316   6.449  16.090  0.2601  0.2971  2.8300
10730TIP3   OH253604   2.802   5.670   6.442 -0.4400  0.3886  0.1181
10730TIP3    H153605   2.769   5.606   6.506 -0.5171  0.7536  0.4438
10730TIP3    H253606   2.887   5.636   6.417 -0.5494  0.0692  0.1729
10731TIP3   OH253607   6.610   0.887  14.177 -0.3914  0.2719  0.0547
10731TIP3    H153608   6.534   0.879  14.235 -0.5752  1.0656 -0.0776
10731TIP3    H253609   6.576   0.870  14.090 -0.4196  0.6348 -0.0057
10732TIP3   OH253610   6.784   0.342  12.024 -0.4044 -0.2348  0.5198
10732TIP3    H153611   6.767   0.347  11.930 -1.2319  1.0528  0.7147
10732TIP3    H253612   6.855   0.404  12.038 -0.2285 -0.4856  0.7265
10733TIP3   OH253613   2.792   3.837  12.618  0.0636  0.0719 -0.2795
10733TIP3    H153614   2.745   3.874  12.544  1.3042  0.9828 -0.6338
10733TIP3    H253615   2.724   3.817  12.682 -0.8636  0.7582 -1.0309
10734TIP3   OH253616   6.242   5.698  12.202 -0.2086 -0.6518 -0.2677
10734TIP3    H153617   6.326   5.669  12.166  0.1636 -0.8782  0.7985
10734TIP3    H253618   6.221   5.635  12.270  0.3865  1.2906  1.7483
10735TIP3   OH253619   0.539   2.500  14.331 -0.8625 -0.3596 -0.1022
10735TIP3    H153620   0.471   2.552  14.375 -0.4583 -1.1773  1.5020
10735TIP3    H253621   0.545   2.420  14.382  0.9317 -0.5375 -0.5601
10736TIP3   OH253622   0.013   3.755  12.464 -0.5104  0.4820 -0.0454
10736TIP3    H153623   0.077   3.763  12.535 -0.1725  0.7482 -0.3765
10736TIP3    H253624  -0.033   3.673  12.483  2.1755 -1.4486 -1.5676
10737TIP3   OH253625   6.620   2.582   4.245  0.4136  0.2353  0.0861
10737TIP3    H153626   6.712   2.561   4.226  0.1784  0.2262 -1.0686
10737TIP3    H253627   6.600   2.656   4.188 -0.7516 -0.7511 -0.7968
10738TIP3   OH253628   1.024   2.632   4.312  0.2463 -0.4547  0.2005
10738TIP3    H153629   1.060   2.704   4.260  2.8274 -1.0819  1.0361
10738TIP3    H253630   0.932   2.655   4.326  0.4309  1.4659 -1.5868
10739TIP3   OH253631   3.442   2.574   1.028 -0.1057 -0.5756  0.1269
10739TIP3    H153632   3.505   2.512   0.992 -2.3633 -2.6606 -0.3310
10739TIP3    H253633   3.356   2.543   0.997 -1.4154  2.0222  0.9515
10740TIP3   OH253634   3.704   2.601   0.322 -0.0945  0.2785 -0.2198
10740TIP3    H153635   3.694   2.648   0.405  1.2635  0.8229 -0.3551
10740TIP3    H253636   3.749   2.520   0.346  0.0350  0.3012 -0.3875
10741TIP3   OH253637   1.971   4.091   3.207 -0.1327 -0.5849 -0.7316
10741TIP3    H153638   2.058   4.088   3.167  0.6402  1.3696  0.6918
10741TIP3    H253639   1.953   4.001   3.233  2.2062 -0.7194  0.4886
10742TIP3   OH253640   3.716   4.334   1.519  0.2465 -0.5234  0.3189
10742TIP3    H153641   3.766   4.404   1.477 -0.8782  0.9346  1.3552
10742TIP3    H253642   3.762   4.318   1.602  0.1667 -0.5910  0.3506
10743TIP3   OH253643   3.433   5.458   5.582  0.7746 -0.1128 -0.1130
10743TIP3    H153644   3.395   5.504   5.507  2.3035  1.0540 -0.1964
10743TIP3    H253645   3.528   5.461   5.566  1.0032 -1.5015  0.9279
10744TIP3   OH253646   3.432   1.430   3.286  0.2488  0.3999 -0.2305
10744TIP3    H153647   3.403   1.472   3.366  0.7222 -0.1565  0.2372
10744TIP3    H253648   3.384   1.475   3.216 -0.9661  0.1657  0.4434
10745TIP3   OH253649   2.432   3.507   6.638 -0.5426 -1.2401 -0.1246
10745TIP3    H153650   2.520   3.516   6.602  0.0711 -0.0605  1.5841
10745TIP3    H253651   2.433   3.424   6.685  1.4701  1.2071  4.5277
10746TIP3   OH253652   5.215   2.011  11.714  0.1011 -0.3133  0.2793
10746TIP3    H153653   5.224   2.019  11.809  1.0301 -0.8765  0.2474
10746TIP3    H253654   5.121   2.014  11.698 -0.0100  0.9808  1.1034
10747TIP3   OH253655   5.857   4.499   3.948  0.5515  0.0765  0.3396
10747TIP3    H153656   5.769   4.516   3.981  0.1412  0.5389 -0.9784
10747TIP3    H253657   5.843   4.456   3.864  1.5871  1.3962 -0.5152
10748TIP3   OH253658   1.456   6.430   5.150 -0.5882  0.1648 -0.2522
10748TIP3    H153659   1.538   6.382   5.138  0.3781  1.5629  0.5947
10748TIP3    H253660   1.413   6.425   5.065 -0.1318 -1.4922 -0.4025
10749TIP3   OH253661   3.947   3.618   0.632  0.0622 -0.4065  0.3950
10749TIP3    H153662   3.865   3.614   0.582  0.3387 -0.6258 -0.0473
10749TIP3    H253663   3.978   3.708   0.619  1.6473 -1.2713 -2.3029
10750TIP3   OH253664   2.849   2.739  15.755 -0.3115  0.4090  0.0672
10750TIP3    H153665   2.809   2.808  15.807 -0.5368  0.5789 -0.3306
10750TIP3    H253666   2.864   2.667  15.817  0.1841  0.9197  0.5381
10751TIP3   OH253667   4.113   0.309   3.450 -0.1192  0.0192 -0.3548
10751TIP3    H153668   4.137   0.236   3.394 -1.6179 -0.6263 -0.2028
10751TIP3    H253669   4.029   0.339   3.415 -0.3339  0.5729  0.6144
10752TIP3   OH253670   1.544   2.929  11.200 -0.1965 -0.0004 -0.4343
10752TIP3    H153671   1.500   2.991  11.258 -1.1081 -0.7459 -0.3214
10752TIP3    H253672   1.637   2.950  11.209 -0.4169  0.6529  0.4148
10753TIP3   OH253673   3.488   3.790   2.708 -0.5019  0.1402 -0.2533
10753TIP3    H153674   3.505   3.705   2.747 -0.1138  0.7859  1.0103
10753TIP3    H253675   3.426   3.832   2.767  0.5368  1.3575  0.0003
10754TIP3   OH253676   1.558   0.437   6.500 -0.1214 -0.4967 -0.2486
10754TIP3    H153677   1.568   0.522   6.457 -2.5005 -0.4496 -0.7705
10754TIP3    H253678   1.580   0.373   6.432 -0.6467 -0.3453 -0.5651
10755TIP3   OH253679   3.476   3.357   5.390  0.3869  0.2880  0.2236
10755TIP3    H153680   3.431   3.376   5.307 -0.3952 -1.5635  0.1999
10755TIP3    H253681   3.569   3.365   5.369  0.2518 -1.6875 -1.2427
10756TIP3   OH253682   3.903   6.252   3.157  0.2968 -0.0673 -0.0390
10756TIP3    H153683   3.854   6.240   3.239 -1.0369 -1.3093 -1.0134
10756TIP3    H253684   3.836   6.270   3.091  1.3291  0.3381 -0.9958
10757TIP3   OH253685   5.993   1.259  11.187  0.4838 -0.3315  0.6386
10757TIP3    H153686   5.995   1.171  11.226  0.8849 -0.9710 -0.7840
10757TIP3    H253687   6.056   1.255  11.116 -2.1429 -0.0370 -1.8275
10758TIP3   OH253688   0.149   1.208  16.921 -0.1456 -0.0906  0.5025
10758TIP3    H153689   0.078   1.223  16.858 -0.5579  0.6118  1.1294
10758TIP3    H253690   0.117   1.137  16.977 -1.3466  1.7853  2.2422
10759TIP3   OH253691   4.193   5.249   4.794 -0.1928  0.3345  0.3615
10759TIP3    H153692   4.240   5.332   4.791 -1.7373  1.2382  0.3834
10759TIP3    H253693   4.106   5.270   4.760 -0.9043 -1.0653  1.2811
10760TIP3   OH253694   4.373   3.487  11.178  1.2211 -0.3221 -0.0431
10760TIP3    H153695   4.460   3.477  11.139  1.1117  0.2300 -0.4260
10760TIP3    H253696   4.313   3.448  11.115  1.3019 -1.7289  0.7371
10761TIP3   OH253697   3.734   0.360   4.609  0.0892 -0.0492  0.2457
10761TIP3    H153698   3.688   0.290   4.562  0.3618  2.5371 -4.1112
10761TIP3    H253699   3.822   0.360   4.572  0.7251  1.2362  1.7186
10762TIP3   OH253700   1.161   1.221   0.143 -0.6600 -0.5192  0.5102
10762TIP3    H153701   1.150   1.126   0.134 -1.1298 -0.1976 -3.0498
10762TIP3    H253702   1.255   1.235   0.141 -0.6414 -0.7380 -1.9216
10763TIP3   OH253703   4.431   1.173  12.527  0.0535 -0.1410 -0.2921
10763TIP3    H153704   4.404   1.164  12.619  0.9360 -1.1357 -0.1138
10763TIP3    H253705   4.493   1.245  12.528  2.3038 -2.0274  0.4258
10764TIP3   OH253706   1.966   0.003  12.907  0.1458  0.6964 -0.1163
10764TIP3    H153707   1.946   0.072  12.971  2.5766 -0.7075  2.2471
10764TIP3    H253708   2.018  -0.061  12.956 -3.1112 -3.5484 -1.8910
10765TIP3   OH253709   0.587   1.298  15.289  0.4416  0.2712 -0.4729
10765TIP3    H153710   0.518   1.233  15.279  0.2550  0.5102 -0.7579
10765TIP3    H253711   0.597   1.309  15.384  1.2063 -0.9377 -0.4061
10766TIP3   OH253712   1.084   6.483  14.584  0.0635  0.1464  0.2784
10766TIP3    H153713   1.166   6.527  14.606  0.2037 -0.4018  0.8753
10766TIP3    H253714   1.030   6.550  14.542  0.6008  0.6534  0.4101
10767TIP3   OH253715   5.240   3.796   0.275  1.0429 -0.3409 -0.4309
10767TIP3    H153716   5.158   3.761   0.240 -0.2291  1.4117  0.7450
10767TIP3    H253717   5.230   3.791   0.370  2.2651 -0.0469 -0.2779
10768TIP3   OH253718   6.130   5.521   6.062  0.3201  0.0849  0.5413
10768TIP3    H153719   6.170   5.521   6.149 -0.5794 -1.6108  0.9863
10768TIP3    H253720   6.136   5.611   6.033  1.5659  0.4733  1.9394
10769TIP3   OH253721   0.402   2.733   4.501 -0.2500 -0.2076 -0.3918
10769TIP3    H153722   0.370   2.812   4.544 -0.0503  0.5797 -1.6682
10769TIP3    H253723   0.482   2.760   4.456  0.5996 -1.4713  0.3171
10770TIP3   OH253724   5.661   3.526  16.233  0.2470  0.2890 -0.5866
10770TIP3    H153725   5.714   3.537  16.154  1.8332  0.0365  0.4286
10770TIP3    H253726   5.662   3.612  16.275 -0.6701  0.4485 -0.8779
10771TIP3   OH253727   1.330   3.755   1.684 -0.0586 -0.1711  0.2515
10771TIP3    H153728   1.343   3.807   1.763  0.1159  1.2536 -0.6918
10771TIP3    H253729   1.305   3.819   1.617  1.6430 -1.0642 -1.2972
10772TIP3   OH253730   2.665   0.450  14.829 -0.0684 -0.3248  0.2281
10772TIP3    H153731   2.645   0.408  14.913 -0.5348  0.1697  0.3706
10772TIP3    H253732   2.727   0.519  14.851  1.7974 -1.8069 -0.2035
10773TIP3   OH253733   3.858   0.317   3.382  0.4612  0.1681 -0.2526
10773TIP3    H153734   3.806   0.241   3.408 -0.8960  1.2570  0.2816
10773TIP3    H253735   3.849   0.322   3.287 -1.5667  1.1529 -0.0259
10774TIP3   OH253736   3.695   1.238  16.890  0.7596 -0.6504  0.2362
10774TIP3    H153737   3.760   1.170  16.872  0.2735 -0.8763 -0.6962
10774TIP3    H253738   3.651   1.208  16.971  1.3149 -0.8643  0.4635
10775TIP3   OH253739   2.423   0.111  12.937 -0.0797  0.4128 -0.1900
10775TIP3    H153740   2.407   0.127  13.030  0.1510 -0.3124 -0.0184
10775TIP3    H253741   2.446   0.196  12.901 -1.6287  0.9799  0.1149
10776TIP3   OH253742   5.024   6.450  14.720 -0.1156 -0.4766 -0.2491
10776TIP3    H153743   4.994   6.428  14.808 -1.4617 -0.4212 -0.6856
10776TIP3    H253744   5.098   6.510  14.734 -0.4831 -0.2721  0.8330
10777TIP3   OH253745   5.975   3.032   2.565  0.9815  0.7284 -0.0318
10777TIP3    H153746   6.049   2.993   2.519  0.7829  1.1363 -0.7030
10777TIP3    H253747   6.014   3.086   2.633  1.2502 -2.2821  2.3084
10778TIP3   OH253748   1.253   1.668   1.147 -0.1019 -0.2697  0.2420
10778TIP3    H153749   1.340   1.634   1.163 -1.3822 -2.7654  2.1987
10778TIP3    H253750   1.208   1.661   1.231 -2.3685  0.3721 -0.8737
10779TIP3   OH253751   1.607   0.252   6.299 -0.1012 -0.0373  0.1146
10779TIP3    H153752   1.550   0.176   6.292 -0.6477  0.4512 -0.9190
10779TIP3    H253753   1.687   0.226   6.253 -0.4674  0.1730 -0.6497
10780TIP3   OH253754   1.215   5.909  16.637 -0.7725 -0.2839 -0.3787
10780TIP3    H153755   1.123   5.889  16.621 -1.0444  0.1344  0.6567
10780TIP3    H253756   1.258   5.893  16.553 -1.1905 -4.0862  0.0404
10781TIP3   OH253757   2.169   0.939  13.493 -0.5905  0.1114 -0.3469
10781TIP3    H153758   2.173   1.023  13.537 -1.4587  0.6259 -1.2319
10781TIP3    H253759   2.132   0.958  13.407  2.1561 -0.6925 -1.7874
10782TIP3   OH253760   1.849   4.366   2.759  0.2876 -0.1084  0.0635
10782TIP3    H153761   1.889   4.284   2.787  1.1425  0.6285  1.0591
10782TIP3    H253762   1.920   4.430   2.763 -0.8551  1.1329  1.4448
10783TIP3   OH253763   4.520   4.367  14.512 -0.2374  0.1057  0.2154
10783TIP3    H153764   4.612   4.392  14.499 -0.0729 -0.2680  0.6144
10783TIP3    H253765   4.471   4.423  14.453  0.2381  0.4188  0.1125
10784TIP3   OH253766   1.679   3.673   5.040 -0.7454  0.1920 -0.9555
10784TIP3    H153767   1.667   3.714   5.126 -0.9219 -0.9866 -0.4131
10784TIP3    H253768   1.772   3.652   5.036 -0.8717 -0.4290 -0.7366
10785TIP3   OH253769   5.863   1.181  14.865  0.8229 -0.1402  0.3189
10785TIP3    H153770   5.801   1.229  14.920 -1.1024 -2.8483  0.6134
10785TIP3    H253771   5.849   1.218  14.777 -0.5338 -0.0707  0.5540
10786TIP3   OH253772   2.991   1.051   4.827 -0.4321 -0.1200 -0.4564
10786TIP3    H153773   2.932   1.056   4.752 -1.6920  0.4103  0.5563
10786TIP3    H253774   3.077   1.076   4.792 -1.2916  1.5528 -1.4238
10787TIP3   OH253775   0.151   4.706   3.539  0.1839  0.7456 -0.2453
10787TIP3    H153776   0.171   4.680   3.629 -0.0681 -0.3878 -0.5041
10787TIP3    H253777   0.224   4.763   3.514  0.5967  0.5352  0.4569
10788TIP3   OH253778   2.705   1.959   3.884  0.4373  0.7574  0.3226
10788TIP3    H153779   2.671   1.870   3.890  0.6961  0.5205 -1.3539
10788TIP3    H253780   2.710   1.990   3.975  0.8163 -1.1095  0.9482
10789TIP3   OH253781   6.528   3.209   0.518  0.3903 -0.3813 -0.0603
10789TIP3    H153782   6.480   3.275   0.469 -0.8891 -0.5151  0.9673
10789TIP3    H253783   6.499   3.125   0.481 -0.0171 -0.4567  0.4284
10790TIP3   OH253784   2.767   4.446  11.722 -0.1725  0.6082 -0.9395
10790TIP3    H153785   2.862   4.446  11.728 -0.1640 -1.0662 -0.9468
10790TIP3    H253786   2.738   4.488  11.803  0.5598  1.0136 -0.8810
10791TIP3   OH253787   5.238   1.891  12.176  0.5802 -0.0796  0.2418
10791TIP3    H153788   5.254   1.802  12.208  0.3498 -0.6522 -1.1960
10791TIP3    H253789   5.161   1.920  12.225  1.3867 -0.2072  1.5998
10792TIP3   OH253790   3.566   3.999  14.952  0.3006  0.5748 -0.3196
10792TIP3    H153791   3.475   3.992  14.980  0.8556  3.1248  2.4678
10792TIP3    H253792   3.598   3.909  14.951 -2.2077 -0.3318 -1.2506
10793TIP3   OH253793   3.345   3.436   3.502  0.4713  0.0574 -0.6902
10793TIP3    H153794   3.367   3.347   3.475  0.5814 -0.0501 -0.2396
10793TIP3    H253795   3.268   3.458   3.449  0.6355 -0.1839 -1.0374
10794TIP3   OH253796   2.719   1.424  15.645  1.1061 -0.0262 -0.2428
10794TIP3    H153797   2.692   1.353  15.704 -1.7353 -0.3676 -1.9069
10794TIP3    H253798   2.754   1.379  15.568  1.7657  0.4169 -0.2087
10795TIP3   OH253799   2.587   0.580  14.589  0.1062  0.3282  0.5525
10795TIP3    H153800   2.612   0.529  14.666 -1.1341  0.2427  0.9173
10795TIP3    H253801   2.509   0.628  14.616 -0.2565  0.4205 -0.5996
10796TIP3   OH253802   0.682   4.395   5.027  0.4130 -0.1866  0.1142
10796TIP3    H153803   0.597   4.396   5.071 -0.3312  0.5592 -1.2998
10796TIP3    H253804   0.746   4.401   5.098 -0.6985 -0.9701  1.2069
10797TIP3   OH253805   3.355   6.387  16.732  0.3608  0.1746 -0.0038
10797TIP3    H153806   3.373   6.459  16.792 -1.8795  0.7076  0.0940
10797TIP3    H253807   3.326   6.430  16.651  0.4887 -0.5932 -0.4607
10798TIP3   OH253808   1.067   3.138   5.924  0.3107 -0.4197 -0.0855
10798TIP3    H153809   1.010   3.190   5.981  0.5526 -0.1658 -0.0736
10798TIP3    H253810   1.155   3.154   5.959  0.5209  0.1887 -0.8854
10799TIP3   OH253811   0.644   4.109   3.844 -0.3767  0.1020 -0.4414
10799TIP3    H153812   0.618   4.195   3.877 -1.6571  0.6699 -2.8581
10799TIP3    H253813   0.736   4.099   3.871 -1.0942  0.9356  2.4039
10800TIP3   OH253814   4.915   1.872  17.166  0.0045 -0.9686 -0.7436
10800TIP3    H153815   4.928   1.784  17.200  2.9730 -1.4559 -2.9807
10800TIP3    H253816   4.831   1.868  17.120 -1.2129 -1.8354  1.5088
10801TIP3   OH253817   1.834   3.012   0.624  0.0309  0.3695  0.0165
10801TIP3    H153818   1.777   2.990   0.550  0.6415 -0.8443 -0.1086
10801TIP3    H253819   1.800   2.961   0.697  0.5421  0.1536  0.1089
10802TIP3   OH253820   6.495   3.265  13.002  0.5956  0.1484  0.0237
10802TIP3    H153821   6.545   3.185  12.986  0.2997  0.4009 -2.4162
10802TIP3    H253822   6.457   3.286  12.917 -3.1704  0.3219  1.6466
10803TIP3   OH253823   5.807   4.823   2.445 -0.1674 -0.1465  0.5022
10803TIP3    H153824   5.810   4.800   2.537 -3.2571  1.8805  1.1999
10803TIP3    H253825   5.720   4.795   2.416  1.0542 -1.4871 -2.0166
10804TIP3   OH253826   3.262   0.336   2.674 -0.3665 -0.0581 -0.5113
10804TIP3    H153827   3.221   0.308   2.756  1.7509 -1.2373  0.2151
10804TIP3    H253828   3.251   0.431   2.672  0.3880  0.0983  1.6423
10805TIP3   OH253829   4.015   0.310  14.350  0.2628  0.1333 -0.6023
10805TIP3    H153830   4.048   0.360  14.275  0.7747  3.0705  1.4748
10805TIP3    H253831   3.966   0.374  14.401 -0.0099 -1.7823  1.6017
10806TIP3   OH253832   5.130   3.655   2.339 -0.5262  0.2164  0.2551
10806TIP3    H153833   5.143   3.590   2.409  0.2898 -0.6622 -0.6891
10806TIP3    H253834   5.101   3.603   2.264  1.3550  0.7581 -0.8795
10807TIP3   OH253835   1.906   3.138  16.574 -0.2045 -0.3740 -0.2881
10807TIP3    H153836   1.925   3.056  16.529  1.4309  1.0160 -2.2153
10807TIP3    H253837   1.926   3.206  16.510 -2.9423  1.5200  0.7567
10808TIP3   OH253838   5.209   5.410  16.974  0.0890 -0.0555  0.1343
10808TIP3    H153839   5.140   5.472  16.998  1.5594  1.0183  1.6916
10808TIP3    H253840   5.289   5.461  16.975  0.9172 -1.2522 -1.8549
10809TIP3   OH253841   0.874   4.407  11.457 -0.5364  0.2529 -0.6790
10809TIP3    H153842   0.945   4.364  11.505 -0.3076  1.0246 -0.3188
10809TIP3    H253843   0.912   4.432  11.373 -0.7579 -0.5306 -1.0114
10810TIP3   OH253844   3.926   2.891   3.478  0.3333  0.1788 -0.1803
10810TIP3    H153845   3.981   2.934   3.413  1.0174 -0.2871  0.0863
10810TIP3    H253846   3.932   2.948   3.555 -0.3171  0.6238 -0.4453
10811TIP3   OH253847   2.080   3.203  14.325  0.4462  0.1056 -0.8083
10811TIP3    H153848   2.081   3.248  14.409  0.5121  1.7404 -1.6675
10811TIP3    H253849   2.131   3.260  14.267 -2.0157  0.4705 -2.6895
10812TIP3   OH253850   6.013   2.768   4.155 -0.6828  0.0992 -0.7168
10812TIP3    H153851   5.930   2.778   4.200 -1.1630  1.4377 -1.8790
10812TIP3    H253852   5.990   2.757   4.063  0.3779 -0.5633 -0.9206
10813TIP3   OH253853   4.604   5.168  13.248 -0.3405  0.0849  0.2122
10813TIP3    H153854   4.686   5.148  13.293 -0.0570 -2.6007 -1.4098
10813TIP3    H253855   4.541   5.104  13.283 -0.5339 -0.9329 -1.9204
10814TIP3   OH253856   3.066   1.082   5.335 -0.4119  0.4057 -0.4474
10814TIP3    H153857   3.030   1.126   5.258  0.3032 -1.6569 -2.0134
10814TIP3    H253858   3.082   0.992   5.306 -0.1083 -0.4101  2.1167
10815TIP3   OH253859   5.660   0.626  15.611 -0.3081  0.2930 -0.0900
10815TIP3    H153860   5.565   0.613  15.614 -0.2122 -0.0033  1.8909
10815TIP3    H253861   5.688   0.580  15.532 -1.7188 -0.2306 -0.2974
10816TIP3   OH253862   5.690   4.087  11.439  0.7841 -0.0800 -0.1919
10816TIP3    H153863   5.691   4.181  11.457 -2.4314 -0.0650  0.1509
10816TIP3    H253864   5.651   4.080  11.351  0.2426 -1.1408  0.1328
10817TIP3   OH253865   4.950   5.273   5.024 -0.4257  0.2491 -0.6318
10817TIP3    H153866   5.014   5.251   5.091 -0.8473 -0.3424 -0.4219
10817TIP3    H253867   4.895   5.340   5.065 -0.7550 -0.1957 -0.3404
10818TIP3   OH253868   1.494   0.444  12.643 -0.3866 -0.1797  0.1777
10818TIP3    H153869   1.578   0.444  12.598  0.4678  1.6560  1.6952
10818TIP3    H253870   1.517   0.449  12.736 -2.1686  0.5241  0.6045
10819TIP3   OH253871   6.424   0.521  14.872  0.3153 -0.8006 -0.6782
10819TIP3    H153872   6.487   0.489  14.936  1.4326  0.5900 -1.0382
10819TIP3    H253873   6.366   0.578  14.921 -1.0360 -2.5054 -0.2401
10820TIP3   OH253874   3.460   2.514  12.870  0.2565  0.2061  0.2418
10820TIP3    H153875   3.435   2.434  12.824  0.5985  0.2720 -0.0602
10820TIP3    H253876   3.448   2.493  12.963  0.3345 -0.1935  0.1635
10821TIP3   OH253877   1.613   6.335  16.455  0.2015 -0.0387 -0.2859
10821TIP3    H153878   1.570   6.419  16.471 -0.7762 -0.4195 -0.8977
10821TIP3    H253879   1.542   6.271  16.457  0.8281 -0.7482 -0.6474
10822TIP3   OH253880   1.442   1.534   3.498  0.1153 -0.2612 -0.0586
10822TIP3    H153881   1.415   1.532   3.406 -0.8205 -0.9346  0.2226
10822TIP3    H253882   1.538   1.540   3.495 -0.0508  2.9385 -1.0813
10823TIP3   OH253883   1.707   5.104   1.549 -0.3801 -0.4598 -0.1515
10823TIP3    H153884   1.779   5.138   1.495  0.8811 -1.4108  0.8757
10823TIP3    H253885   1.669   5.182   1.590 -1.0315  0.2148 -2.0085
10824TIP3   OH253886   0.517   3.366   0.710  0.4131 -0.1726  0.4569
10824TIP3    H153887   0.498   3.415   0.790  1.5758 -1.3366  1.4712
10824TIP3    H253888   0.535   3.434   0.645 -0.4384  0.7840  1.1989
10825TIP3   OH253889   0.686   6.252   5.598 -0.0698 -0.2481  0.6212
10825TIP3    H153890   0.736   6.281   5.521 -0.3485 -3.8752 -1.0189
10825TIP3    H253891   0.749   6.253   5.670  0.6109  1.6180  0.0277
10826TIP3   OH253892   2.141   1.518   2.961  0.0833  0.0274  0.1417
10826TIP3    H153893   2.070   1.578   2.938 -0.2692 -0.5701 -0.3590
10826TIP3    H253894   2.172   1.549   3.046 -3.0798 -1.7041  2.0438
10827TIP3   OH253895   5.502   6.458  10.679 -0.3622  0.1472  0.0032
10827TIP3    H153896   5.440   6.530  10.688  1.4045  1.6529  0.2276
10827TIP3    H253897   5.554   6.461  10.759  0.3650 -0.7745 -0.4278
10828TIP3   OH253898   4.711   4.504   4.571  0.0054  0.0676 -0.4273
10828TIP3    H153899   4.775   4.443   4.607 -1.6829 -1.3885  0.1496
10828TIP3    H253900   4.729   4.587   4.617  0.2008 -0.8399  1.1599
10829TIP3   OH253901   4.308   3.864   1.517  0.3290  0.0403  0.1700
10829TIP3    H153902   4.400   3.882   1.535  0.2258  0.9439 -0.1634
10829TIP3    H253903   4.280   3.806   1.587  0.6434  1.2998  1.3476
10830TIP3   OH253904   0.066   0.392  10.473 -0.5483 -0.1960  0.3819
10830TIP3    H153905   0.122   0.371  10.398 -1.7615 -1.6100 -0.1527
10830TIP3    H253906  -0.021   0.359  10.448 -1.3459  0.8481  1.7130
10831TIP3   OH253907   4.849   5.853  14.891  0.1211  0.0433  0.2624
10831TIP3    H153908   4.773   5.912  14.888  0.2758  0.2389  0.2008
10831TIP3    H253909   4.824   5.786  14.954 -0.5990 -0.5608 -0.6430
10832TIP3   OH253910   1.692   4.275  17.017 -0.3148  0.0665  0.6535
10832TIP3    H153911   1.774   4.319  16.996 -0.3330 -0.1304  0.1577
10832TIP3    H253912   1.642   4.338  17.068 -1.5188  1.7171 -2.3981
10833TIP3   OH253913   5.070   6.711  14.897 -0.1286  0.3759  0.4139
10833TIP3    H153914   5.038   6.746  14.814 -0.0278 -1.1707 -0.2989
10833TIP3    H253915   4.993   6.708  14.954 -0.2561  1.1513  0.2844
10834TIP3   OH253916   2.933   1.944   5.703 -0.1589  0.5606 -0.3327
10834TIP3    H153917   3.015   1.952   5.653 -0.0221  2.0842  0.0996
10834TIP3    H253918   2.869   1.914   5.639  0.8616 -1.1792 -0.5608
10835TIP3   OH253919   6.289   1.466  14.718 -0.4626  0.1180 -0.2830
10835TIP3    H153920   6.364   1.447  14.662 -1.3455 -0.6138 -1.2316
10835TIP3    H253921   6.225   1.397  14.698 -0.1250 -1.1862  2.9040
10836TIP3   OH253922   0.240   5.418  13.073 -0.2505  0.4640  0.1652
10836TIP3    H153923   0.268   5.331  13.043  0.7597  0.7241  0.3347
10836TIP3    H253924   0.279   5.479  13.011 -0.3366  0.8462  0.4825
10837TIP3   OH253925   4.740   3.688  15.012 -0.0165 -0.4350 -0.0615
10837TIP3    H153926   4.655   3.644  15.018 -0.6626  1.0111  1.9017
10837TIP3    H253927   4.788   3.637  14.946 -1.9198 -2.0442 -0.2828
10838TIP3   OH253928   1.091   0.304  17.106 -0.5023 -0.6715  0.0839
10838TIP3    H153929   1.130   0.362  17.172  1.0714 -0.3245 -1.1220
10838TIP3    H253930   1.136   0.220  17.118  1.2632 -0.0217 -1.8883
10839TIP3   OH253931   5.833   2.280  15.929 -0.0619 -0.2856 -0.6128
10839TIP3    H153932   5.925   2.309  15.928 -1.3144  4.2018  0.7317
10839TIP3    H253933   5.804   2.290  15.838  0.2256  0.3160 -0.6428
10840TIP3   OH253934   3.103   1.142  12.703  0.6765  0.2255 -0.5137
10840TIP3    H153935   3.161   1.132  12.627  0.7524 -2.7032 -0.1370
10840TIP3    H253936   3.149   1.098  12.774 -0.3226  1.1756  0.7271
10841TIP3   OH253937   5.586   3.900   4.882 -0.6082 -0.5134 -0.0499
10841TIP3    H153938   5.540   3.957   4.821 -0.2995 -0.3683 -0.1529
10841TIP3    H253939   5.553   3.812   4.864 -1.0821 -0.3648  0.1043
10842TIP3   OH253940   4.188   1.922   2.667  0.6651 -0.2982 -0.1342
10842TIP3    H153941   4.221   1.842   2.627  0.8468  0.2114 -1.0077
10842TIP3    H253942   4.235   1.929   2.750  0.8794 -0.9187 -0.2007
10843TIP3   OH253943   5.895   6.293  14.199 -0.2249  0.3183  0.4627
10843TIP3    H153944   5.896   6.315  14.106 -1.4950 -1.6226 -0.0557
10843TIP3    H253945   5.908   6.198  14.201 -2.0220  0.0651  2.1241
10844TIP3   OH253946   2.834   1.794  12.996 -0.0735  0.1274 -0.4440
10844TIP3    H153947   2.770   1.805  12.925 -1.5420  0.8304  0.9694
10844TIP3    H253948   2.898   1.863  12.981 -0.9569  0.9469 -0.4726
10845TIP3   OH253949   1.454   3.116   5.317 -0.6137 -0.4361  0.1737
10845TIP3    H153950   1.393   3.079   5.380 -0.5052 -2.1340 -0.7023
10845TIP3    H253951   1.541   3.091   5.349 -0.3047  2.1158  1.5125
10846TIP3   OH253952   4.219   2.836  11.913  0.0369  0.5043  0.2538
10846TIP3    H153953   4.162   2.869  11.844 -1.8428  1.5531  2.2354
10846TIP3    H253954   4.215   2.741  11.905 -0.1110  0.6128 -1.0854
10847TIP3   OH253955   3.041   1.003  15.377  0.4907  0.7874  0.4684
10847TIP3    H153956   3.060   1.069  15.444 -1.8511 -0.8728  2.9103
10847TIP3    H253957   3.107   0.934  15.392  1.8465  1.7358 -0.9525
10848TIP3   OH253958   6.296   3.453  15.836 -0.5925  0.2632  0.1815
10848TIP3    H153959   6.366   3.515  15.813  0.4934 -2.1900 -3.5257
10848TIP3    H253960   6.339   3.389  15.893 -0.0766 -0.5660 -1.1157
10849TIP3   OH253961   2.554   5.011  15.586 -0.7253  0.3122 -0.5575
10849TIP3    H153962   2.610   4.942  15.621 -1.3471  0.7531  1.3710
10849TIP3    H253963   2.614   5.074  15.547 -0.1260 -1.0443 -1.8914
10850TIP3   OH253964   0.540   4.415   5.290 -0.3940  0.3153  0.4198
10850TIP3    H153965   0.501   4.329   5.306  0.3812 -0.1245 -0.0052
10850TIP3    H253966   0.492   4.450   5.215 -0.2092 -0.0727  0.1186
10851TIP3   OH253967   2.412   2.880  15.344  0.2970 -0.5768 -0.6083
10851TIP3    H153968   2.454   2.937  15.279 -1.4741 -0.5576 -1.7783
10851TIP3    H253969   2.408   2.933  15.424 -0.6999  0.7191 -1.4932
10852TIP3   OH253970   0.656   4.163   6.825 -0.8417  0.0340  0.1491
10852TIP3    H153971   0.713   4.170   6.902  1.4372  1.7638 -1.6199
10852TIP3    H253972   0.634   4.254   6.803  0.5477 -0.2651 -2.6632
10853TIP3   OH253973   2.392   1.503  15.950  0.0733  0.7122 -0.2044
10853TIP3    H153974   2.353   1.543  15.871  0.0869  1.1868  0.0238
10853TIP3    H253975   2.484   1.529  15.947 -0.0493  1.2204  0.2660
10854TIP3   OH253976   2.494   3.903  13.041  0.2651  0.0077  0.3470
10854TIP3    H153977   2.577   3.944  13.018 -0.6076  1.7925  0.2957
10854TIP3    H253978   2.502   3.881  13.134 -0.2060  2.7029  1.0578
10855TIP3   OH253979   4.360   0.627   5.998 -0.0616 -0.2861 -0.1512
10855TIP3    H153980   4.422   0.637   6.071  0.8797 -1.4111 -0.7741
10855TIP3    H253981   4.309   0.708   5.999 -0.1627 -0.3415  1.8434
10856TIP3   OH253982   5.940   6.396  13.513  0.2982 -0.4211 -0.0513
10856TIP3    H153983   6.031   6.420  13.533  0.3822 -1.5870  1.0129
10856TIP3    H253984   5.948   6.336  13.438  0.1966  1.5573 -1.6937
10857TIP3   OH253985   2.652   1.271  17.074  0.5956 -0.0718 -0.1483
10857TIP3    H153986   2.629   1.345  17.131 -1.1385 -0.2508 -0.5985
10857TIP3    H253987   2.616   1.294  16.989 -1.8705 -2.3795  0.2061
10858TIP3   OH253988   5.954   4.882  13.645  0.0157  0.5572 -0.0171
10858TIP3    H153989   5.952   4.969  13.684 -4.4863  0.4915  0.1775
10858TIP3    H253990   5.926   4.823  13.714  0.4453 -0.7262 -0.9037
10859TIP3   OH253991   2.759   5.531  16.997 -0.4235 -0.4525  0.2878
10859TIP3    H153992   2.737   5.570  16.912  2.1240  1.1990  0.3227
10859TIP3    H253993   2.832   5.472  16.978  0.4785  0.2892  1.4034
10860TIP3   OH253994   0.089   0.191  14.973 -0.0713  0.1471  0.3778
10860TIP3    H153995   0.081   0.198  15.068 -0.3361  2.0266  0.2281
10860TIP3    H253996   0.154   0.257  14.949  0.6466 -0.9179 -0.6636
10861TIP3   OH253997   0.075   5.966  11.682 -0.6263  0.0863  0.2905
10861TIP3    H153998   0.041   6.006  11.602 -0.8484 -1.6364 -0.5065
10861TIP3    H253999   0.169   5.958  11.667 -0.4207  1.2442  0.8834
10862TIP3   OH254000   6.208   2.310   1.465 -0.0085 -0.4801 -0.2048
10862TIP3    H154001   6.246   2.275   1.384  3.1495 -0.0714  1.0409
10862TIP3    H254002   6.282   2.348   1.512 -1.6889 -1.2833  3.2093
10863TIP3   OH254003   4.454   6.774  16.987 -0.1666 -0.0732  0.3623
10863TIP3    H154004   4.544   6.740  16.985 -0.1874 -0.1333  0.4179
10863TIP3    H254005   4.400   6.697  17.006 -0.2283 -0.0350  0.3405
10864TIP3   OH254006   3.142   1.996   3.321 -0.0323 -1.1946  0.2058
10864TIP3    H154007   3.188   1.922   3.282 -0.2113 -0.4473 -1.4651
10864TIP3    H254008   3.126   2.056   3.248 -0.5448  0.1555  1.3917
10865TIP3   OH254009   4.645   1.249  13.507  0.2010 -0.4660  0.1389
10865TIP3    H154010   4.739   1.234  13.498  0.1142 -1.2204  0.4597
10865TIP3    H254011   4.607   1.161  13.513 -0.4101 -0.1472  1.0390
10866TIP3   OH254012   6.519   1.125   3.786  0.2219 -0.1751 -0.3317
10866TIP3    H154013   6.567   1.044   3.802  1.8875  0.7781 -0.3690
10866TIP3    H254014   6.530   1.141   3.693  3.8784  2.5098  0.4805
10867TIP3   OH254015   1.524   2.156   6.007 -0.3264 -0.0732 -0.0426
10867TIP3    H154016   1.582   2.159   6.083 -1.2640  0.2566  0.6631
10867TIP3    H254017   1.492   2.066   6.004 -0.0830 -0.1548 -0.2042
10868TIP3   OH254018   4.679   1.672   0.266 -0.2916  0.1338  0.5600
10868TIP3    H154019   4.642   1.724   0.195 -1.2230 -0.0427  0.9212
10868TIP3    H254020   4.686   1.583   0.230 -4.4445 -0.8327  1.9651
10869TIP3   OH254021   6.214   5.377  13.988 -0.1413  0.8011  0.0539
10869TIP3    H154022   6.286   5.374  14.052 -1.4512  2.3023  1.6559
10869TIP3    H254023   6.257   5.372  13.903  1.8227  1.1164  1.0022
10870TIP3   OH254024   5.881   5.924   5.761 -0.5386 -0.0012 -0.5061
10870TIP3    H154025   5.879   5.909   5.667 -1.9459  0.7786 -0.6129
10870TIP3    H254026   5.866   5.837   5.799  2.2923 -0.7139 -0.9466
10871TIP3   OH254027   0.238   4.020   0.362 -0.1287 -0.5144 -0.8021
10871TIP3    H154028   0.157   4.067   0.341  0.7926  1.3488 -0.3163
10871TIP3    H254029   0.268   4.061   0.443  0.1713 -2.6670  0.1968
10872TIP3   OH254030   4.334   3.544  11.726  0.0049  0.1773 -0.7134
10872TIP3    H154031   4.372   3.567  11.641  0.7628 -1.7221 -0.9044
10872TIP3    H254032   4.269   3.477  11.707 -2.2726  2.1733 -0.1622
10873TIP3   OH254033   1.806   2.932  13.316 -0.0073  0.2486  0.1429
10873TIP3    H154034   1.809   2.910  13.409 -1.5048 -1.4101 -0.1802
10873TIP3    H254035   1.794   3.027  13.315 -0.3961  0.2422  1.6554
10874TIP3   OH254036   2.054   5.028  11.237 -0.2239 -0.2270  0.4453
10874TIP3    H154037   2.147   5.033  11.255 -0.4207 -0.4414  1.5157
10874TIP3    H254038   2.024   5.119  11.242 -0.1156 -0.1836  0.3125
10875TIP3   OH254039   1.534   2.030   3.782 -0.1062  0.1215 -0.5606
10875TIP3    H154040   1.487   2.108   3.752  1.4078  0.8703 -1.0413
10875TIP3    H254041   1.535   1.973   3.705  1.4144  0.9029 -1.1278
10876TIP3   OH254042   1.309   2.490   0.314 -0.1115  0.0026  0.4002
10876TIP3    H154043   1.271   2.405   0.293 -0.0682  0.2743 -0.8595
10876TIP3    H254044   1.239   2.553   0.294 -0.2144  0.2580  1.5182
10877TIP3   OH254045   4.731   1.443  13.329  0.3157 -0.3052  0.4303
10877TIP3    H154046   4.669   1.375  13.357  0.3462 -0.5495 -0.1009
10877TIP3    H254047   4.680   1.524  13.331  0.1303 -0.4248  0.5284
10878TIP3   OH254048   1.327   4.875  16.419  0.4205 -0.0021 -0.3313
10878TIP3    H154049   1.265   4.892  16.490  0.3364  0.9209 -0.6122
10878TIP3    H254050   1.271   4.861  16.342  0.5583  1.8515 -0.8035
10879TIP3   OH254051   2.432   2.322  16.843  0.1058  0.6939 -0.4471
10879TIP3    H154052   2.409   2.346  16.753 -3.2245  0.0996  0.1448
10879TIP3    H254053   2.375   2.377  16.898  1.4830  0.4598  1.2783
10880TIP3   OH254054   0.118   6.735  10.851  0.6860  0.1685 -0.0745
10880TIP3    H154055   0.086   6.701  10.768  0.0838  1.4721 -0.3881
10880TIP3    H254056   0.211   6.712  10.852  0.5480 -0.4381 -0.8003
10881TIP3   OH254057   0.775   2.029  14.302  0.7389 -0.2370 -0.1280
10881TIP3    H154058   0.809   1.942  14.282  0.5471 -0.1356 -0.8980
10881TIP3    H254059   0.852   2.085  14.308  0.7187  0.0133 -1.9638
10882TIP3   OH254060   1.508   4.482  16.160 -0.0387 -0.3650 -0.0693
10882TIP3    H154061   1.477   4.536  16.087  0.0865  0.6243  0.6071
10882TIP3    H254062   1.440   4.416  16.171 -0.0181 -0.5746 -1.1390
10883TIP3   OH254063   0.820   0.078  12.488  0.2216  0.1322 -0.6795
10883TIP3    H154064   0.872   0.008  12.449 -0.7850 -0.2512 -1.3534
10883TIP3    H254065   0.885   0.142  12.518  1.0967 -0.5537 -1.0825
10884TIP3   OH254066   4.088   5.423  15.687  0.1149  0.1905  0.1023
10884TIP3    H154067   4.109   5.418  15.780  2.2016 -1.0320 -0.3921
10884TIP3    H254068   4.122   5.508  15.659 -0.7786  0.6883  0.4911
10885TIP3   OH254069   0.351   6.174   1.289 -0.0185 -0.4149 -0.0552
10885TIP3    H154070   0.354   6.082   1.317 -0.0873 -0.3175  0.2778
10885TIP3    H254071   0.431   6.187   1.240  0.2846 -0.4918  0.4146
10886TIP3   OH254072   5.806   4.516   2.922 -0.3186 -0.4563 -0.9596
10886TIP3    H154073   5.722   4.557   2.939  0.6747  0.9396  0.6938
10886TIP3    H254074   5.811   4.443   2.983 -0.3643 -0.6028 -1.1287
10887TIP3   OH254075   3.449   3.148  17.122 -0.4666  0.7100  0.4666
10887TIP3    H154076   3.505   3.077  17.089 -4.0947 -1.6793 -0.8841
10887TIP3    H254077   3.428   3.122  17.211 -0.6314  0.8416  0.4647
10888TIP3   OH254078   0.072   2.943   2.882 -0.0377 -0.2235  0.0320
10888TIP3    H154079  -0.008   2.976   2.841  1.2651  0.4870 -2.0359
10888TIP3    H254080   0.078   2.852   2.854 -0.4607 -0.4623  0.7191
10889TIP3   OH254081   3.190   2.890  17.129 -0.4400 -0.0446  0.6893
10889TIP3    H154082   3.128   2.961  17.114  0.6762  0.7158 -0.5423
10889TIP3    H254083   3.145   2.812  17.097 -1.6626  0.1096  2.0099
10890TIP3   OH254084   1.589   0.789  16.820 -0.1742 -0.3945 -0.3994
10890TIP3    H154085   1.658   0.723  16.826  0.6784  0.6961  3.1017
10890TIP3    H254086   1.622   0.852  16.756  0.8114 -1.3120 -0.8146
10891TIP3   OH254087   0.669   3.299   0.430  0.1079 -0.0835  0.0851
10891TIP3    H154088   0.630   3.374   0.474 -1.2786 -0.0562 -1.1837
10891TIP3    H254089   0.760   3.298   0.463  0.4410  2.6920 -0.5751
10892TIP3   OH254090   5.135   4.100   0.199 -0.0684 -0.5642  0.6691
10892TIP3    H154091   5.180   4.015   0.202 -0.3116 -0.6673  1.5366
10892TIP3    H254092   5.053   4.082   0.152  1.6878  0.0668 -2.8385
10893TIP3   OH254093   0.557   0.202   5.133  0.7116  0.1900  0.1064
10893TIP3    H154094   0.603   0.262   5.191  1.4084 -0.4205  0.1961
10893TIP3    H254095   0.488   0.165   5.188 -0.4990  1.8070 -0.2921
10894TIP3   OH254096   2.842   6.345   2.514 -0.7498  0.0270  0.7174
10894TIP3    H154097   2.846   6.419   2.453 -1.9403 -0.0472  0.5353
10894TIP3    H254098   2.903   6.281   2.477 -2.0502 -0.3356 -0.8530
10895TIP3   OH254099   6.406   5.648   3.299 -0.3121 -0.1129 -0.0231
10895TIP3    H154100   6.433   5.738   3.281  1.3633 -0.3258  1.2324
10895TIP3    H254101   6.440   5.597   3.226 -0.8326  0.2024 -0.4854
10896TIP3   OH254102   5.808   2.698  16.727  0.8851 -0.1101 -0.4728
10896TIP3    H154103   5.808   2.793  16.741 -2.4630 -0.4559  2.5957
10896TIP3    H254104   5.733   2.683  16.669 -0.7963 -1.1522  1.9019
10897TIP3   OH254105   6.676   2.553  11.373 -0.2537  0.4072 -0.5496
10897TIP3    H154106   6.637   2.499  11.441 -0.9362 -0.5945 -1.7089
10897TIP3    H254107   6.755   2.505  11.347 -0.8571 -0.0653 -1.5742
10898TIP3   OH254108   1.370   1.771   5.365 -0.4348 -0.2238  0.3256
10898TIP3    H154109   1.276   1.788   5.368 -0.7786 -1.9371  0.1964
10898TIP3    H254110   1.400   1.818   5.287 -1.4716 -0.8616 -0.4932
10899TIP3   OH254111   2.073   3.109   3.856 -0.4205  0.0523  0.2836
10899TIP3    H154112   2.027   3.042   3.907 -1.6756  0.7836  0.1384
10899TIP3    H254113   2.039   3.192   3.891  0.0719  0.5834 -0.4989
10900TIP3   OH254114   3.144   0.451   1.924  0.0894  0.0156  0.2678
10900TIP3    H154115   3.194   0.406   1.993  1.0438  0.2206 -0.2782
10900TIP3    H254116   3.154   0.396   1.847 -1.6756 -0.6452  0.4902
10901TIP3   OH254117   3.344   1.449   0.791  0.8370 -0.1540  0.2023
10901TIP3    H154118   3.407   1.477   0.857 -0.1263  2.6424  0.0165
10901TIP3    H254119   3.394   1.442   0.710  0.9105  2.2096  0.0182
10902TIP3   OH254120   6.265   0.637  14.671 -0.2075 -0.1398  0.6507
10902TIP3    H154121   6.182   0.653  14.718 -0.0507 -0.8497  1.1705
10902TIP3    H254122   6.245   0.661  14.581 -0.4586  1.4420  1.1012
10903TIP3   OH254123   2.377   3.825   0.879 -0.1596 -0.3258  0.4833
10903TIP3    H154124   2.302   3.862   0.832  0.5773  0.8319  0.2047
10903TIP3    H254125   2.344   3.809   0.967 -0.8081 -0.0288  0.2990
10904TIP3   OH254126   2.771   4.624  15.818  0.4855 -0.4578  0.1296
10904TIP3    H154127   2.753   4.558  15.885  0.4690 -1.2781 -0.6628
10904TIP3    H254128   2.854   4.663  15.844  0.0341 -0.1456  1.1083
10905TIP3   OH254129   5.184   6.190   5.427 -0.7850  0.1302  0.3578
10905TIP3    H154130   5.190   6.187   5.331 -2.8374 -2.8654  0.2783
10905TIP3    H254131   5.267   6.154   5.457 -0.4678  0.3133 -0.2746
10906TIP3   OH254132   5.495   0.596  16.058  0.6914 -0.6007  0.1995
10906TIP3    H154133   5.412   0.616  16.100  0.7395  0.0470 -0.0104
10906TIP3    H254134   5.559   0.600  16.128  0.8058  0.7050  0.0358
10907TIP3   OH254135   4.491   2.566  14.631 -0.0175 -0.2494  0.2833
10907TIP3    H154136   4.543   2.499  14.587 -0.0065 -0.6826  0.9586
10907TIP3    H254137   4.401   2.548  14.605  0.1143  0.2738 -0.5821
10908TIP3   OH254138   4.030   2.280  11.405 -0.2166  0.1482 -0.2097
10908TIP3    H154139   4.015   2.191  11.436  1.2003 -0.0162  0.0419
10908TIP3    H254140   4.084   2.270  11.327 -1.2555  0.7216 -1.0228
10909TIP3   OH254141   0.431   1.162   2.955 -0.0610  0.5825 -0.3980
10909TIP3    H154142   0.509   1.217   2.949  0.6113 -0.3493 -0.3994
10909TIP3    H254143   0.434   1.109   2.876 -0.2752  0.0012 -0.0176
10910TIP3   OH254144   1.749   4.587   1.920 -0.3061  0.1342 -0.0171
10910TIP3    H154145   1.821   4.561   1.863 -0.2827 -0.3426  0.2235
10910TIP3    H254146   1.696   4.646   1.867  1.1091  1.7418  0.3190
10911TIP3   OH254147   2.729   6.289   2.039  0.0607 -0.0589 -0.9794
10911TIP3    H154148   2.749   6.369   1.991  0.1934  0.4507 -0.0947
10911TIP3    H254149   2.640   6.303   2.072  0.3476  0.0179 -0.2377
10912TIP3   OH254150   1.959   3.997   1.135  0.2952 -0.7334 -0.1368
10912TIP3    H154151   1.985   4.075   1.086 -1.1896 -0.9259 -1.2608
10912TIP3    H254152   2.028   3.933   1.119  0.4841 -0.3382 -0.8765
10913TIP3   OH254153   2.149   3.265  13.871  0.2663  0.3805 -0.0080
10913TIP3    H154154   2.179   3.178  13.894 -1.4383 -0.0257  0.6826
10913TIP3    H254155   2.055   3.256  13.856  0.2682  1.8585 -1.1088
10914TIP3   OH254156   1.203   4.408   4.545  0.1244  0.1590  0.1947
10914TIP3    H154157   1.216   4.478   4.609  0.3528  0.4112 -0.1298
10914TIP3    H254158   1.219   4.327   4.595 -0.8411  0.3052  0.7411
10915TIP3   OH254159   0.979   5.309  10.579  0.3921  0.6040  0.2290
10915TIP3    H154160   0.893   5.267  10.577  0.1244  1.1540 -2.1548
10915TIP3    H254161   0.961   5.402  10.563  1.3381  0.8923  0.7984
10916TIP3   OH254162   4.068   5.294  14.676  0.5079  1.0647  0.0504
10916TIP3    H154163   4.131   5.234  14.717 -2.1210 -2.0447 -0.3161
10916TIP3    H254164   4.063   5.368  14.737  3.2909  0.6331  0.8826
10917TIP3   OH254165   3.277   4.993   0.805  0.0102  0.2806 -0.4385
10917TIP3    H154166   3.336   4.923   0.831  0.1254  0.9198  1.0390
10917TIP3    H254167   3.298   5.008   0.713  0.8895 -0.7246 -0.4144
10918TIP3   OH254168   4.359   5.778   2.009 -0.5298  0.1169 -0.3530
10918TIP3    H154169   4.380   5.697   2.054  0.0764  0.9927  0.9729
10918TIP3    H254170   4.268   5.796   2.033 -0.0639  0.8262  0.9388
10919TIP3   OH254171   4.601   5.309  12.783  0.0662 -0.2645  0.3744
10919TIP3    H154172   4.601   5.286  12.876 -1.4704  0.1902  0.5053
10919TIP3    H254173   4.558   5.236  12.740 -0.1474 -0.0088  0.1516
10920TIP3   OH254174   4.901   5.912   4.207  0.8952 -0.4174 -0.4082
10920TIP3    H154175   4.980   5.921   4.259  1.1749 -0.0031 -0.9071
10920TIP3    H254176   4.877   6.002   4.183  1.1165 -0.6502 -1.5176
10921TIP3   OH254177   4.861   4.663  14.183  0.7367  0.2340  0.2620
10921TIP3    H154178   4.860   4.664  14.087  1.2890  0.7023  0.2572
10921TIP3    H254179   4.775   4.696  14.209  0.3305 -0.5599 -0.0742
10922TIP3   OH254180   4.026   1.243   0.368  0.3363 -0.4506 -0.0146
10922TIP3    H154181   4.018   1.199   0.452  0.3751 -0.8495 -0.2211
10922TIP3    H254182   4.010   1.335   0.388 -1.6151 -0.7965  0.1095
10923TIP3   OH254183   0.257   4.627   3.801 -0.5893  0.1234  0.0060
10923TIP3    H154184   0.297   4.547   3.768 -0.8293 -0.0734  0.1870
10923TIP3    H254185   0.210   4.599   3.880 -1.7160  0.1976 -0.6210
10924TIP3   OH254186   1.251   6.774  16.600 -0.1206  0.5093 -0.1298
10924TIP3    H154187   1.287   6.862  16.597 -1.5573  1.1045 -0.3567
10924TIP3    H254188   1.157   6.787  16.611 -0.3475 -0.9941 -0.1776
10925TIP3   OH254189   0.629   0.170   3.681 -0.0273 -0.4333 -0.5688
10925TIP3    H154190   0.601   0.244   3.628 -1.9191 -0.4387  0.3913
10925TIP3    H254191   0.590   0.185   3.767 -1.2894 -3.0395 -0.6330
10926TIP3   OH254192   3.286   2.557   0.694 -0.4901 -0.1605  0.5243
10926TIP3    H154193   3.247   2.476   0.660 -2.4671  0.1959  1.8397
10926TIP3    H254194   3.274   2.621   0.624 -0.1309 -0.6654 -0.0018
10927TIP3   OH254195   2.521   4.576   2.191  0.1393 -0.0729 -0.2325
10927TIP3    H154196   2.517   4.671   2.182 -0.0254  0.1281  1.5799
10927TIP3    H254197   2.448   4.556   2.250 -0.1723 -1.3906 -1.0565
10928TIP3   OH254198   0.204   5.288   2.972  0.0707  0.5668  0.1141
10928TIP3    H154199   0.253   5.259   2.895 -1.3435 -1.8684  0.0924
10928TIP3    H254200   0.265   5.274   3.045  0.4110  0.1956 -0.2347
10929TIP3   OH254201   1.509   1.939   1.143 -0.0091 -0.1321  0.3566
10929TIP3    H154202   1.583   1.878   1.148 -2.0440 -2.8374 -1.4090
10929TIP3    H254203   1.451   1.912   1.214  0.1801  1.3327  1.0879
10930TIP3   OH254204   5.607   4.774   1.711  0.2392  0.1400  0.1125
10930TIP3    H154205   5.552   4.837   1.665  0.6262 -0.4557 -1.2019
10930TIP3    H254206   5.580   4.780   1.802 -0.8968  0.9928 -0.2721
10931TIP3   OH254207   3.516   0.286  16.805 -0.0891 -0.2075  0.7400
10931TIP3    H154208   3.577   0.357  16.824  2.6723 -2.2885  0.1246
10931TIP3    H254209   3.497   0.247  16.891 -1.5213  1.1430  1.0622
10932TIP3   OH254210   6.244   1.785  15.793  0.5886  0.2866  0.3015
10932TIP3    H154211   6.326   1.807  15.749 -0.3674  2.1716 -0.6141
10932TIP3    H254212   6.245   1.837  15.873  0.8805 -0.7238  0.9688
10933TIP3   OH254213   4.460   6.613   0.786  0.7343  0.8562  0.4393
10933TIP3    H154214   4.502   6.595   0.870 -1.1103 -1.8610  0.8459
10933TIP3    H254215   4.419   6.699   0.798 -1.1427 -0.3133  3.0738
10934TIP3   OH254216   1.297   2.712  16.773  0.7892 -0.1204  0.3226
10934TIP3    H154217   1.252   2.632  16.745 -1.2170  0.8976  0.4760
10934TIP3    H254218   1.281   2.717  16.867 -0.5069  1.2511  0.0674
10935TIP3   OH254219   4.820   0.644  13.105  0.7125  0.1600  0.5703
10935TIP3    H154220   4.765   0.647  13.026  0.0463  1.1384  1.0521
10935TIP3    H254221   4.896   0.592  13.079  0.7960  0.9747 -0.9094
10936TIP3   OH254222   2.123   1.261   3.335  0.4789  0.1996  0.1508
10936TIP3    H154223   2.134   1.181   3.284 -1.4919  0.1781 -0.2684
10936TIP3    H254224   2.101   1.231   3.423  1.1317  0.2758  0.3452
10937TIP3   OH254225   5.013   2.739   2.610 -0.2915  0.0055 -0.1448
10937TIP3    H154226   5.019   2.805   2.679 -0.3283  0.9429 -1.0266
10937TIP3    H254227   5.073   2.670   2.639  0.1885  0.6800  0.5115
10938TIP3   OH254228   4.589   6.106   0.229 -0.1536  0.1176 -0.0055
10938TIP3    H154229   4.504   6.108   0.273  0.0284  1.9559  0.2909
10938TIP3    H254230   4.572   6.142   0.142  0.1503 -0.4132 -0.2903
10939TIP3   OH254231   2.303   4.364   5.299 -0.1428  0.4251 -0.6593
10939TIP3    H154232   2.229   4.307   5.320  0.0805 -0.1005 -1.2932
10939TIP3    H254233   2.278   4.449   5.336 -0.9811  0.2043 -0.6897
10940TIP3   OH254234   0.944   2.325  14.696 -0.3053 -0.1783  0.4232
10940TIP3    H154235   0.867   2.368  14.733 -1.8190 -2.0227 -0.4815
10940TIP3    H254236   1.017   2.353  14.751 -2.1696 -1.1428  3.4729
10941TIP3   OH254237   5.370   6.306  13.089 -0.7101 -0.3408 -0.8575
10941TIP3    H154238   5.281   6.287  13.062 -1.2860  0.8930  0.1175
10941TIP3    H254239   5.364   6.322  13.183  0.1623  1.8893 -1.1385
10942TIP3   OH254240   3.324   5.035   1.135  0.1474 -0.9850 -0.0926
10942TIP3    H154241   3.353   5.100   1.199 -0.7683 -0.8765  0.2224
10942TIP3    H254242   3.264   5.083   1.078  1.6578 -0.8506 -1.5987
10943TIP3   OH254243   3.705   6.430   4.848 -0.3620 -0.1428 -0.2259
10943TIP3    H154244   3.703   6.510   4.795 -0.0442  0.3559  0.5097
10943TIP3    H254245   3.780   6.381   4.814 -0.4098 -0.0146 -0.5196
10944TIP3   OH254246   0.973   2.252   1.765 -0.3286 -0.1096 -0.0891
10944TIP3    H154247   1.041   2.256   1.833 -0.6043 -0.6155  0.2153
10944TIP3    H254248   0.902   2.202   1.805 -1.2918  1.2650 -0.0510
10945TIP3   OH254249   4.893   4.338   3.246  1.2848 -0.6796  0.0401
10945TIP3    H154250   4.926   4.312   3.160  2.0629 -0.2400  0.2042
10945TIP3    H254251   4.923   4.429   3.256 -0.9251  0.1377 -0.3051
10946TIP3   OH254252   0.245   1.974   1.467  0.1994 -0.0301 -0.7641
10946TIP3    H154253   0.161   1.939   1.437  0.3037 -0.6184 -0.3860
10946TIP3    H254254   0.258   1.934   1.553  0.0193  1.4310 -0.0442
10947TIP3   OH254255   5.404   5.131   4.753 -0.0316  0.1892  0.3964
10947TIP3    H154256   5.310   5.112   4.763  0.4221 -1.8992  1.0020
10947TIP3    H254257   5.429   5.084   4.674  0.3814  1.2773 -0.1226
10948TIP3   OH254258   3.824   1.886   1.948  0.4800 -0.7821 -0.3988
10948TIP3    H154259   3.882   1.914   1.877  0.0068 -2.4359 -1.4707
10948TIP3    H254260   3.802   1.795   1.926 -1.2578 -0.6715  0.8143
10949TIP3   OH254261   6.326   5.159  12.728  0.5802  0.4553 -0.3860
10949TIP3    H154262   6.365   5.199  12.650 -0.0161  1.8281  0.0008
10949TIP3    H254263   6.300   5.071  12.699  4.6146 -0.8301 -0.4469
10950TIP3   OH254264   5.158   1.668  15.788  0.0038 -0.2950 -0.7504
10950TIP3    H154265   5.224   1.708  15.732  0.0532  0.8342  0.0918
10950TIP3    H254266   5.173   1.706  15.874 -0.4637 -1.5518 -0.0974
10951TIP3   OH254267   0.093   0.838  16.645 -0.0062 -0.2997 -0.6931
10951TIP3    H154268  -0.003   0.834  16.646 -0.0256  0.0179  1.3103
10951TIP3    H254269   0.113   0.927  16.618 -0.3149  0.1792  0.6228
10952TIP3   OH254270   5.046   4.494   3.017 -0.2869  0.4836 -0.1367
10952TIP3    H154271   5.081   4.508   2.929 -1.0862  0.0096 -0.5433
10952TIP3    H254272   4.953   4.514   3.009 -0.3566  0.4641  0.6060
10953TIP3   OH254273   5.097   5.574  16.542  0.3090 -0.3357  0.0913
10953TIP3    H154274   5.174   5.520  16.560  0.6319  0.7992  2.2776
10953TIP3    H254275   5.094   5.637  16.614 -1.6716  0.7630 -0.9000
10954TIP3   OH254276   3.779   6.079   4.851 -0.5722  0.3633 -0.6009
10954TIP3    H154277   3.843   6.147   4.872 -0.6465  0.1883  0.2025
10954TIP3    H254278   3.816   5.999   4.888 -1.0281  0.1743 -0.5573
10955TIP3   OH254279   6.325   5.333  16.000 -0.4928 -0.4842 -0.3824
10955TIP3    H154280   6.295   5.407  15.947  1.3848  0.7527  0.2400
10955TIP3    H254281   6.246   5.305  16.047 -1.4841  0.3898 -1.4721
10956TIP3   OH254282   3.052   3.170  16.007  0.1794  0.1167  0.1667
10956TIP3    H154283   2.978   3.136  16.057 -0.3688  0.0582 -0.6830
10956TIP3    H254284   3.020   3.175  15.917  1.8052 -1.7253 -0.5459
10957TIP3   OH254285   0.887   2.572   3.410  0.6744 -0.5329  0.2962
10957TIP3    H154286   0.849   2.659   3.407  1.4191 -0.2145  0.0247
10957TIP3    H254287   0.852   2.533   3.491  0.7731  0.2072  0.6914
10958TIP3   OH254288   2.176   1.110   6.839  0.5354 -0.1129 -0.1232
10958TIP3    H154289   2.199   1.201   6.858  1.5975 -0.2690 -0.5726
10958TIP3    H254290   2.150   1.111   6.747 -2.5331  0.2760  0.7119
10959TIP3   OH254291   1.688   4.445   5.201  0.0081 -0.2522 -0.2295
10959TIP3    H154292   1.652   4.530   5.227  0.0630 -0.2809 -0.0570
10959TIP3    H254293   1.748   4.422   5.272 -0.2881 -0.6064 -0.0937
10960TIP3   OH254294   2.291   0.351   3.163 -0.2155 -0.1051  0.1597
10960TIP3    H154295   2.364   0.303   3.203  0.2550 -0.2425 -0.8589
10960TIP3    H254296   2.227   0.283   3.141  0.6157 -0.3430 -1.6385
10961TIP3   OH254297   1.571   1.969   3.259 -0.8669 -0.5540  0.2133
10961TIP3    H154298   1.666   1.963   3.255 -0.8657 -2.0560  1.8442
10961TIP3    H254299   1.552   2.062   3.248  0.9915  0.1766  2.7276
10962TIP3   OH254300   1.973   1.545   3.284  0.4077 -0.5163 -0.7642
10962TIP3    H154301   1.969   1.481   3.355 -0.4102 -0.8555 -1.1115
10962TIP3    H254302   2.034   1.611   3.316  1.8732 -1.8519 -0.7198
10963TIP3   OH254303   5.755   2.534  13.811  0.4707 -0.5917 -0.3996
10963TIP3    H154304   5.759   2.556  13.718 -0.9386 -0.3864 -0.4319
10963TIP3    H254305   5.662   2.517  13.827  0.7154 -0.7024  0.9504
10964TIP3   OH254306   0.104   2.951  15.413 -0.3573  0.1653  0.0725
10964TIP3    H154307   0.162   3.020  15.443 -0.9116 -0.7801  3.4651
10964TIP3    H254308   0.163   2.880  15.387  0.1051  0.7978 -0.6505
10965TIP3   OH254309   0.445   4.931   4.618 -0.4472 -0.8513  0.6732
10965TIP3    H154310   0.425   4.858   4.676 -3.4037  0.1391  0.9865
10965TIP3    H254311   0.367   4.987   4.621 -0.5242 -0.4971 -3.8382
10966TIP3   OH254312   5.179   1.301  14.270 -0.2002  0.6383  0.4858
10966TIP3    H154313   5.222   1.248  14.337 -1.7142 -1.2115  0.0386
10966TIP3    H254314   5.139   1.374  14.317 -1.1487 -0.5822  1.5828
10967TIP3   OH254315   4.711   4.208   0.516 -0.0224 -0.1632 -0.3938
10967TIP3    H154316   4.795   4.199   0.560  1.2561 -0.4709 -2.8136
10967TIP3    H254317   4.730   4.263   0.440 -1.9682 -0.3979 -1.0711
10968TIP3   OH254318   1.118   0.990   1.103 -0.1838  0.1542 -0.1133
10968TIP3    H154319   1.182   0.973   1.172  2.3092  0.9530 -2.1479
10968TIP3    H254320   1.171   1.012   1.026 -2.9087  0.4088 -1.9830
10969TIP3   OH254321   6.285   3.618  13.444 -0.0870 -0.1269 -0.2793
10969TIP3    H154322   6.281   3.526  13.419  1.6460 -0.2215 -0.2202
10969TIP3    H254323   6.374   3.631  13.476 -0.9187  1.0912  1.6374
10970TIP3   OH254324   3.945   0.547  13.266 -0.4392  0.5092 -0.5107
10970TIP3    H154325   3.980   0.597  13.340 -0.2378 -0.7667  0.2584
10970TIP3    H254326   3.851   0.548  13.280 -0.3280 -0.6842  0.3859
10971TIP3   OH254327   0.885   4.880   3.073  0.0953  0.6005  0.2556
10971TIP3    H154328   0.883   4.867   2.979 -0.0725 -0.4410  0.3985
10971TIP3    H254329   0.927   4.801   3.108  0.8134  1.2920  0.9975
10972TIP3   OH254330   4.833   4.629  11.522  0.1893  0.1380  0.4209
10972TIP3    H154331   4.815   4.693  11.592 -1.0733 -0.8924  1.0570
10972TIP3    H254332   4.780   4.553  11.545  0.8941 -0.7632 -0.8912
10973TIP3   OH254333   0.909   5.947   4.091 -0.0455 -0.4034 -0.5169
10973TIP3    H154334   0.879   5.888   4.159  0.8753  2.0939  2.1747
10973TIP3    H254335   0.840   6.013   4.084  0.8753  0.5768 -0.4323
10974TIP3   OH254336   2.542   2.641  16.772 -0.0735  0.0091  0.4805
10974TIP3    H154337   2.451   2.630  16.799 -0.6231  2.9514 -0.0026
10974TIP3    H254338   2.541   2.624  16.678 -0.0497 -0.3963  0.5557
10975TIP3   OH254339   4.289   5.517   4.817 -0.5156 -0.2343 -0.6996
10975TIP3    H154340   4.243   5.540   4.898  2.5229  1.5832  0.5957
10975TIP3    H254341   4.268   5.588   4.756 -0.4654 -0.0701 -0.5270
10976TIP3   OH254342   0.718   4.528   1.397  0.5593  0.1304  0.7648
10976TIP3    H154343   0.777   4.535   1.472 -0.2109  0.6883  1.3202
10976TIP3    H254344   0.654   4.462   1.423  1.1628 -0.7702  0.0014
10977TIP3   OH254345   5.991   3.886   0.165 -0.2394 -0.7023  0.4465
10977TIP3    H154346   6.016   3.959   0.221 -1.2787  0.8555 -1.0645
10977TIP3    H254347   5.895   3.888   0.163 -0.2213 -0.2561 -1.9489
10978TIP3   OH254348   4.875   6.722  15.089 -0.4056 -0.1166 -0.2687
10978TIP3    H154349   4.790   6.684  15.067 -1.0237 -0.0463  1.8585
10978TIP3    H254350   4.899   6.679  15.172  1.4732  0.1028 -0.6839
10979TIP3   OH254351   2.610   1.364  15.336 -0.5001  0.1594  0.2075
10979TIP3    H154352   2.702   1.360  15.312 -0.3352  1.6965  0.4867
10979TIP3    H254353   2.564   1.380  15.254 -0.2960  1.5513  0.3422
10980TIP3   OH254354   6.082   4.234   0.022  0.0567  0.0636  0.2771
10980TIP3    H154355   6.144   4.163   0.037  1.6095  0.9020 -1.7561
10980TIP3    H254356   6.029   4.205  -0.052  0.0913  0.6103  0.0260
10981TIP3   OH254357   3.622   0.658   6.081 -0.3597 -0.4092  0.6268
10981TIP3    H154358   3.599   0.751   6.081 -0.0504 -0.2442  4.6261
10981TIP3    H254359   3.695   0.652   6.019  0.1612  2.2165  0.9060
10982TIP3   OH254360   1.428   5.204  16.345  0.8289 -0.1706 -0.6336
10982TIP3    H154361   1.404   5.169  16.431  1.9778  0.4653 -0.0431
10982TIP3    H254362   1.504   5.258  16.362  2.1784 -1.4694 -2.3438
10983TIP3   OH254363   2.996   1.494  13.782  0.0333  0.6622 -0.3991
10983TIP3    H154364   2.923   1.494  13.720 -1.0787 -2.4765  0.8376
10983TIP3    H254365   2.972   1.559  13.848 -0.3727  1.5378 -1.3870
10984TIP3   OH254366   2.864   2.852   1.998  0.7618  0.4745 -0.1532
10984TIP3    H154367   2.876   2.784   2.065  0.4229  0.9908  0.4369
10984TIP3    H254368   2.911   2.819   1.921 -0.4625 -1.0124 -0.2837
10985TIP3   OH254369   3.663   3.570  13.483 -0.8388 -0.4927 -0.4498
10985TIP3    H154370   3.751   3.598  13.505 -2.2010  2.2596  1.8195
10985TIP3    H254371   3.656   3.481  13.518  0.4844 -0.1272  0.7702
10986TIP3   OH254372   1.078   1.086  13.708  0.0592  0.2457 -0.0752
10986TIP3    H154373   1.020   1.113  13.779  1.2109  2.0719  0.2108
10986TIP3    H254374   1.112   1.001  13.735 -0.6406  0.2665  0.8771
10987TIP3   OH254375   1.282   0.138   3.513  0.0753 -0.2112 -0.3036
10987TIP3    H154376   1.189   0.149   3.534  0.0217 -0.8490 -0.1993
10987TIP3    H254377   1.327   0.205   3.564 -0.2913 -0.1483 -0.0656
10988TIP3   OH254378   2.242   2.448  11.392 -0.1399  0.2674  0.3443
10988TIP3    H154379   2.335   2.436  11.373 -0.1915  0.8830 -0.3569
10988TIP3    H254380   2.221   2.382  11.458  1.0501  0.8368  1.3120
10989TIP3   OH254381   3.196   3.374  12.323  0.1126  0.4957  0.0188
10989TIP3    H154382   3.230   3.287  12.304  0.8006  0.5998  0.7385
10989TIP3    H254383   3.274   3.428  12.338 -0.3000  1.2897 -0.6408
10990TIP3   OH254384   3.016   4.977   1.068 -0.3290 -0.0883 -1.0759
10990TIP3    H154385   2.978   4.939   0.988 -1.8821  0.1021 -0.4407
10990TIP3    H254386   3.088   5.032   1.036  1.6971 -3.1872 -2.0458
10991TIP3   OH254387   3.339   5.673   6.487  0.1275  0.1194 -1.0818
10991TIP3    H154388   3.327   5.703   6.398 -2.3934 -0.1125 -0.8769
10991TIP3    H254389   3.262   5.706   6.534  1.0179 -0.4152  0.8134
10992TIP3   OH254390   1.310   1.495   3.263 -0.0958  0.0798  0.0348
10992TIP3    H154391   1.327   1.401   3.253 -2.6991 -0.5189  1.0011
10992TIP3    H254392   1.348   1.535   3.185 -1.1055 -2.0549 -1.5911
10993TIP3   OH254393   2.204   0.800  12.312 -0.0889  0.5560 -0.7741
10993TIP3    H154394   2.276   0.750  12.351 -0.8265  0.4557  0.4832
10993TIP3    H254395   2.247   0.860  12.250  0.8761 -1.0133 -1.6640
10994TIP3   OH254396   4.054   5.243  13.278 -0.2889  0.2600  0.2525
10994TIP3    H154397   4.032   5.334  13.254  0.5628  0.2966 -0.4385
10994TIP3    H254398   4.150   5.242  13.281 -0.3222 -0.4060  1.1205
10995TIP3   OH254399   6.439   4.992   6.142  0.2566  0.4544 -0.1798
10995TIP3    H154400   6.426   5.082   6.113  1.7376  1.1598  1.2623
10995TIP3    H254401   6.464   4.999   6.234 -0.7925 -1.5136  0.2801
10996TIP3   OH254402   2.332   0.558  14.019  0.1823 -0.4920 -0.2102
10996TIP3    H154403   2.339   0.482  14.077 -1.4612  0.3446  1.1325
10996TIP3    H254404   2.257   0.538  13.963 -1.0553  0.6607  0.9948
10997TIP3   OH254405   3.641   3.113  14.559 -0.1941  0.3029 -0.7118
10997TIP3    H154406   3.582   3.188  14.548  0.3838  1.4694  3.3334
10997TIP3    H254407   3.725   3.144  14.524 -0.3935  0.9499 -0.6303
10998TIP3   OH254408   4.647   4.256  14.866 -0.6044  0.2627  0.5811
10998TIP3    H154409   4.621   4.247  14.957 -0.4369  2.9937  0.9520
10998TIP3    H254410   4.566   4.279  14.820 -0.5090 -0.1423  0.2084
10999TIP3   OH254411   6.067   5.219   3.781  0.0571 -0.1148  0.2655
10999TIP3    H154412   6.019   5.138   3.767 -1.3365  1.0359 -2.0166
10999TIP3    H254413   6.159   5.194   3.776 -0.3678 -1.5209 -0.8026
11000TIP3   OH254414   4.988   3.106   4.190  0.0969 -0.1360  0.9720
11000TIP3    H154415   4.961   3.138   4.104  1.4692 -0.6555  0.3295
11000TIP3    H254416   5.080   3.084   4.179 -0.0166 -1.3003  2.2700
11001TIP3   OH254417   5.510   6.139  12.849  0.8098  0.0975 -0.2231
11001TIP3    H154418   5.569   6.178  12.913 -0.7709  0.3994  1.0948
11001TIP3    H254419   5.443   6.206  12.834 -0.9799 -1.4284  0.7734
11002TIP3   OH254420   2.349   5.677  15.610  0.1289 -0.2406 -0.0795
11002TIP3    H154421   2.348   5.641  15.698 -1.0808 -0.9488 -0.3656
11002TIP3    H254422   2.429   5.642  15.570  0.4949 -0.2027  0.6101
11003TIP3   OH254423   0.649   4.515   6.999 -1.0206  0.7322 -0.6392
11003TIP3    H154424   0.628   4.422   7.014  0.0319  0.7667  1.0916
11003TIP3    H254425   0.647   4.524   6.904  0.4647 -1.4558 -0.9139
11004TIP3   OH254426   2.833   6.170  16.645  0.2926 -0.0791 -0.5285
11004TIP3    H154427   2.890   6.094  16.630 -0.3873 -0.8375  0.6902
11004TIP3    H254428   2.749   6.145  16.608  0.7661  1.1092 -2.4785
11005TIP3   OH254429   4.090   2.057   4.574  0.5181 -0.0062  0.1801
11005TIP3    H154430   4.107   2.080   4.665  1.9549  0.8208 -0.2841
11005TIP3    H254431   4.006   2.099   4.554  1.2208  1.5826  0.5048
11006TIP3   OH254432   3.357   6.190   0.709  0.0717  0.3557 -0.2484
11006TIP3    H154433   3.291   6.249   0.673  2.3146  1.6004 -2.3894
11006TIP3    H254434   3.349   6.110   0.657  0.1995  0.4510 -0.4111
11007TIP3   OH254435   0.161   4.425   5.300 -0.6775 -0.2421 -0.0132
11007TIP3    H154436   0.204   4.344   5.328 -0.3109 -0.1736 -0.3791
11007TIP3    H254437   0.079   4.427   5.350 -0.1738 -0.2765  0.8267
11008TIP3   OH254438   2.882   5.430   5.910  0.4172 -0.2689  0.3130
11008TIP3    H154439   2.856   5.495   5.975  1.1725  0.2871  0.0635
11008TIP3    H254440   2.916   5.482   5.837 -0.9021 -0.8665 -0.7332
11009TIP3   OH254441   1.842   1.143  16.266 -0.2613 -0.0997  0.3145
11009TIP3    H154442   1.789   1.067  16.292 -2.1795  2.2632  3.7129
11009TIP3    H254443   1.931   1.120  16.292 -0.9420 -0.9156  2.0188
11010TIP3   OH254444   6.538   2.813  15.189  0.6194  0.6893  0.1271
11010TIP3    H154445   6.500   2.740  15.238  2.4872  0.9158  1.9865
11010TIP3    H254446   6.466   2.847  15.137 -0.6001 -1.6609  0.1941
11011TIP3   OH254447   0.349   3.924   3.647 -0.0048 -0.1537 -0.3012
11011TIP3    H154448   0.276   3.877   3.606 -0.0570  0.0335 -0.4270
11011TIP3    H254449   0.309   3.973   3.718 -0.4917  2.1654 -2.1031
11012TIP3   OH254450   6.316   1.086   3.411 -0.7751  0.3366  0.1051
11012TIP3    H154451   6.255   1.139   3.360  0.2615  0.6269 -0.8343
11012TIP3    H254452   6.389   1.144   3.430  0.4335 -0.7695 -1.0527
11013TIP3   OH254453   1.288   3.281  11.040  0.8822 -0.0521  0.0310
11013TIP3    H154454   1.334   3.363  11.060  2.5036 -0.8847 -0.1555
11013TIP3    H254455   1.311   3.263  10.949  1.7724 -1.4703  0.5141
11014TIP3   OH254456   0.233   0.989  12.067 -0.5801 -0.1510 -0.0539
11014TIP3    H154457   0.181   0.911  12.049 -2.0266  0.6767  0.4646
11014TIP3    H254458   0.211   1.050  11.996  1.1704 -0.4967 -0.9245
11015TIP3   OH254459   3.373   2.330   4.902 -0.3731 -0.9179 -0.0586
11015TIP3    H154460   3.280   2.342   4.881 -0.3614  0.3061  0.5147
11015TIP3    H254461   3.401   2.256   4.849 -0.8298  0.8531 -2.8567
11016TIP3   OH254462   6.121   3.753  13.994  0.0016 -0.1865 -0.2616
11016TIP3    H154463   6.080   3.681  14.042 -0.7440  0.7147  0.4665
11016TIP3    H254464   6.052   3.820  13.988  0.6964  0.4817 -0.9119
11017TIP3   OH254465   4.333   1.723  15.756  0.2503  0.7005  0.6093
11017TIP3    H154466   4.427   1.727  15.773  0.5230 -0.0786 -0.6597
11017TIP3    H254467   4.319   1.781  15.681 -0.2075  0.4040  0.4645
11018TIP3   OH254468   2.757   3.887   4.309 -0.0278 -0.3364 -0.1566
11018TIP3    H154469   2.731   3.961   4.364  0.2506 -0.7125  0.4853
11018TIP3    H254470   2.822   3.923   4.250 -0.7147  0.1980 -0.5994
11019TIP3   OH254471   3.730   1.505   4.733  0.0912  0.3577  0.5867
11019TIP3    H154472   3.717   1.542   4.646 -2.4099 -2.4047 -0.3169
11019TIP3    H254473   3.709   1.577   4.793  0.5190  1.8932 -1.0634
11020TIP3   OH254474   4.705   1.665  13.999 -0.2604  0.4268  0.6151
11020TIP3    H154475   4.791   1.659  13.958 -0.0929  3.7412  0.3496
11020TIP3    H254476   4.651   1.711  13.935 -0.8214  2.9614  2.8056
11021TIP3   OH254477   3.221   1.113   2.983 -0.0014  0.2678  0.1561
11021TIP3    H154478   3.235   1.117   3.077  1.9532  0.8237 -0.1378
11021TIP3    H254479   3.279   1.042   2.953 -1.9124 -1.1072 -0.4133
11022TIP3   OH254480   6.038   3.327   5.672  0.4168 -0.4253  0.5779
11022TIP3    H154481   6.018   3.409   5.717 -0.1921  0.9395 -2.0815
11022TIP3    H254482   6.132   3.314   5.686  0.5976  0.9431  0.6911
11023TIP3   OH254483   3.060   3.772   3.340  0.6315  0.6729  0.3659
11023TIP3    H154484   3.010   3.853   3.325  1.7104  1.2365 -0.2537
11023TIP3    H254485   3.118   3.793   3.413 -1.7253 -0.7701  2.7313
11024TIP3   OH254486   2.073   5.451  10.718 -0.0410 -0.2718  0.3343
11024TIP3    H154487   2.150   5.416  10.763  0.0818 -1.6187 -0.9187
11024TIP3    H254488   2.005   5.384  10.730 -0.1386 -0.4421 -1.1161
11025TIP3   OH254489   0.251   2.959  14.466  0.5983 -0.2396 -0.3593
11025TIP3    H154490   0.314   3.006  14.412  0.7042  0.2524  0.1915
11025TIP3    H254491   0.212   3.025  14.523  1.6770 -1.0004  1.3115
11026TIP3   OH254492   0.362   4.637   0.635  0.1281 -0.0727  0.3713
11026TIP3    H154493   0.363   4.700   0.707 -0.1233  0.2434  0.0987
11026TIP3    H254494   0.270   4.631   0.609  0.2257 -0.1369  0.0291
11027TIP3   OH254495   4.916   3.635   2.065 -0.0111 -0.0183  0.4063
11027TIP3    H154496   4.960   3.719   2.056 -0.1088  0.1381  1.3452
11027TIP3    H254497   4.988   3.572   2.080  0.2165 -0.3920 -2.0001
11028TIP3   OH254498   6.104   0.531   0.578  0.2833  0.1329  0.4286
11028TIP3    H154499   6.042   0.471   0.620 -0.7791  1.8668  1.3827
11028TIP3    H254500   6.150   0.573   0.651  0.8240  0.6857 -0.2238
11029TIP3   OH254501   6.291   5.226   6.149  0.4448  0.3383  0.4276
11029TIP3    H154502   6.246   5.293   6.200 -1.7524  0.4074 -1.4953
11029TIP3    H254503   6.236   5.148   6.160  0.6957 -0.0027 -0.6747
11030TIP3   OH254504   3.841   5.459  17.082  0.1129 -0.5705 -0.0073
11030TIP3    H154505   3.797   5.430  17.162 -3.8913  0.3796 -1.7330
11030TIP3    H254506   3.816   5.551  17.074  1.6883 -0.2668 -1.5939
11031TIP3   OH254507   6.699   1.983  12.949 -0.5070 -0.4635 -0.4661
11031TIP3    H154508   6.704   1.920  12.877  0.2226 -2.0379  0.9069
11031TIP3    H254509   6.790   2.007  12.967 -0.3910 -2.2690  1.7227
11032TIP3   OH254510   3.896   0.365   4.274 -0.5345  0.1856  0.0687
11032TIP3    H154511   3.949   0.441   4.295 -1.0000  0.3902  0.5042
11032TIP3    H254512   3.916   0.347   4.182  2.5518 -1.5613  0.9986
11033TIP3   OH254513   3.347   3.696  12.474  0.3839 -0.0329  0.1415
11033TIP3    H154514   3.251   3.700  12.480  0.4087 -0.0966  0.6517
11033TIP3    H254515   3.364   3.657  12.389 -0.0205  1.5049 -0.6694
11034TIP3   OH254516   3.177   6.663   5.653  0.5657 -1.1150  0.1718
11034TIP3    H154517   3.186   6.681   5.559 -0.5888  0.1971  0.3090
11034TIP3    H254518   3.249   6.603   5.672  1.9598  0.0919 -1.1625
11035TIP3   OH254519   6.214   1.012  15.964  0.6342  0.1282 -0.6279
11035TIP3    H154520   6.269   0.980  15.892 -0.8583 -1.8266 -0.9543
11035TIP3    H254521   6.131   1.034  15.922  0.4526  1.0023  0.1909
11036TIP3   OH254522   5.026   3.814  17.108  0.6255  0.2784  0.2007
11036TIP3    H154523   5.110   3.792  17.068  1.8981  0.6451  2.6254
11036TIP3    H254524   5.019   3.909  17.101 -0.8138  0.0305 -2.3144
11037TIP3   OH254525   2.039   1.919   0.608 -0.5580  0.4952 -0.2527
11037TIP3    H154526   2.059   2.008   0.639 -0.7162  1.1317 -1.8700
11037TIP3    H254527   2.125   1.877   0.601 -0.5877  0.0399  1.8303
11038TIP3   OH254528   4.277   1.783   5.814  0.1888 -0.2830 -0.6241
11038TIP3    H154529   4.352   1.752   5.764 -0.0287 -0.6914 -0.7007
11038TIP3    H254530   4.315   1.825   5.891  0.5522  0.9105 -1.4258
11039TIP3   OH254531   6.610   6.220  16.983  0.1809 -0.3820 -0.4926
11039TIP3    H154532   6.705   6.222  16.991  0.1540 -2.6305  0.5771
11039TIP3    H254533   6.588   6.128  16.967 -1.9884 -0.3060  1.7571
11040TIP3   OH254534   0.344   2.339  10.950 -0.6176 -0.0627  0.0351
11040TIP3    H154535   0.434   2.309  10.961  0.0759  1.1181 -2.2741
11040TIP3    H254536   0.291   2.262  10.973  0.9355 -0.7851  1.3690
11041TIP3   OH254537   4.778   1.252  15.277  0.1337  0.0128 -0.3237
11041TIP3    H154538   4.779   1.156  15.271 -1.1388 -0.0637  0.4260
11041TIP3    H254539   4.848   1.281  15.218  0.3654 -1.3672 -0.7427
11042TIP3   OH254540   3.247   2.291  14.360 -1.1279 -0.0995  0.0986
11042TIP3    H154541   3.206   2.350  14.296  0.7975  1.9259  0.6671
11042TIP3    H254542   3.213   2.319  14.444  2.3977  2.6318  0.7519
11043TIP3   OH254543   3.530   1.437  13.440 -0.0849  0.0863 -0.8816
11043TIP3    H154544   3.594   1.368  13.424 -1.2484 -0.4771 -3.3584
11043TIP3    H254545   3.517   1.478  13.355 -1.4987  1.5510  0.0008
11044TIP3   OH254546   5.893   2.685   2.136  0.1791 -0.2457 -0.4947
11044TIP3    H154547   5.896   2.776   2.104 -0.0206 -0.1277 -0.1772
11044TIP3    H254548   5.830   2.642   2.079  0.7176 -0.3350 -1.0300
11045TIP3   OH254549   1.021   5.562  12.912  0.1740  0.1260  0.0591
11045TIP3    H154550   0.942   5.573  12.858  0.8358  0.5238 -0.8426
11045TIP3    H254551   1.009   5.477  12.955 -0.2030 -0.3664 -0.9983
11046TIP3   OH254552   4.061   2.753   3.906  0.1014  0.4755  0.3988
11046TIP3    H154553   4.026   2.817   3.969  0.1329  1.6359 -0.7473
11046TIP3    H254554   4.132   2.799   3.863  0.1312 -0.3469 -0.4376
11047TIP3   OH254555   0.331   2.337   5.610 -0.3827  0.4817 -0.0699
11047TIP3    H154556   0.269   2.380   5.550  1.2340  2.2621 -0.5345
11047TIP3    H254557   0.276   2.301   5.679 -1.9410  2.2189 -0.3516
11048TIP3   OH254558   4.635   4.974   4.461  0.4842 -0.1099  1.0471
11048TIP3    H154559   4.722   4.989   4.498  1.8554 -2.3420 -1.0967
11048TIP3    H254560   4.582   5.046   4.493  2.9871  0.9810  2.8660
11049TIP3   OH254561   0.999   2.143  11.831 -0.4400 -0.0967 -0.0917
11049TIP3    H154562   1.071   2.143  11.769  0.0720 -0.6601  0.4997
11049TIP3    H254563   1.033   2.097  11.908 -0.8719  1.0880  0.8230
11050TIP3   OH254564   0.893   4.959   0.351 -0.2005  0.1571  0.2284
11050TIP3    H154565   0.949   4.912   0.413  0.1243  0.7910  0.4182
11050TIP3    H254566   0.877   5.044   0.392 -1.1867  0.0371  0.1044
11051TIP3   OH254567   1.432   3.888   3.981 -0.0641 -0.1266 -0.1652
11051TIP3    H154568   1.525   3.888   4.004 -0.2642 -1.0167  0.6583
11051TIP3    H254569   1.387   3.873   4.063 -0.9514  0.4295 -0.5423
11052TIP3   OH254570   5.811   4.806   5.370  0.3113  0.4261 -0.1985
11052TIP3    H154571   5.893   4.762   5.394 -0.1820 -0.3142  0.1875
11052TIP3    H254572   5.822   4.896   5.400  0.6959  0.1414  0.5374
11053TIP3   OH254573   5.036   6.308  15.377  0.4025 -0.2739  0.0357
11053TIP3    H154574   5.113   6.288  15.324  0.5403 -4.3221  1.5921
11053TIP3    H254575   4.979   6.231  15.367 -1.3305  0.6148  2.5694
11054TIP3   OH254576   3.028   4.101   5.121  0.4406 -0.9081 -0.1323
11054TIP3    H154577   3.009   4.158   5.196  1.1707 -0.8052 -0.0221
11054TIP3    H254578   2.977   4.022   5.138  1.1251 -1.1542  0.8253
11055TIP3   OH254579   1.037   1.063   5.995 -0.2074  0.0337  0.0292
11055TIP3    H154580   0.979   0.987   5.995 -0.9512  0.5886  0.7978
11055TIP3    H254581   1.123   1.027   5.976 -0.4801 -1.0699  0.8175
11056TIP3   OH254582   5.501   6.238   5.107  0.3442 -0.0926  0.1536
11056TIP3    H154583   5.496   6.143   5.116  0.0012 -0.2685 -1.6516
11056TIP3    H254584   5.413   6.269   5.128  0.2618 -0.2355  0.0205
11057TIP3   OH254585   1.758   1.879   4.577 -0.3160 -0.1703  0.2382
11057TIP3    H154586   1.757   1.791   4.615  0.1964  0.7086  2.3711
11057TIP3    H254587   1.712   1.933   4.641  1.9387  1.6480  0.3977
11058TIP3   OH254588   0.029   6.683  15.459 -0.0179  0.4611  0.2830
11058TIP3    H154589  -0.005   6.654  15.374  1.3074  2.7595 -1.1016
11058TIP3    H254590  -0.049   6.695  15.513 -0.7889 -2.3517 -0.1228
11059TIP3   OH254591   4.222   4.356   1.032  0.4285 -0.3870  0.2888
11059TIP3    H154592   4.139   4.403   1.016  0.0767 -0.9257  0.5356
11059TIP3    H254593   4.287   4.426   1.042  0.0048  0.0404  0.0873
11060TIP3   OH254594   2.444   4.144   2.109  0.2773 -0.2756 -0.1105
11060TIP3    H154595   2.358   4.169   2.144 -0.1489 -0.9391 -0.6506
11060TIP3    H254596   2.484   4.091   2.178 -0.5843 -1.6328 -0.6343
11061TIP3   OH254597   4.441   6.344  16.298 -0.2232 -0.1763 -0.7604
11061TIP3    H154598   4.454   6.415  16.361  0.6966  0.0755 -1.2190
11061TIP3    H254599   4.528   6.328  16.262 -0.4030 -1.6115 -0.5847
11062TIP3   OH254600   4.089   6.380  15.350  0.0422  0.1763 -0.3033
11062TIP3    H154601   4.112   6.422  15.432  1.4722 -0.7864 -0.1896
11062TIP3    H254602   4.024   6.314  15.374  0.8171 -0.4345  0.1401
11063TIP3   OH254603   6.410   4.637  15.361  1.0083  0.0461  0.1445
11063TIP3    H154604   6.394   4.546  15.384  0.5999 -0.0595 -0.5427
11063TIP3    H254605   6.356   4.687  15.423 -1.2968 -0.2805 -1.5233
11064TIP3   OH254606   0.775   6.565  13.506  0.2397 -0.3095 -0.0754
11064TIP3    H154607   0.705   6.524  13.555  0.0254  0.2991  0.1291
11064TIP3    H254608   0.731   6.625  13.445  0.4973 -1.1134 -1.0645
11065TIP3   OH254609   6.499   5.666  11.574  0.3836  0.1422  0.3284
11065TIP3    H154610   6.472   5.582  11.537 -0.6491  1.0093 -0.9017
11065TIP3    H254611   6.537   5.643  11.659 -0.7978 -1.4586  0.4419
11066TIP3   OH254612   0.456   5.311   1.887  0.2485 -0.2002  0.2396
11066TIP3    H154613   0.514   5.242   1.856 -0.3675 -0.2251 -0.8985
11066TIP3    H254614   0.503   5.392   1.866  1.1537 -0.2549  1.9416
11067TIP3   OH254615   5.411   5.816   1.897 -0.6455 -0.0072  0.5003
11067TIP3    H154616   5.423   5.727   1.862 -0.8556  0.0348  0.3237
11067TIP3    H254617   5.404   5.871   1.820  0.1741  0.2583  0.6095
11068TIP3   OH254618   4.148   6.498   6.904 -0.2076 -0.3086 -0.0896
11068TIP3    H154619   4.194   6.448   6.836 -0.1462  0.4619 -0.6212
11068TIP3    H254620   4.071   6.533   6.860 -0.0259  0.4243  0.1571
11069TIP3   OH254621   4.977   1.465   2.165 -0.2820 -0.6677 -0.0866
11069TIP3    H154622   4.963   1.514   2.246 -0.4437  1.0018 -1.1117
11069TIP3    H254623   4.893   1.422   2.148 -0.4014 -0.6071  0.3570
11070TIP3   OH254624   4.569   1.362   1.750  0.2832 -0.2027 -0.6552
11070TIP3    H154625   4.535   1.340   1.663 -0.1171  0.5675 -0.6974
11070TIP3    H254626   4.581   1.456   1.747  0.1675 -0.1620  0.1650
11071TIP3   OH254627   2.778   2.085  16.175 -0.4434  0.4465 -0.0484
11071TIP3    H154628   2.733   2.002  16.186 -1.5859  0.8049 -1.9219
11071TIP3    H254629   2.792   2.094  16.081  3.5650  0.3569  0.4302
11072TIP3   OH254630   3.179   5.184   3.820  0.5774  0.3193  0.0418
11072TIP3    H154631   3.176   5.195   3.915 -1.0908  0.5659 -0.0232
11072TIP3    H254632   3.271   5.194   3.797  0.7793  1.8049  1.4532
11073TIP3   OH254633   1.490   1.886   5.965 -0.0115 -0.4917  0.1712
11073TIP3    H154634   1.538   1.813   5.926 -1.9375 -1.9187  0.3827
11073TIP3    H254635   1.465   1.855   6.053  0.2979  0.9282  0.7791
11074TIP3   OH254636   2.588   6.540   4.139 -0.3586 -0.3027 -0.1189
11074TIP3    H154637   2.672   6.501   4.113 -0.1060 -1.0583  1.7198
11074TIP3    H254638   2.536   6.542   4.059  1.7501  1.0668 -1.5007
11075TIP3   OH254639   5.593   5.132  15.613  0.0017 -0.0291  0.0618
11075TIP3    H154640   5.645   5.184  15.674 -1.2137 -0.0471  1.1406
11075TIP3    H254641   5.648   5.057  15.593 -0.5964 -1.4131  3.2657
11076TIP3   OH254642   4.569   0.470   3.687 -0.1993 -0.0263  0.2732
11076TIP3    H154643   4.623   0.514   3.621 -1.4765  1.4270  0.1882
11076TIP3    H254644   4.614   0.486   3.770 -0.6573  1.4502  0.2404
11077TIP3   OH254645   4.400   4.247  16.901  0.0602  0.5064  0.6191
11077TIP3    H154646   4.344   4.309  16.854  0.0767  0.5423  0.6471
11077TIP3    H254647   4.390   4.164  16.855  1.6744  1.0292 -0.7407
11078TIP3   OH254648   5.333   1.493   2.520 -0.3089  0.8619 -0.2040
11078TIP3    H154649   5.424   1.521   2.512  0.1444 -0.7505 -0.7842
11078TIP3    H254650   5.300   1.541   2.596  1.9347 -0.8490  1.9338
11079TIP3   OH254651   3.289   3.341  13.168  1.1266 -0.6258 -0.4724
11079TIP3    H154652   3.252   3.418  13.125  0.5906 -0.8379 -0.3961
11079TIP3    H254653   3.320   3.373  13.253  1.1411 -0.4423 -0.5469
11080TIP3   OH254654   2.311   4.973  11.309  0.1332 -0.2561  0.5161
11080TIP3    H154655   2.318   4.925  11.226  0.5106  0.1991  0.2778
11080TIP3    H254656   2.342   4.912  11.375 -2.1901 -1.3715  0.6015
11081TIP3   OH254657   0.348   3.334   1.579  0.9093  0.1474  0.1441
11081TIP3    H154658   0.277   3.355   1.640  0.9059  2.1538 -0.5202
11081TIP3    H254659   0.303   3.298   1.502  0.6138  1.1556 -0.1660
11082TIP3   OH254660   3.683   1.299  13.882  0.1791 -0.5725 -0.0430
11082TIP3    H154661   3.729   1.348  13.813 -1.1054  1.1433  0.2839
11082TIP3    H254662   3.748   1.290  13.952  0.6719  0.0094 -0.4154
11083TIP3   OH254663   6.020   0.763   1.435 -0.2030 -0.0586 -0.0650
11083TIP3    H154664   6.025   0.721   1.521 -0.7192 -0.4891 -0.2449
11083TIP3    H254665   6.055   0.851   1.449 -0.4722 -0.0656  0.6268
11084TIP3   OH254666   1.046   6.349   1.594 -0.0075 -0.2295 -0.0770
11084TIP3    H154667   1.122   6.407   1.590  1.0601 -1.4805  1.5784
11084TIP3    H254668   1.068   6.277   1.535 -0.4774  0.0541 -0.6017
11085TIP3   OH254669   3.931   0.728   4.352  0.4283  0.3215 -0.2746
11085TIP3    H154670   3.899   0.758   4.437 -0.0538  1.3921 -0.8266
11085TIP3    H254671   3.852   0.719   4.298  0.7821  0.2355 -0.7872
11086TIP3   OH254672   6.109   6.373  15.683  0.1839 -0.4121 -0.0963
11086TIP3    H154673   6.055   6.452  15.686 -0.4367 -0.8405  0.0647
11086TIP3    H254674   6.056   6.309  15.636  1.2686 -0.2916 -1.5139
11087TIP3   OH254675   1.822   2.626  16.367 -0.1868  0.5549 -0.1637
11087TIP3    H154676   1.875   2.548  16.352 -0.6650  0.1145  0.3896
11087TIP3    H254677   1.806   2.627  16.461  0.6464  1.8726 -0.0247
11088TIP3   OH254678   0.671   3.967  15.676 -0.0001  0.0160  0.5126
11088TIP3    H154679   0.744   3.998  15.622  0.6535 -1.7701  0.3544
11088TIP3    H254680   0.713   3.923  15.750 -0.8928  1.6340  2.0431
11089TIP3   OH254681   0.002   0.993  14.800 -0.4579 -0.1392  0.0270
11089TIP3    H154682  -0.013   1.054  14.873 -0.8515  0.5516 -0.6249
11089TIP3    H254683  -0.055   0.918  14.819  1.1684 -1.0104  1.6319
11090TIP3   OH254684   1.200   5.943  10.639 -0.3450 -0.4113 -0.7417
11090TIP3    H154685   1.264   5.938  10.568  0.6726 -0.0361  0.1366
11090TIP3    H254686   1.162   5.856  10.644  0.2701 -0.7041 -1.1203
11091TIP3   OH254687   4.771   3.717  14.347  0.1413 -0.3485 -0.8247
11091TIP3    H154688   4.744   3.809  14.347 -0.3532 -0.4946 -0.6808
11091TIP3    H254689   4.827   3.710  14.269  2.0923  0.6192  0.4316
11092TIP3   OH254690   0.652   5.443  11.746 -0.1131  0.4019  0.1758
11092TIP3    H154691   0.637   5.524  11.796 -0.4739 -0.1799  1.0259
11092TIP3    H254692   0.577   5.388  11.766 -0.9488  0.6615 -2.0912
11093TIP3   OH254693   4.724   5.644  11.669 -0.1479 -0.7322 -0.3622
11093TIP3    H154694   4.688   5.562  11.703  2.0506 -1.9547 -0.8278
11093TIP3    H254695   4.700   5.643  11.576 -1.0737 -0.2927 -0.1331
11094TIP3   OH254696   2.345   0.783  15.919  0.3359  0.1302  0.9130
11094TIP3    H154697   2.290   0.755  15.845  1.0436 -0.9256  0.7630
11094TIP3    H254698   2.283   0.802  15.989 -0.5236  3.5663 -0.6725
11095TIP3   OH254699   5.176   5.293  14.943 -0.6602 -0.2226 -0.6724
11095TIP3    H154700   5.117   5.240  14.996  0.5650 -0.3556  0.5945
11095TIP3    H254701   5.246   5.233  14.918 -0.5765  0.1629 -1.3861
11096TIP3   OH254702   5.166   5.802  16.769  0.1949 -0.2621  0.1350
11096TIP3    H154703   5.189   5.781  16.860  2.8146  0.2627 -0.3476
11096TIP3    H254704   5.175   5.898  16.765 -0.5450 -0.2219 -0.5098
11097TIP3   OH254705   1.143   1.104   5.441 -1.0401  0.1362 -0.1243
11097TIP3    H154706   1.204   1.029   5.445 -0.3795  0.6809  0.1362
11097TIP3    H254707   1.078   1.078   5.376 -0.0585 -0.1151 -1.0167
11098TIP3   OH254708   4.458   4.226   3.150  0.4412  0.4877  0.0406
11098TIP3    H154709   4.509   4.227   3.231  1.4109 -0.3755 -0.5429
11098TIP3    H254710   4.369   4.206   3.178  0.7727  0.1886  0.8978
11099TIP3   OH254711   6.034   5.915  15.756  0.1078 -0.1614  0.3466
11099TIP3    H154712   5.992   6.000  15.748 -2.0512 -1.1132  1.0041
11099TIP3    H254713   6.057   5.908  15.849  1.3121  0.1521  0.0808
11100TIP3   OH254714   3.738   1.734  13.037 -0.5177  0.1390 -0.5486
11100TIP3    H154715   3.700   1.648  13.019 -1.2601  0.3254  0.0891
11100TIP3    H254716   3.809   1.743  12.973  1.6177 -2.2615  1.3490
11101TIP3   OH254717   6.165   4.401  15.234 -0.3610  0.8205 -0.2052
11101TIP3    H154718   6.201   4.482  15.196  1.1065  0.5731  0.6347
11101TIP3    H254719   6.227   4.377  15.303 -1.0310 -0.7828 -0.1441
11102TIP3   OH254720   3.942   3.004   5.062  0.2133  0.3736 -0.5646
11102TIP3    H154721   3.862   3.036   5.021  0.2493  0.0920 -0.8480
11102TIP3    H254722   3.949   3.056   5.143 -0.0527  0.6596 -0.7236
11103TIP3   OH254723   3.350   6.181  11.675 -0.2011  0.1275  0.1621
11103TIP3    H154724   3.420   6.157  11.615  1.5882  3.0880  0.9535
11103TIP3    H254725   3.294   6.240  11.624  2.2315  3.9912  1.7228
11104TIP3   OH254726   5.455   0.235  10.380 -0.1484  0.0176  0.6293
11104TIP3    H154727   5.473   0.164  10.442 -0.9121  0.4325  1.3418
11104TIP3    H254728   5.361   0.252  10.390 -0.4811 -0.5689 -1.3650
11105TIP3   OH254729   5.603   3.876  17.044  0.1047  0.1276 -0.0456
11105TIP3    H154730   5.543   3.933  17.092  0.7442  0.9619 -0.2334
11105TIP3    H254731   5.638   3.817  17.110  0.0816  0.4996  0.2988
11106TIP3   OH254732   0.113   6.726   0.357  0.9288 -0.0796 -0.4330
11106TIP3    H154733   0.126   6.815   0.390  0.0322 -0.9035  2.3204
11106TIP3    H254734   0.184   6.675   0.396  1.6971 -0.5017 -2.3472
11107TIP3   OH254735   1.052   5.094  11.016  0.4739 -0.1003  0.1931
11107TIP3    H154736   1.002   5.065  10.940  0.2278  0.9270 -0.0478
11107TIP3    H254737   1.047   5.190  11.012 -2.0640 -0.0284  3.1486
11108TIP3   OH254738   0.806   1.004  15.198 -0.3271 -0.1532 -0.9246
11108TIP3    H154739   0.789   0.960  15.281  0.4542 -0.5914 -0.9933
11108TIP3    H254740   0.824   0.932  15.137  0.9207  0.2622 -1.0493
11109TIP3   OH254741   6.126   5.983   2.036 -0.3716  0.2212 -0.5067
11109TIP3    H154742   6.206   5.932   2.028 -0.2934  0.4980 -1.6176
11109TIP3    H254743   6.055   5.920   2.023 -0.3045  0.1931 -0.7270
11110TIP3   OH254744   3.456   1.631  12.547  0.1749  0.0713 -0.5526
11110TIP3    H154745   3.406   1.713  12.548  0.1027  0.0140  0.9154
11110TIP3    H254746   3.456   1.605  12.455  0.4938  1.8936 -1.0958
11111TIP3   OH254747   5.011   0.500   2.480  0.1920  0.5056  0.7037
11111TIP3    H154748   5.008   0.595   2.471  2.1106  0.5161 -0.1687
11111TIP3    H254749   5.105   0.479   2.487 -0.1204 -1.4096 -0.3627
11112TIP3   OH254750   4.646   1.585   0.536 -0.3248 -0.1325  0.6804
11112TIP3    H154751   4.563   1.539   0.523  0.6146 -1.7416  0.3299
11112TIP3    H254752   4.667   1.621   0.450 -1.5666  1.8629  1.1758
11113TIP3   OH254753   3.784   3.830  17.162  0.0221 -0.2527 -0.5602
11113TIP3    H154754   3.734   3.773  17.221  1.2811 -1.1634 -0.3633
11113TIP3    H254755   3.797   3.910  17.213 -1.2808  0.0301 -0.6435
11114TIP3   OH254756   3.092   5.935   0.368  0.1365  0.0692  0.1234
11114TIP3    H154757   2.998   5.918   0.377  0.3928 -0.9190  0.9798
11114TIP3    H254758   3.108   6.010   0.426 -0.1275  0.2515 -0.0382
11115TIP3   OH254759   6.480   5.350  11.871 -0.6232  0.2393 -0.5053
11115TIP3    H154760   6.560   5.330  11.821 -0.6824 -0.2332 -0.4102
11115TIP3    H254761   6.413   5.293  11.834 -1.5870  2.5123 -2.3774
11116TIP3   OH254762   2.029   5.564   1.222 -0.9417  0.2903 -0.2906
11116TIP3    H154763   2.072   5.495   1.171 -2.7264  0.4116 -2.0267
11116TIP3    H254764   2.059   5.549   1.312  2.4014  0.1856 -1.3558
11117TIP3   OH254765   1.480   3.351  14.836 -0.5803  0.2422 -0.6229
11117TIP3    H154766   1.478   3.275  14.778 -2.7721 -0.4766  0.3582
11117TIP3    H254767   1.466   3.426  14.777  0.6255 -0.1675 -1.4555
11118TIP3   OH254768   2.608   5.133  14.204 -0.0358  0.0679 -0.2210
11118TIP3    H154769   2.604   5.039  14.183  1.3160 -0.0522  0.0368
11118TIP3    H254770   2.697   5.147  14.236  0.3302  1.8118 -1.9445
11119TIP3   OH254771   4.805   6.118  13.154  0.4467 -0.2143 -0.2262
11119TIP3    H154772   4.778   6.201  13.194  0.7918  0.7135 -1.8703
11119TIP3    H254773   4.800   6.054  13.225 -1.6631  0.8300  0.6115
11120TIP3   OH254774   3.975   3.012  13.468 -0.4741 -0.2373  0.2143
11120TIP3    H154775   3.950   3.076  13.402  0.0082 -0.1401  0.1253
11120TIP3    H254776   3.893   2.969  13.492 -0.8325  0.5615  0.4257
11121TIP3   OH254777   4.261   4.541  11.970 -0.1429  0.1396  0.0854
11121TIP3    H154778   4.187   4.567  12.026 -0.5277 -1.4243  0.3377
11121TIP3    H254779   4.329   4.605  11.989 -0.6577  0.2869  1.5273
11122TIP3   OH254780   3.162   3.053   5.098 -0.6629 -0.1341  0.8060
11122TIP3    H154781   3.079   3.038   5.054 -1.0857  2.1143  0.8041
11122TIP3    H254782   3.140   3.105   5.175  0.8459  1.2467  0.3359
11123TIP3   OH254783   0.063   6.374  15.056 -0.2446  0.1941  0.2029
11123TIP3    H154784  -0.018   6.391  15.007 -0.4036 -0.3819  0.2619
11123TIP3    H254785   0.051   6.422  15.138  0.4506  2.0035 -0.7017
11124TIP3   OH254786   0.413   2.671  13.625 -0.1547 -0.1918  0.8034
11124TIP3    H154787   0.320   2.661  13.643 -0.4962 -1.5403 -1.4234
11124TIP3    H254788   0.426   2.765  13.614 -1.6110 -0.1114 -0.4598
11125TIP3   OH254789   3.739   2.529   3.247 -0.3571  0.3310 -0.3792
11125TIP3    H154790   3.729   2.436   3.226  0.9899 -0.2472  1.4036
11125TIP3    H254791   3.791   2.529   3.328  0.1872  2.6522 -0.7187
11126TIP3   OH254792   1.517   6.091   3.814  0.3816  0.1553 -0.1387
11126TIP3    H154793   1.609   6.106   3.791 -0.2573  1.2084 -2.1348
11126TIP3    H254794   1.472   6.172   3.787 -1.2045 -0.5467  0.3348
11127TIP3   OH254795   5.835   2.605   4.742 -0.0073  0.1210  0.2435
11127TIP3    H154796   5.834   2.553   4.662 -2.0946  2.6203 -1.4169
11127TIP3    H254797   5.802   2.545   4.809  0.3068 -1.5313 -1.0338
11128TIP3   OH254798   5.922   5.869   3.294  0.0956  0.2651  0.1391
11128TIP3    H154799   5.990   5.869   3.226 -0.5597  0.8394 -0.5302
11128TIP3    H254800   5.922   5.779   3.327  2.2765  0.6344  1.2727
11129TIP3   OH254801   3.088   4.385   0.007  0.4708 -0.5584  0.0039
11129TIP3    H154802   3.062   4.373   0.099  2.5115 -1.5447  0.4677
11129TIP3    H254803   3.041   4.317  -0.040  1.0972 -1.4390  0.6362
11130TIP3   OH254804   4.350   6.226  15.288 -0.0303  0.5476 -0.2164
11130TIP3    H154805   4.289   6.292  15.322 -0.9877  0.3847 -1.5439
11130TIP3    H254806   4.411   6.211  15.359 -0.3697  2.1764  0.4566
11131TIP3   OH254807   5.132   4.978   1.360  0.1736  0.1666 -0.1363
11131TIP3    H154808   5.168   5.015   1.441  1.4617  1.5915 -1.3351
11131TIP3    H254809   5.055   4.930   1.388  0.2250  1.2107  1.8640
11132TIP3   OH254810   2.381   5.689  10.994  0.5741 -0.2039  0.7030
11132TIP3    H154811   2.439   5.615  10.977  0.8748 -0.0315  0.9691
11132TIP3    H254812   2.354   5.678  11.085 -2.4867 -2.1278 -0.3807
11133TIP3   OH254813   5.879   4.153  15.294  0.1166 -0.5019  0.2111
11133TIP3    H154814   5.898   4.208  15.219  1.0643 -0.2634  0.6252
11133TIP3    H254815   5.783   4.152  15.300  0.1137  3.1085  1.6852
11134TIP3   OH254816   5.442   1.776   0.027 -0.6054  0.4213 -0.1651
11134TIP3    H154817   5.396   1.846  -0.020  0.1512  0.9616 -0.1103
11134TIP3    H254818   5.477   1.720  -0.042  0.4927  1.2060 -0.2714
11135TIP3   OH254819   0.987   1.130  13.359  0.7900  0.2933  0.0161
11135TIP3    H154820   0.945   1.216  13.362 -0.2572 -0.2413  0.8313
11135TIP3    H254821   0.941   1.078  13.425  0.9295 -1.1268 -0.9714
11136TIP3   OH254822   2.557   5.872   1.347  0.4487 -0.4438  0.4530
11136TIP3    H154823   2.585   5.897   1.435 -0.7206  0.0208  0.6969
11136TIP3    H254824   2.531   5.780   1.355 -0.0014 -0.2984  0.6768
11137TIP3   OH254825   0.764   1.346  11.934 -0.0942  0.6510  0.4197
11137TIP3    H154826   0.703   1.318  11.865 -0.8216  0.7310  1.0252
11137TIP3    H254827   0.713   1.341  12.015  0.1410  2.4818  0.7081
11138TIP3   OH254828   1.563   3.659  11.874  0.4959  0.0195 -0.0230
11138TIP3    H154829   1.482   3.675  11.923  0.3031  1.5242 -0.8230
11138TIP3    H254830   1.567   3.730  11.810  0.7349 -1.9395 -2.2272
11139TIP3   OH254831   4.856   6.742   4.030 -0.2301 -0.3209  0.4482
11139TIP3    H154832   4.844   6.810   3.963 -1.6576 -0.6924  0.3051
11139TIP3    H254833   4.780   6.685   4.020  0.5867 -1.5402  1.0503
11140TIP3   OH254834   6.759   1.150  15.054  0.9071 -0.8218 -0.2462
11140TIP3    H154835   6.680   1.160  15.107  0.4605 -2.7616 -0.5158
11140TIP3    H254836   6.787   1.240  15.036 -0.0324 -0.1224  1.6271
11141TIP3   OH254837   0.150   4.245  14.146 -0.2822 -0.2795 -0.2694
11141TIP3    H154838   0.156   4.259  14.051  0.3267 -0.3618 -0.2492
11141TIP3    H254839   0.233   4.203  14.168 -0.7508 -0.9616  0.1807
11142TIP3   OH254840   1.819   3.664  17.143 -0.6056 -0.6376  0.0471
11142TIP3    H154841   1.797   3.602  17.074 -0.8065  0.9659 -1.3839
11142TIP3    H254842   1.911   3.685  17.129 -0.0653 -1.9025  1.5948
11143TIP3   OH254843   4.767   0.384   1.018  0.9738  0.3538 -0.1511
11143TIP3    H154844   4.837   0.412   0.959  0.4942  0.9963 -0.4170
11143TIP3    H254845   4.813   0.342   1.091  1.7992  3.1870  1.0056
11144TIP3   OH254846   1.962   3.621  16.442  0.3999  0.0285 -0.0663
11144TIP3    H154847   1.974   3.672  16.362 -2.4791  1.5920  0.4265
11144TIP3    H254848   1.941   3.533  16.412  0.7248  0.2691 -0.9936
11145TIP3   OH254849   2.901   4.146  13.879  0.3934 -0.2629 -0.1366
11145TIP3    H154850   2.940   4.157  13.793 -1.8055  0.5851 -1.0652
11145TIP3    H254851   2.894   4.051  13.890 -1.5827 -0.3588 -1.9763
11146TIP3   OH254852   1.861   2.432   4.909 -0.2808  1.0693  0.0625
11146TIP3    H154853   1.841   2.479   4.828  0.8351  2.5024  0.5928
11146TIP3    H254854   1.784   2.444   4.964 -0.3206  1.6056 -0.1135
11147TIP3   OH254855   6.726   2.171   4.971 -0.5831 -0.2451  0.4667
11147TIP3    H154856   6.757   2.255   5.004 -2.3482  0.2253  0.9548
11147TIP3    H254857   6.719   2.115   5.048 -2.1246  0.0346  0.5440
11148TIP3   OH254858   2.212   5.908  11.141 -0.4779 -0.2530 -0.0424
11148TIP3    H154859   2.166   5.932  11.060 -1.7881 -1.6578  0.2641
11148TIP3    H254860   2.231   5.992  11.183 -0.8798  0.4401 -1.2079
11149TIP3   OH254861   4.303   2.261  14.547 -0.0758 -0.0736  0.1059
11149TIP3    H154862   4.386   2.235  14.587  1.0062  1.1487 -1.2765
11149TIP3    H254863   4.314   2.354  14.527 -2.3874  0.5104  1.3613
11150TIP3   OH254864   5.185   3.398   0.444  0.6739 -0.0091  0.6463
11150TIP3    H154865   5.114   3.433   0.390  0.3313 -0.7390  0.6093
11150TIP3    H254866   5.211   3.317   0.400  1.9098  0.5235  0.3651
11151TIP3   OH254867   0.197   5.043  13.788 -0.3574  0.0909 -0.0174
11151TIP3    H154868   0.115   5.022  13.742 -0.3216 -2.4526  0.9937
11151TIP3    H254869   0.263   4.987  13.746  0.3208  0.1480  0.9698
11152TIP3   OH254870   3.483   0.052   4.685  0.1155  0.5319 -0.6783
11152TIP3    H154871   3.392   0.050   4.713  0.0402  1.2528 -0.8671
11152TIP3    H254872   3.526  -0.015   4.738 -0.4522  0.4233 -0.3497
11153TIP3   OH254873   1.956   0.918  11.693 -0.4326 -0.0750 -0.6749
11153TIP3    H154874   2.027   0.968  11.734 -1.7965  0.4445  1.1250
11153TIP3    H254875   1.885   0.981  11.682 -1.3178 -1.0484 -0.6021
11154TIP3   OH254876   0.224   1.101  12.573 -0.1206  0.5434  0.0593
11154TIP3    H154877   0.214   1.096  12.478  2.8456  1.6756 -0.3474
11154TIP3    H254878   0.150   1.051  12.607 -2.3464  1.7190 -2.7835
11155TIP3   OH254879   2.858   5.429   4.696  0.2664  0.8090 -0.4452
11155TIP3    H154880   2.860   5.359   4.630 -1.0516 -1.4908  1.8353
11155TIP3    H254881   2.765   5.440   4.717  0.7713 -0.1003  2.5839
11156TIP3   OH254882   4.473   3.696  14.510  0.0147 -0.6103 -0.4397
11156TIP3    H154883   4.534   3.740  14.451 -0.7495  1.3483  0.2071
11156TIP3    H254884   4.499   3.724  14.597 -0.3796 -1.5822 -0.0021
11157TIP3   OH254885   3.904   5.810   5.089 -0.3539  0.0178  0.2563
11157TIP3    H154886   3.981   5.865   5.074 -0.5253 -0.1557 -1.2682
11157TIP3    H254887   3.838   5.870   5.125  0.7332  0.0083  2.3682
11158TIP3   OH254888   0.810   2.258  11.660 -0.1781 -0.0796  0.1409
11158TIP3    H154889   0.868   2.228  11.590  0.5073 -0.0109  0.6768
11158TIP3    H254890   0.862   2.249  11.740 -0.9328 -0.0933  0.6350
11159TIP3   OH254891   1.703   5.506   5.244  0.1506  0.7440 -0.0929
11159TIP3    H154892   1.695   5.451   5.166  0.0844  1.2689 -0.4606
11159TIP3    H254893   1.654   5.459   5.311  0.6468  0.0268 -0.2239
11160TIP3   OH254894   2.869   5.279  13.957  0.3990  0.4399 -0.0411
11160TIP3    H154895   2.888   5.372  13.958 -0.0594  0.5383 -0.2153
11160TIP3    H254896   2.945   5.238  13.998  0.8769  0.8399 -0.5204
11161TIP3   OH254897   5.785   0.540   3.189 -0.4551  0.1846 -0.2061
11161TIP3    H154898   5.696   0.508   3.195  0.5562 -3.0064 -1.2198
11161TIP3    H254899   5.837   0.480   3.243  1.3237  0.8528 -1.1052
11162TIP3   OH254900   5.319   6.739  16.815 -0.5631  0.7295 -0.8104
11162TIP3    H154901   5.266   6.690  16.878  0.6148  0.9983  0.4045
11162TIP3    H254902   5.324   6.827  16.851 -0.0533  0.9388 -1.3888
11163TIP3   OH254903   2.556   3.669  14.315  0.6640  0.0993  0.6835
11163TIP3    H154904   2.524   3.729  14.248  0.3400 -1.8025 -0.8833
11163TIP3    H254905   2.478   3.643  14.364  0.6897  0.2452  0.8057
11164TIP3   OH254906   0.491   5.249   4.265  0.1057 -0.1337  0.3750
11164TIP3    H154907   0.436   5.174   4.240 -0.0273  0.1830 -0.3058
11164TIP3    H254908   0.429   5.320   4.281  0.1257 -0.6058  2.6268
11165TIP3   OH254909   4.376   6.134  11.365  0.3059  0.0450 -0.0330
11165TIP3    H154910   4.433   6.123  11.289  0.0943 -1.3046 -0.0111
11165TIP3    H254911   4.351   6.045  11.390 -1.7968  0.5915 -0.0331
11166TIP3   OH254912   4.237   5.146  14.814 -0.0584  0.3674  0.3059
11166TIP3    H154913   4.210   5.162  14.904 -1.1463 -0.3098  0.1121
11166TIP3    H254914   4.259   5.053  14.811 -0.4920  0.2739 -0.2243
11167TIP3   OH254915   2.471   3.874   0.017  0.0816  0.0966 -0.4801
11167TIP3    H154916   2.536   3.895   0.084 -0.8422 -2.7760  1.4006
11167TIP3    H254917   2.398   3.934   0.034  0.4254  0.3188  0.2216
11168TIP3   OH254918   2.337   3.799  13.480  0.0216  0.0332  0.3821
11168TIP3    H154919   2.353   3.729  13.416 -2.6193 -0.4559  0.2134
11168TIP3    H254920   2.358   3.879  13.432 -0.6885 -0.4058 -0.6929
11169TIP3   OH254921   1.507   3.184  11.707  0.6847  0.3305  0.0460
11169TIP3    H154922   1.578   3.122  11.692  1.9906  1.3133  1.9300
11169TIP3    H254923   1.536   3.236  11.782 -1.3262  1.8035 -0.1502
11170TIP3   OH254924   4.769   4.861   5.853  0.5287  0.5531 -0.2375
11170TIP3    H154925   4.754   4.806   5.930  0.1456 -0.0791 -0.7561
11170TIP3    H254926   4.710   4.935   5.865  0.1107  0.2098 -0.1627
11171TIP3   OH254927   3.684   0.823  12.585  0.0464  0.1720  0.1732
11171TIP3    H154928   3.704   0.735  12.553 -1.2642 -0.0478 -0.0690
11171TIP3    H254929   3.699   0.880  12.509 -2.5297 -0.2848 -0.7334
11172TIP3   OH254930   0.462   3.001   5.516 -0.2940 -0.0311  0.5032
11172TIP3    H154931   0.414   3.038   5.590 -0.5089 -2.3472  1.5474
11172TIP3    H254932   0.426   2.913   5.504  1.6082 -0.7082 -0.6137
11173TIP3   OH254933   0.321   6.247  13.268 -0.2648  0.2960  0.2717
11173TIP3    H154934   0.336   6.277  13.357 -0.1892  1.2489 -0.0573
11173TIP3    H254935   0.375   6.306  13.213 -1.1975  0.4515 -0.4897
11174TIP3   OH254936   6.191   1.446  13.037 -0.5546 -0.3225 -0.8974
11174TIP3    H154937   6.181   1.465  12.943 -1.1246 -0.5669 -0.8863
11174TIP3    H254938   6.237   1.523  13.071  2.1789 -1.4396 -1.8647
11175TIP3   OH254939   0.310   3.102   2.445  0.4445 -0.2820 -0.4420
11175TIP3    H154940   0.403   3.086   2.462  0.4024 -2.8004 -2.3258
11175TIP3    H254941   0.265   3.043   2.505  0.0444  0.7606  0.2948
11176TIP3   OH254942   6.633   2.161   1.542  0.2866 -0.3346  0.4449
11176TIP3    H154943   6.615   2.212   1.622  0.9031 -0.1769  0.4874
11176TIP3    H254944   6.594   2.075   1.559  0.0591 -0.1717  0.7525
11177TIP3   OH254945   1.107   0.531   3.487 -0.5599 -0.3350 -0.4706
11177TIP3    H154946   1.073   0.601   3.543  0.9927 -0.1107  0.2083
11177TIP3    H254947   1.115   0.572   3.400 -0.8339 -0.0360 -0.3567
11178TIP3   OH254948   4.809   5.510  13.222  0.9817  0.0776  0.4587
11178TIP3    H154949   4.900   5.481  13.223  0.5647 -1.2918  0.3350
11178TIP3    H254950   4.808   5.586  13.164  2.2524  0.8301  1.3951
11179TIP3   OH254951   0.864   4.147   2.681  0.0529  0.5732  0.6008
11179TIP3    H154952   0.928   4.194   2.734  0.1075  0.5513  0.5539
11179TIP3    H254953   0.848   4.065   2.729  0.3216  0.4211  0.4357
11180TIP3   OH254954   3.014   4.806  14.786 -0.4966 -0.2592  0.3388
11180TIP3    H154955   2.924   4.800  14.755 -0.3482  1.9917 -0.6324
11180TIP3    H254956   3.015   4.881  14.845  0.9839  0.5037 -0.6193
11181TIP3   OH254957   2.935   0.950  13.477  0.3129 -0.0718 -0.7183
11181TIP3    H154958   2.912   0.986  13.391 -0.8361 -0.4900 -0.5990
11181TIP3    H254959   2.927   1.024  13.537  1.7466  0.3722 -1.0609
11182TIP3   OH254960   5.795   3.163   5.715  0.1795 -0.1199  0.3119
11182TIP3    H154961   5.873   3.215   5.733  0.2117 -0.1684  0.3104
11182TIP3    H254962   5.778   3.116   5.796  0.1138 -0.0609  0.3329
11183TIP3   OH254963   4.851   6.422   6.031  0.0981  0.3598  0.2764
11183TIP3    H154964   4.843   6.473   6.111  2.2516  1.6149 -0.2620
11183TIP3    H254965   4.798   6.344   6.047  1.1777  0.1793  3.2317
11184TIP3   OH254966   2.767   2.893   3.645  0.3193  0.1388 -0.1099
11184TIP3    H154967   2.838   2.946   3.610  0.3981 -0.5579 -1.0336
11184TIP3    H254968   2.687   2.940   3.620  0.4374  0.6541  0.4799
11185TIP3   OH254969   4.332   5.076  16.023 -0.3231  0.0782 -0.1000
11185TIP3    H154970   4.259   5.138  16.027 -0.2451  0.1730 -0.1217
11185TIP3    H254971   4.397   5.112  16.083 -0.1651  0.1621 -0.3203
11186TIP3   OH254972   1.324   6.555   5.594  0.2314  0.1167 -0.0789
11186TIP3    H154973   1.383   6.614   5.547  1.0676  0.3494  1.2274
11186TIP3    H254974   1.239   6.597   5.590  0.1182 -0.2632 -2.0656
11187TIP3   OH254975   2.930   0.783  13.922 -0.5763  0.0467 -0.1978
11187TIP3    H154976   2.966   0.872  13.925 -2.0191  0.6368  0.9474
11187TIP3    H254977   2.845   0.791  13.967 -1.0180 -1.7763 -0.6650
11188TIP3   OH254978   1.966   0.462   2.432  0.0508 -0.1415  0.0903
11188TIP3    H154979   1.935   0.373   2.419  0.9414 -0.6982  1.6352
11188TIP3    H254980   2.049   0.466   2.386 -0.1352 -0.0093 -0.2373
11189TIP3   OH254981   0.892   5.849   1.257  0.5065 -0.4297  0.1401
11189TIP3    H154982   0.800   5.823   1.259 -0.4612  2.9145  1.2200
11189TIP3    H254983   0.918   5.835   1.165 -1.4939 -0.0076 -0.5151
11190TIP3   OH254984   3.202   5.284  12.089  0.2072  0.1705 -0.1542
11190TIP3    H154985   3.113   5.254  12.108 -0.2648  1.3913 -0.4207
11190TIP3    H254986   3.209   5.368  12.134  1.5269 -0.3264  0.5824
11191TIP3   OH254987   0.477   4.945   1.983 -0.4710  0.0428 -0.3823
11191TIP3    H154988   0.492   4.989   2.067 -0.2344  0.5528 -0.6901
11191TIP3    H254989   0.462   4.853   2.007 -1.4946  0.3751  0.3119
11192TIP3   OH254990   1.844   1.802   5.831  0.0126  0.5257 -0.1278
11192TIP3    H154991   1.756   1.773   5.809  0.5117 -0.1897 -1.2006
11192TIP3    H254992   1.844   1.896   5.812 -0.5923  0.5767  0.1254
11193TIP3   OH254993   4.872   3.913   2.945 -0.4360 -0.0791  0.0697
11193TIP3    H154994   4.861   3.836   3.001  0.0565 -0.0625  0.1931
11193TIP3    H254995   4.857   3.987   3.002 -2.0417 -0.1033 -0.3091
11194TIP3   OH254996   5.898   2.472   4.500 -0.4234  0.0833 -0.2321
11194TIP3    H154997   5.831   2.486   4.432 -0.0688  2.8986 -0.0674
11194TIP3    H254998   5.981   2.474   4.452 -0.3242 -1.2775 -0.1395
11195TIP3   OH254999   6.732   4.522  14.172 -0.6652  0.1806 -0.4121
11195TIP3    H155000   6.806   4.548  14.118  0.3069  0.1672  0.9133
11195TIP3    H255001   6.668   4.593  14.161 -0.5571  0.0835 -1.7225
11196TIP3   OH255002   1.362   6.655   0.911 -0.0199  0.1984 -0.1171
11196TIP3    H155003   1.429   6.720   0.934 -1.6388  1.6269  0.6115
11196TIP3    H255004   1.403   6.571   0.933  2.0933  0.9391 -1.0702
11197TIP3   OH255005   5.832   2.910  16.472 -0.5964  0.1901  0.3293
11197TIP3    H155006   5.760   2.875  16.524 -2.1125  3.2476  0.4129
11197TIP3    H255007   5.800   2.907  16.381  0.4216 -1.3002 -0.0012
11198TIP3   OH255008   2.481   5.118   1.392  0.6918  0.5509 -0.1244
11198TIP3    H155009   2.477   5.192   1.331 -1.8613  1.2099  0.7342
11198TIP3    H255010   2.536   5.053   1.349  1.7648  2.3641 -1.5643
11199TIP3   OH255011   3.912   3.652  13.547 -0.0581 -0.0380  0.0221
11199TIP3    H155012   3.998   3.649  13.589  0.4424 -1.4474 -1.0693
11199TIP3    H255013   3.917   3.728  13.488 -0.4586  1.4123  1.7944
11200TIP3   OH255014   1.812   4.876  15.811 -0.7935 -0.5022  0.1909
11200TIP3    H155015   1.772   4.889  15.897 -0.7101 -1.5526  0.3883
11200TIP3    H255016   1.869   4.952  15.799  1.9427 -2.0827  2.6056
11201TIP3   OH255017   0.772   5.503   2.017 -0.0585 -0.2566  0.0584
11201TIP3    H155018   0.713   5.535   1.949  0.3003  0.2547 -0.0172
11201TIP3    H255019   0.739   5.542   2.098 -0.7004 -1.1576  0.2258
11202TIP3   OH255020   6.469   1.016  16.111 -0.0287  0.0940 -0.6185
11202TIP3    H155021   6.382   1.013  16.072  0.1957 -0.9089 -1.0515
11202TIP3    H255022   6.514   0.938  16.077  0.1635 -0.8311  1.6570
11203TIP3   OH255023   4.022   1.401  14.220 -0.0933 -0.2258 -0.3238
11203TIP3    H155024   4.105   1.356  14.201 -1.1099 -1.9482 -0.8150
11203TIP3    H255025   4.010   1.389  14.314  1.3703  2.0822  0.1899
11204TIP3   OH255026   4.877   0.613   4.401  0.0759  0.3218 -0.8972
11204TIP3    H155027   4.783   0.629   4.389 -0.4930 -1.7749  0.5191
11204TIP3    H255028   4.909   0.596   4.312 -1.8891 -3.8265 -0.9453
11205TIP3   OH255029   0.884   1.447  11.014  0.2770  0.9390  0.3507
11205TIP3    H155030   0.851   1.359  10.997  1.4795  0.3134  1.1896
11205TIP3    H255031   0.892   1.487  10.928  0.7060 -0.1365 -0.1151
11206TIP3   OH255032   0.323   5.143  11.855 -0.3402  0.0703  0.3000
11206TIP3    H155033   0.404   5.103  11.887 -2.1636 -1.4609  3.2068
11206TIP3    H255034   0.320   5.228  11.901  0.6093  1.0587 -1.4084
11207TIP3   OH255035   6.291   3.726  11.960  0.0335 -0.3135 -0.3041
11207TIP3    H155036   6.197   3.733  11.974 -0.3048 -0.3857 -2.4469
11207TIP3    H255037   6.328   3.802  12.004 -0.9655 -0.5409  0.9565
11208TIP3   OH255038   4.550   0.044  16.255 -0.0725  0.6489 -0.1221
11208TIP3    H155039   4.532   0.044  16.349  0.1052  0.3124 -0.0874
11208TIP3    H255040   4.646   0.048  16.249 -0.0074 -0.7413 -0.2731
11209TIP3   OH255041   3.893   4.224   6.305  0.4991  0.4031 -0.2650
11209TIP3    H155042   3.868   4.310   6.271 -3.3659 -1.1419 -1.5845
11209TIP3    H255043   3.897   4.169   6.227  0.6503 -1.1403  0.8234
11210TIP3   OH255044   0.122   0.632  14.802 -0.0186  0.4304 -0.1279
11210TIP3    H155045   0.134   0.565  14.870 -0.9715  0.3557 -0.0222
11210TIP3    H255046   0.186   0.699  14.823  0.8462 -0.3728 -0.1404
11211TIP3   OH255047   0.842   2.770   5.056 -0.1634  0.1617 -0.0552
11211TIP3    H155048   0.762   2.788   5.007  0.8801  2.5208 -0.9471
11211TIP3    H255049   0.880   2.856   5.073  1.9169 -0.8894  0.8086
11212TIP3   OH255050   4.945   1.048   1.484 -0.3401  0.1133 -0.2904
11212TIP3    H155051   5.002   1.105   1.537 -1.0151  0.2032  0.3483
11212TIP3    H255052   4.988   0.963   1.486 -0.5486  0.0174  0.7314
11213TIP3   OH255053   0.444   6.057  15.113 -0.1217  0.4751  0.2444
11213TIP3    H155054   0.500   6.134  15.102 -1.3194  0.9325 -3.2285
11213TIP3    H255055   0.361   6.093  15.146 -1.0538  0.8540 -2.4446
11214TIP3   OH255056   4.231   3.550  15.829  0.0094 -0.2771  0.2859
11214TIP3    H155057   4.279   3.471  15.855  0.3574 -0.1284  0.0982
11214TIP3    H255058   4.276   3.621  15.874  0.4210 -0.0530 -0.4833
11215TIP3   OH255059   0.977   4.548   1.552 -0.2220  0.9596 -0.0285
11215TIP3    H155060   1.056   4.494   1.549 -0.7473  0.1970 -0.2454
11215TIP3    H255061   0.988   4.609   1.479 -0.0983  0.4730 -0.4211
11216TIP3   OH255062   1.969   1.862   5.510  0.1448 -0.1947  0.1960
11216TIP3    H155063   1.972   1.808   5.431 -1.4216 -0.5201  0.3435
11216TIP3    H255064   2.002   1.805   5.579 -0.7896 -0.7110  0.2162
11217TIP3   OH255065   3.675   3.138   2.450 -0.4332  0.3687 -0.2442
11217TIP3    H155066   3.725   3.057   2.453  0.1732  0.7681  0.7903
11217TIP3    H255067   3.689   3.172   2.362  0.2429 -0.0684 -0.3091
11218TIP3   OH255068   5.057   2.660   1.812 -0.3335  0.1536 -0.3342
11218TIP3    H155069   5.092   2.612   1.736  0.7744  0.5751 -0.1047
11218TIP3    H255070   4.972   2.619   1.830  0.5614 -1.6758 -0.1861
11219TIP3   OH255071   4.894   3.489  16.913  0.5644  0.3934  0.3653
11219TIP3    H155072   4.916   3.575  16.948  0.5513  0.1998  0.8525
11219TIP3    H255073   4.813   3.503  16.863  1.7977  1.1146 -1.4770
11220TIP3   OH255074   4.328   4.972   1.336 -0.1645 -0.0507 -0.8650
11220TIP3    H155075   4.307   4.898   1.278 -2.5308 -1.6050  1.8085
11220TIP3    H255076   4.247   5.024   1.338 -0.1683 -0.0944  1.0563
11221TIP3   OH255077   6.747   4.213  12.437 -0.8852  0.0086 -0.1225
11221TIP3    H155078   6.807   4.256  12.497 -0.5968  0.0057 -0.4117
11221TIP3    H255079   6.798   4.198  12.358 -1.5016  0.7312 -0.6590
11222TIP3   OH255080   4.401   1.924  15.568 -0.3983 -0.1560  0.1827
11222TIP3    H155081   4.493   1.921  15.592  0.2200  0.1918 -2.0799
11222TIP3    H255082   4.377   2.017  15.578 -0.8211 -0.4228  1.8307
11223TIP3   OH255083   3.345   3.626  13.950 -0.6716 -0.2195  0.0764
11223TIP3    H155084   3.359   3.624  13.855  0.2583  1.1782  0.1621
11223TIP3    H255085   3.391   3.549  13.983  2.1941  1.2369 -0.2651
11224TIP3   OH255086   5.162   5.653  14.329 -0.2189  0.4227 -0.2391
11224TIP3    H155087   5.197   5.619  14.246  0.7495  1.6226 -0.3277
11224TIP3    H255088   5.087   5.707  14.303 -1.1005 -0.7523 -0.1783
11225TIP3   OH255089   4.531   0.273   2.322  0.0002  0.7694 -1.0067
11225TIP3    H155090   4.538   0.345   2.385  0.1027 -0.4329  0.3847
11225TIP3    H255091   4.471   0.211   2.363  3.1810 -1.9399 -0.1691
11226TIP3   OH255092   1.314   6.571  11.807  0.1107 -0.1497  0.1060
11226TIP3    H155093   1.221   6.594  11.813  0.1403 -0.2241  0.9025
11226TIP3    H255094   1.326   6.503  11.874  1.1310  1.1057  1.2253
11227TIP3   OH255095   0.297   3.548   5.694 -0.5209 -0.3892  0.2868
11227TIP3    H155096   0.359   3.548   5.620 -0.4060 -0.2156  0.3832
11227TIP3    H255097   0.301   3.459   5.729  0.4798 -0.0838  0.9672
11228TIP3   OH255098   4.472   3.611   6.723  0.5148  0.1750  0.2693
11228TIP3    H155099   4.500   3.660   6.646  0.7084  0.1689  0.3343
11228TIP3    H255100   4.390   3.570   6.698 -1.3718  3.1511  1.2244
11229TIP3   OH255101   2.808   2.697  10.800 -0.2757 -0.8135  0.1806
11229TIP3    H155102   2.789   2.791  10.803  0.1998 -0.7433  0.9655
11229TIP3    H255103   2.849   2.683  10.715 -0.3450 -0.3111  0.0657
11230TIP3   OH255104   3.630   0.545   4.924  0.1599 -0.2048 -0.3136
11230TIP3    H155105   3.587   0.460   4.935 -1.0499  0.5504  0.9162
11230TIP3    H255106   3.592   0.580   4.843 -0.7127 -0.0484  0.1509
11231TIP3   OH255107   5.445   3.627   1.671  0.4423  0.3410 -0.4126
11231TIP3    H155108   5.448   3.722   1.684 -1.4578  0.1451  1.7073
11231TIP3    H255109   5.410   3.592   1.752  2.2732 -2.3347 -0.7019
11232TIP3   OH255110   4.176   2.990  11.266  0.1653  0.1239 -0.0774
11232TIP3    H155111   4.147   2.899  11.260 -1.9401  0.8738 -1.8833
11232TIP3    H255112   4.095   3.040  11.279  0.9982  1.9816 -1.8968
11233TIP3   OH255113   6.355   2.116  12.072  0.0226 -0.0163 -0.4064
11233TIP3    H155114   6.310   2.117  11.987  2.3412 -0.3564 -1.7129
11233TIP3    H255115   6.383   2.025  12.082  1.4570  0.4210 -0.2499
11234TIP3   OH255116   4.369   0.033   3.915 -0.0130 -0.1575 -0.3804
11234TIP3    H155117   4.402   0.123   3.913  0.1216 -0.1890  0.3055
11234TIP3    H255118   4.277   0.043   3.942  0.3425 -0.3131  0.9206
11235TIP3   OH255119   3.481   5.555   2.696  0.1331  0.3435 -0.4363
11235TIP3    H155120   3.550   5.488   2.704 -0.4294 -0.2038 -0.0980
11235TIP3    H255121   3.528   5.638   2.699  0.7207 -0.0127  0.4091
11236TIP3   OH255122   6.571   0.575  13.046 -0.1394 -0.0455 -0.1118
11236TIP3    H155123   6.653   0.623  13.036  0.3223 -1.3114 -2.6290
11236TIP3    H255124   6.503   0.637  13.019  0.1592  0.3375  0.0158
11237TIP3   OH255125   4.439   3.324  12.774 -0.4882 -0.1886 -0.0798
11237TIP3    H155126   4.478   3.240  12.751 -0.9262 -1.0325  2.1179
11237TIP3    H255127   4.351   3.321  12.735 -0.8953 -1.2123  0.8793
11238TIP3   OH255128   5.374   4.872   5.398 -0.0727 -0.2198 -0.3235
11238TIP3    H155129   5.431   4.800   5.424 -0.0262 -0.2285 -0.4507
11238TIP3    H255130   5.317   4.835   5.331 -1.3161 -0.6669  0.9457
11239TIP3   OH255131   1.596   0.542  14.187 -0.4914  0.4964 -0.3728
11239TIP3    H155132   1.666   0.489  14.226 -2.1108 -1.4811 -0.0779
11239TIP3    H255133   1.604   0.627  14.231 -1.3278 -1.2057  3.2563
11240TIP3   OH255134   3.160   0.711  16.418 -0.6987 -0.2071 -0.0324
11240TIP3    H155135   3.196   0.722  16.506 -0.3266  0.3375 -0.2524
11240TIP3    H255136   3.083   0.768  16.415  1.4478  2.7396 -1.2969
11241TIP3   OH255137   2.021   5.126   6.263 -0.6082 -0.0642 -0.6519
11241TIP3    H155138   1.956   5.153   6.328 -0.4990 -1.0570 -0.1085
11241TIP3    H255139   2.105   5.139   6.306 -0.5206 -0.4121 -0.7134
11242TIP3   OH255140   1.709   6.150   0.289  0.4335  0.1413  0.4509
11242TIP3    H155141   1.757   6.068   0.290  1.3897  0.5692 -3.3213
11242TIP3    H255142   1.688   6.165   0.197 -3.9741  1.7265  1.5799
11243TIP3   OH255143   5.551   3.736   6.655  0.0484  0.3449 -0.3223
11243TIP3    H155144   5.559   3.717   6.749 -1.9589  0.1163 -0.1728
11243TIP3    H255145   5.605   3.670   6.613 -0.2687 -0.5261  0.6121
11244TIP3   OH255146   5.255   4.933  16.877 -0.4622  0.0317  0.1558
11244TIP3    H155147   5.326   4.888  16.832 -2.1022 -2.1698 -0.3059
11244TIP3    H255148   5.194   4.864  16.901 -2.1401  1.7984  1.1413
11245TIP3   OH255149   0.926   1.609   3.111 -1.1388 -0.5095 -0.6392
11245TIP3    H155150   0.942   1.528   3.063 -0.5276 -1.0889  0.5206
11245TIP3    H255151   0.933   1.678   3.045  3.0760 -0.9722 -0.8612
11246TIP3   OH255152   6.017   5.879   3.030 -0.2045 -0.3626  0.6811
11246TIP3    H155153   6.001   5.817   2.959 -1.2442 -0.1574  0.7228
11246TIP3    H255154   6.112   5.889   3.033 -0.1724 -0.1671 -0.8564
11247TIP3   OH255155   4.241   6.166  14.136  0.5157  0.0772  0.1010
11247TIP3    H155156   4.296   6.136  14.208  1.2853 -0.7357 -0.8055
11247TIP3    H255157   4.298   6.163  14.059 -0.3214  0.8174 -0.5656
11248TIP3   OH255158   3.902   2.094  16.117  0.2337 -0.2904 -0.0281
11248TIP3    H155159   3.881   2.154  16.046 -0.6584 -0.9882 -0.3741
11248TIP3    H255160   3.997   2.099  16.125  0.2979  0.1678 -0.9422
11249TIP3   OH255161   2.658   0.451   2.331 -0.1897 -0.2045  0.3768
11249TIP3    H155162   2.693   0.364   2.312 -0.8653 -0.6444  1.1122
11249TIP3    H255163   2.563   0.440   2.326 -0.2696  0.5781  0.1122
11250TIP3   OH255164   1.432   4.656   0.941 -0.2057  0.1573  0.6218
11250TIP3    H155165   1.475   4.704   1.012 -1.4180  0.3104  1.2706
11250TIP3    H255166   1.367   4.717   0.907  0.5078  0.1600 -0.7783
11251TIP3   OH255167   5.919   6.188  16.562 -0.6057 -0.7147  0.2833
11251TIP3    H155168   5.858   6.121  16.593 -1.9182  0.9179  1.3172
11251TIP3    H255169   5.872   6.270  16.572  1.0708  0.4091 -0.7285
11252TIP3   OH255170   1.443   2.321  15.516 -0.4693 -0.7068 -0.1485
11252TIP3    H155171   1.494   2.401  15.521  0.5785 -1.3576 -0.2359
11252TIP3    H255172   1.356   2.350  15.488 -1.3014  0.8535  3.7495
11253TIP3   OH255173   2.280   3.639   3.179  0.1605 -0.1425  0.4325
11253TIP3    H155174   2.345   3.598   3.237  0.0982 -0.7657  0.0682
11253TIP3    H255175   2.209   3.576   3.173 -0.1300  0.2014  0.2008
11254TIP3   OH255176   6.218   1.182   0.722  0.2119  0.8892 -0.0039
11254TIP3    H155177   6.153   1.120   0.754  0.4401  0.7249  0.1391
11254TIP3    H255178   6.279   1.130   0.670  1.3669  0.6973  1.5049
11255TIP3   OH255179   5.951   4.715  14.019  0.1563  0.4582 -0.6537
11255TIP3    H155180   5.936   4.662  13.941 -1.4145  0.5043 -0.4017
11255TIP3    H255181   5.925   4.804  13.993  0.9789  0.7497 -0.4992
11256TIP3   OH255182   0.165   2.362  14.707 -0.3278 -0.1797  0.4072
11256TIP3    H155183   0.166   2.270  14.681  0.5239 -0.8609  2.6958
11256TIP3    H255184   0.138   2.360  14.799 -0.0072  1.8437  0.5640
11257TIP3   OH255185   3.391   4.144   0.734  0.0196 -0.3410  0.0864
11257TIP3    H155186   3.356   4.131   0.822 -0.8818 -1.2913 -0.4021
11257TIP3    H255187   3.423   4.234   0.734  1.1362 -0.7025  1.7641
11258TIP3   OH255188   0.595   3.153  10.421  0.2927 -0.0154 -0.1926
11258TIP3    H155189   0.544   3.201  10.356 -1.6644 -1.2022  0.3984
11258TIP3    H255190   0.539   3.153  10.499  0.5913 -2.5166  0.0558
11259TIP3   OH255191   0.354   4.693  14.234  0.5630 -0.1635  0.1603
11259TIP3    H155192   0.266   4.709  14.200  0.4638  1.3410  1.0376
11259TIP3    H255193   0.340   4.681  14.328  1.0486 -2.1989 -0.0238
11260TIP3   OH255194   5.819   0.753  16.042  0.0873  0.3873 -0.2671
11260TIP3    H155195   5.794   0.697  16.115  0.3769  1.3157  0.5565
11260TIP3    H255196   5.740   0.759  15.988  0.1199 -0.9774 -0.4728
11261TIP3   OH255197   4.885   6.578  13.291 -0.5302 -0.3553  0.1796
11261TIP3    H155198   4.858   6.662  13.328  1.6713  0.3336  0.2872
11261TIP3    H255199   4.944   6.601  13.219 -1.0109 -1.7860 -0.6975
11262TIP3   OH255200   0.009   3.980   6.828  0.0474  0.9335 -0.1212
11262TIP3    H155201   0.032   3.889   6.847  0.8457  1.2343  0.3690
11262TIP3    H255202   0.071   4.032   6.880  0.3621  1.7646 -1.3223
11263TIP3   OH255203   1.017   2.408   4.866 -0.0651 -0.3326  0.4114
11263TIP3    H155204   1.075   2.332   4.854 -2.0834 -1.8266 -0.0611
11263TIP3    H255205   0.933   2.370   4.891 -1.6641  1.6356 -1.8179
11264TIP3   OH255206   2.153   1.380   1.884 -0.0253  0.6563 -0.0470
11264TIP3    H155207   2.086   1.396   1.818 -2.5105 -1.6623  1.7796
11264TIP3    H255208   2.117   1.420   1.964  1.9024  1.4841  0.4298
11265TIP3   OH255209   1.788   4.688  15.607 -0.8453  0.0700  0.4193
11265TIP3    H155210   1.828   4.617  15.657  1.9357  1.5660  0.4602
11265TIP3    H255211   1.776   4.759  15.670 -1.1065  0.5661 -0.1767
11266TIP3   OH255212   4.934   3.263  11.628  0.1552 -0.3761  0.3842
11266TIP3    H155213   4.946   3.168  11.620 -0.0973 -0.6086  2.5713
11266TIP3    H255214   5.023   3.298  11.631  0.2467 -0.5881  0.1907
11267TIP3   OH255215   2.503   2.479  15.899  0.0260  0.2905 -0.1921
11267TIP3    H155216   2.583   2.516  15.938 -0.2930  1.1225 -0.3010
11267TIP3    H255217   2.439   2.550  15.905 -0.0469  0.4181 -2.1727
11268TIP3   OH255218   5.734   2.137  16.907 -0.2057 -1.2605  0.4056
11268TIP3    H155219   5.646   2.100  16.898 -0.7854 -0.3229  2.0678
11268TIP3    H255220   5.728   2.221  16.861 -0.9480 -0.0116  2.7185
11269TIP3   OH255221   1.626   2.081   0.090  0.0391 -0.1370 -0.2357
11269TIP3    H155222   1.571   2.129   0.028 -1.0654 -0.6484  0.3503
11269TIP3    H255223   1.565   2.045   0.154  1.1025 -0.2933  0.6975
11270TIP3   OH255224   6.552   2.936  16.684 -0.1587 -0.8957 -0.1694
11270TIP3    H155225   6.604   3.013  16.659 -0.6952 -0.5263 -0.1450
11270TIP3    H255226   6.504   2.963  16.762 -1.4974 -0.7566 -1.0257
11271TIP3   OH255227   2.222   3.928  12.624  0.2122 -0.4218  0.0337
11271TIP3    H155228   2.139   3.970  12.600  0.8595  0.8831  0.0125
11271TIP3    H255229   2.199   3.837  12.642 -1.1640 -0.1557 -0.3263
11272TIP3   OH255230   2.566   3.561   3.204  0.0162 -0.2837 -0.0764
11272TIP3    H155231   2.572   3.616   3.282  1.4714  0.7726 -0.8999
11272TIP3    H255232   2.637   3.498   3.213  0.0064 -0.3418 -0.3869
11273TIP3   OH255233   2.980   6.101   1.214 -0.4513 -0.8950 -0.1168
11273TIP3    H155234   2.996   6.195   1.223 -0.3709 -1.2125  3.7589
11273TIP3    H255235   3.043   6.072   1.147  0.7887  1.4789 -0.0297
11274TIP3   OH255236   1.195   4.884   2.118  0.2339 -0.7459 -0.4819
11274TIP3    H155237   1.187   4.837   2.035  2.0399 -0.8727 -0.6054
11274TIP3    H255238   1.158   4.971   2.100  0.5822 -0.7862 -1.4168
11275TIP3   OH255239   3.018   4.439   5.545 -0.8301 -0.0380  0.1650
11275TIP3    H155240   3.058   4.434   5.632  0.5232  1.4181 -0.3540
11275TIP3    H255241   2.934   4.482   5.559 -1.1014 -0.7987  0.9056
11276TIP3   OH255242   6.545   2.235   4.684 -0.3744  0.6767  0.1128
11276TIP3    H155243   6.595   2.271   4.757  0.0065  0.5198 -0.0646
11276TIP3    H255244   6.523   2.310   4.629  1.2046  0.5519 -0.7331
11277TIP3   OH255245   4.545   3.169  11.341  0.5237 -0.0399 -0.2816
11277TIP3    H155246   4.623   3.213  11.374 -1.2970  1.7586  1.8621
11277TIP3    H255247   4.533   3.204  11.253  1.7639  0.1677 -0.3700
11278TIP3   OH255248   6.437   2.698   2.933  0.5034  0.3429 -0.1916
11278TIP3    H155249   6.517   2.659   2.968  0.8754  0.1360 -1.2470
11278TIP3    H255250   6.431   2.665   2.843 -1.4107 -0.6064  0.2525
11279TIP3   OH255251   1.305   3.951   1.893  0.2631 -0.1108 -0.0587
11279TIP3    H155252   1.357   4.030   1.901 -0.5762  0.3252  1.1623
11279TIP3    H255253   1.355   3.884   1.941  0.2062  0.0430  0.2097
11280TIP3   OH255254   5.042   5.063  15.042 -0.6611  0.1783  0.3015
11280TIP3    H155255   5.080   4.989  14.995 -1.1743  0.0162  0.1469
11280TIP3    H255256   4.952   5.036  15.061 -0.4777  0.2635  1.3215
11281TIP3   OH255257   2.726   1.660   2.164  0.3762  0.5119  0.6480
11281TIP3    H155258   2.791   1.730   2.152  0.4039  0.4480  0.4238
11281TIP3    H255259   2.775   1.579   2.147  0.2443  0.4628  0.5024
11282TIP3   OH255260   0.328   5.215   0.346  0.5862 -0.7596  0.0741
11282TIP3    H155261   0.235   5.195   0.359 -0.1263  1.5585 -1.1903
11282TIP3    H255262   0.347   5.186   0.257  0.6426  0.2061 -0.2379
11283TIP3   OH255263   5.883   5.647  11.459  0.0703 -0.4795  0.1737
11283TIP3    H155264   5.963   5.683  11.421 -0.5032 -0.0366 -0.6109
11283TIP3    H255265   5.820   5.646  11.387 -0.5279 -1.1593  0.7009
11284TIP3   OH255266   5.027   5.548  14.546 -0.0446 -0.2402 -0.6544
11284TIP3    H155267   5.077   5.540  14.465 -0.1996 -2.6426 -0.5442
11284TIP3    H255268   5.027   5.460  14.583 -0.9779  0.5810  1.3681
11285TIP3   OH255269   4.865   5.312  14.982 -0.0790 -0.4139  0.1151
11285TIP3    H155270   4.808   5.351  14.915  0.3213 -0.4850 -0.2683
11285TIP3    H255271   4.815   5.238  15.016 -0.7609  0.3098  0.7084
11286TIP3   OH255272   3.575   1.786   2.327 -0.3038  0.4217  0.0456
11286TIP3    H155273   3.601   1.791   2.235  0.4220  0.7568  0.2690
11286TIP3    H255274   3.585   1.875   2.359  0.0354  0.1783  0.6132
11287TIP3   OH255275   5.269   5.789   5.102 -0.2008  0.2040 -0.5303
11287TIP3    H155276   5.288   5.799   5.195  1.2089 -3.6469 -0.2872
11287TIP3    H255277   5.173   5.792   5.097 -0.2693  0.9928  0.9774
11288TIP3   OH255278   4.530   4.570   6.358 -1.2162 -0.1007  0.5877
11288TIP3    H155279   4.489   4.530   6.435  0.6641 -1.9686  0.6584
11288TIP3    H255280   4.567   4.496   6.309  0.3272  1.3475 -0.4775
11289TIP3   OH255281   4.466   1.281  11.513  0.0266 -0.0677 -0.0010
11289TIP3    H155282   4.407   1.290  11.438  0.1772 -1.1644 -0.2604
11289TIP3    H255283   4.543   1.237  11.478  0.3128 -0.1293  0.6889
11290TIP3   OH255284   1.886   5.040   1.261  0.2241  0.9269  0.1877
11290TIP3    H155285   1.911   5.007   1.175  0.5268 -0.3973  0.7506
11290TIP3    H255286   1.836   4.968   1.300  0.3743  1.3775  1.2300
11291TIP3   OH255287   4.722   6.621   3.529 -0.2015 -0.1203 -0.0363
11291TIP3    H155288   4.751   6.561   3.598  3.0054  1.5637  0.1150
11291TIP3    H255289   4.639   6.657   3.562  0.1682 -1.0081  1.9171
11292TIP3   OH255290   0.147   2.318  13.820 -0.0131 -0.3656 -0.2376
11292TIP3    H155291   0.153   2.245  13.759 -1.5768 -1.0573  0.4265
11292TIP3    H255292   0.182   2.283  13.902 -0.0158 -0.1230 -0.1334
11293TIP3   OH255293   4.576   3.889   1.580  0.0434 -0.1412 -0.0931
11293TIP3    H155294   4.666   3.921   1.590 -0.0044 -0.6820  2.4581
11293TIP3    H255295   4.536   3.905   1.666 -1.9526 -0.9700 -0.8546
11294TIP3   OH255296   6.408   5.351  11.537  0.5883  0.6483  0.1293
11294TIP3    H155297   6.503   5.365  11.545  0.4678  0.8167  1.2522
11294TIP3    H255298   6.398   5.256  11.542  0.9469  0.4046 -2.7568
11295TIP3   OH255299   1.179   1.246   2.514  0.1238 -0.2607  0.0850
11295TIP3    H155300   1.149   1.330   2.482 -0.8192 -1.0833 -1.2282
11295TIP3    H255301   1.120   1.182   2.474  0.9746 -1.5632  0.8649
11296TIP3   OH255302   6.281   2.052  13.053  0.3224 -0.7599  0.2917
11296TIP3    H155303   6.356   2.046  12.994 -0.8519 -1.6558 -1.1332
11296TIP3    H255304   6.241   2.136  13.031  0.5660 -0.5431  0.6603
11297TIP3   OH255305   0.696   3.814  15.946 -0.4201  0.3018 -0.5762
11297TIP3    H155306   0.710   3.748  16.014  0.4086  0.5819 -0.4739
11297TIP3    H255307   0.658   3.888  15.992 -1.8229 -0.2872 -0.7739
11298TIP3   OH255308   4.326   0.120   5.503  0.1007 -0.1949 -0.7224
11298TIP3    H155309   4.303   0.207   5.536 -0.0607 -0.5009 -0.0213
11298TIP3    H255310   4.253   0.097   5.444  0.4217  0.3769 -1.3561
11299TIP3   OH255311   6.190   6.138  16.475 -0.2104 -0.0654 -0.2422
11299TIP3    H155312   6.111   6.147  16.529  2.0614  1.4581  3.0418
11299TIP3    H255313   6.212   6.227  16.450  1.7970 -0.2152  0.9251
11300TIP3   OH255314   3.100   2.392   4.871 -0.2321 -0.6559 -0.4184
11300TIP3    H155315   3.059   2.324   4.818 -0.0366 -0.8399 -0.3337
11300TIP3    H255316   3.079   2.369   4.961 -1.4298  0.2214 -0.4599
11301TIP3   OH255317   1.847   4.963   0.307  0.0783 -0.5226 -0.3462
11301TIP3    H155318   1.896   4.889   0.271 -0.1080 -0.3743 -0.9069
11301TIP3    H255319   1.821   5.015   0.230  1.7832  1.1053  0.1392
11302TIP3   OH255320   4.454   1.233   0.950 -0.5354 -0.2355  0.1029
11302TIP3    H155321   4.472   1.147   0.987  0.8799  0.3702  0.8268
11302TIP3    H255322   4.414   1.283   1.021 -0.2297  0.0981  0.0413
11303TIP3   OH255323   5.343   1.918  12.961  0.0303 -0.1388 -0.1039
11303TIP3    H155324   5.413   1.857  12.938 -1.5554 -1.5957 -1.2185
11303TIP3    H255325   5.313   1.888  13.047 -0.4459 -0.6725 -0.4503
11304TIP3   OH255326   3.464   6.061  11.208  0.4603  0.4580  0.7478
11304TIP3    H155327   3.528   6.120  11.167  1.8333 -0.8810  0.8935
11304TIP3    H255328   3.393   6.054  11.144  1.2195  0.6787 -0.1355
11305TIP3   OH255329   3.569   0.055  12.598  0.5466  0.2478 -0.4656
11305TIP3    H155330   3.532  -0.033  12.585 -1.6067  1.0684 -0.2136
11305TIP3    H255331   3.633   0.045  12.668 -1.4588 -0.6976  1.2903
11306TIP3   OH255332   1.691   3.464  15.761 -0.0679 -0.2899 -0.1881
11306TIP3    H155333   1.711   3.550  15.726 -0.5560 -0.4051 -0.7588
11306TIP3    H255334   1.761   3.407  15.728 -0.4408 -0.3663 -0.8568
11307TIP3   OH255335   3.826   2.145   4.513 -0.2730  0.0701  0.2042
11307TIP3    H155336   3.752   2.129   4.571 -2.2864 -0.9257 -2.5298
11307TIP3    H255337   3.799   2.220   4.459  1.0533  0.2137 -0.2831
11308TIP3   OH255338   2.091   5.397  10.436 -0.5901  0.4453  0.3893
11308TIP3    H155339   2.020   5.454  10.407 -0.9886 -0.6227 -0.7719
11308TIP3    H255340   2.110   5.426  10.525 -1.3008  1.8849  0.0961
11309TIP3   OH255341   6.228   0.752  11.333 -0.3215  0.1150 -0.0804
11309TIP3    H155342   6.275   0.758  11.250  0.4898  1.3690  0.4608
11309TIP3    H255343   6.292   0.716  11.394  0.4509  3.1691  1.0068
11310TIP3   OH255344   4.726   2.326   0.284 -0.2742 -0.3354 -0.1290
11310TIP3    H155345   4.723   2.334   0.379 -3.0113  3.3953 -0.4225
11310TIP3    H255346   4.693   2.238   0.266 -0.3986 -0.8084  2.3233
11311TIP3   OH255347   3.272   0.556  13.860 -0.3845  0.3383  0.3031
11311TIP3    H155348   3.289   0.461  13.860  0.8770  0.5534  1.4846
11311TIP3    H255349   3.260   0.577  13.767  0.4509 -0.7975 -0.0874
11312TIP3   OH255350   0.871   3.451  15.984 -0.2960  1.1382 -0.0188
11312TIP3    H155351   0.965   3.445  15.971 -0.4620  0.9792 -1.1615
11312TIP3    H255352   0.842   3.518  15.922 -1.2271 -0.3203 -1.2015
11313TIP3   OH255353   5.669   1.999  12.529  0.4667  0.8927  0.0519
11313TIP3    H155354   5.574   1.989  12.528  0.7415 -2.7205  1.9121
11313TIP3    H255355   5.693   1.994  12.621  2.5183  1.2425 -0.4405
11314TIP3   OH255356   1.246   5.704  15.851  0.1435  0.1096  0.2556
11314TIP3    H155357   1.169   5.757  15.873  0.0265  0.7620 -1.6135
11314TIP3    H255358   1.296   5.699  15.932 -1.4138  0.4639  1.2453
11315TIP3   OH255359   5.648   6.298   0.977  0.4701  0.1264 -0.6853
11315TIP3    H155360   5.595   6.234   0.929 -0.7134 -0.3011  1.1155
11315TIP3    H255361   5.738   6.282   0.948  0.1104 -1.9356 -0.7372
11316TIP3   OH255362   2.080   1.067  16.386 -0.6454  0.0877  0.2490
11316TIP3    H155363   2.151   1.112  16.431  0.2771  0.6389 -1.7022
11316TIP3    H255364   2.122   0.992  16.343 -1.2586  0.2713 -0.6951
11317TIP3   OH255365   2.655   3.371  15.088  0.0121 -0.0859  0.2355
11317TIP3    H155366   2.735   3.423  15.085 -1.5514  2.4029 -0.6234
11317TIP3    H255367   2.668   3.302  15.023  2.4260 -1.2530  1.9186
11318TIP3   OH255368   2.751   3.702   0.687 -0.2643  0.2840  0.0526
11318TIP3    H155369   2.813   3.633   0.710 -0.9174 -0.3213  0.0245
11318TIP3    H255370   2.799   3.758   0.626  0.7491  0.6726  1.1973
11319TIP3   OH255371   1.573   3.799  15.343 -0.1918 -0.0633  0.3506
11319TIP3    H155372   1.499   3.738  15.349  0.8451 -1.4034 -0.2169
11319TIP3    H255373   1.548   3.859  15.272 -0.3843 -1.0096 -0.3949
11320TIP3   OH255374   0.376   4.449   5.081 -0.6455  0.0702  0.0545
11320TIP3    H155375   0.287   4.467   5.110 -0.5229 -0.1125  0.5569
11320TIP3    H255376   0.367   4.380   5.015 -0.9802  0.8921 -0.7687
11321TIP3   OH255377   4.480   0.562  14.277 -0.3192 -0.2893  0.0927
11321TIP3    H155378   4.494   0.489  14.337 -1.1456 -0.1409  0.4801
11321TIP3    H255379   4.533   0.633  14.312  0.4392 -0.6824 -0.2509
11322TIP3   OH255380   3.352   5.134  11.416 -0.0037  0.0684  0.0827
11322TIP3    H155381   3.320   5.219  11.388 -1.8437 -0.8415 -0.6719
11322TIP3    H255382   3.419   5.154  11.482  0.2617  2.0914 -0.7649
11323TIP3   OH255383   4.531   5.702   3.288  0.0395 -0.1926  0.0727
11323TIP3    H155384   4.528   5.654   3.371 -0.6914 -2.3038 -1.1331
11323TIP3    H255385   4.442   5.696   3.253 -0.0478  1.9867 -0.1711
11324TIP3   OH255386   1.001   6.769  11.448  0.4811  0.2878 -0.6798
11324TIP3    H155387   0.957   6.749  11.531  0.1790 -0.8706 -1.1138
11324TIP3    H255388   0.929   6.788  11.387  0.7012  1.0961 -0.7013
11325TIP3   OH255389   1.640   1.955  12.611 -0.1789 -0.4505 -0.0003
11325TIP3    H155390   1.641   2.032  12.554 -2.1317 -0.8787 -0.6363
11325TIP3    H255391   1.682   1.887  12.559  2.6910  0.4273  1.0182
11326TIP3   OH255392   0.163   2.569   4.474 -0.2546  0.2372  0.2836
11326TIP3    H155393   0.077   2.611   4.484 -0.3587 -0.2490  1.5814
11326TIP3    H255394   0.226   2.640   4.484 -0.5293  0.7655 -1.7062
11327TIP3   OH255395   6.656   3.566  12.031 -0.7279 -0.6850  0.4887
11327TIP3    H155396   6.583   3.574  12.093 -1.7792 -0.0799 -0.8185
11327TIP3    H255397   6.697   3.652  12.031  0.1459 -1.0900  1.3984
11328TIP3   OH255398   1.937   2.706   0.796  0.1534  0.0065 -0.1995
11328TIP3    H155399   1.853   2.749   0.814  1.5067  2.0501  1.5357
11328TIP3    H255400   1.939   2.697   0.701 -1.2587  1.6226 -0.4178
11329TIP3   OH255401   4.234   2.626  13.808 -0.2027  0.4206 -0.2528
11329TIP3    H155402   4.227   2.532  13.792 -1.2036  0.4988 -0.2986
11329TIP3    H255403   4.279   2.660  13.730 -1.0041  0.1586 -0.8356
11330TIP3   OH255404   4.311   5.499   2.407 -0.2104  0.1831  0.2614
11330TIP3    H155405   4.388   5.471   2.456 -0.1836  1.5601  1.0071
11330TIP3    H255406   4.246   5.430   2.424  0.5203 -0.4822  0.4130
11331TIP3   OH255407   1.339   2.581   0.885  0.1276 -0.0456 -0.0718
11331TIP3    H155408   1.403   2.585   0.814  0.1573 -1.5219 -0.1420
11331TIP3    H255409   1.300   2.669   0.887  1.5771  0.6288 -0.5522
11332TIP3   OH255410   3.328   5.470   4.404 -0.2145 -0.5369 -0.2515
11332TIP3    H155411   3.312   5.383   4.440 -1.4998 -0.5774 -0.8786
11332TIP3    H255412   3.260   5.481   4.337  1.2238  0.1223 -1.6165
11333TIP3   OH255413   0.336   2.751   2.933 -0.4819 -0.6037  0.4742
11333TIP3    H155414   0.409   2.709   2.979  0.1378  0.3530  0.3622
11333TIP3    H255415   0.317   2.693   2.860 -1.2815 -2.0004  1.7545
11334TIP3   OH255416   4.211   5.877  13.988  0.5023  0.3246 -0.1888
11334TIP3    H155417   4.254   5.920  14.062 -1.0992  1.9163 -0.1289
11334TIP3    H255418   4.141   5.825  14.028  0.2548  0.4019 -0.5200
11335TIP3   OH255419   5.862   4.692  16.176  0.0683 -0.4839  0.3110
11335TIP3    H155420   5.796   4.648  16.229  0.6754  0.2046  1.6750
11335TIP3    H255421   5.888   4.768  16.229  0.5961  0.2837 -1.0351
11336TIP3   OH255422   3.357   3.493  14.697 -0.0116  0.4358 -0.6679
11336TIP3    H155423   3.282   3.493  14.639 -0.3862 -0.6219 -0.1969
11336TIP3    H255424   3.327   3.446  14.775  0.4098  1.9851  0.4681
11337TIP3   OH255425   1.491   3.290   2.976  0.1027 -0.5078 -0.1551
11337TIP3    H155426   1.446   3.247   2.903 -0.8817  0.5459 -0.1881
11337TIP3    H255427   1.439   3.369   2.993  0.8082 -0.3016  1.1276
11338TIP3   OH255428   0.098   5.482   3.896 -0.1907 -0.5218 -0.2090
11338TIP3    H155429   0.011   5.470   3.933 -0.2650 -1.7610 -0.7617
11338TIP3    H255430   0.153   5.420   3.945  0.1903 -0.3993 -0.4834
11339TIP3   OH255431   3.471   0.299   1.555 -0.2106  0.1538 -0.1717
11339TIP3    H155432   3.544   0.280   1.496  1.4341 -0.0448  1.8586
11339TIP3    H255433   3.484   0.391   1.579  0.6151 -0.4434  1.8041
11340TIP3   OH255434   6.328   3.609   2.284 -0.0312  0.0981  0.4418
11340TIP3    H155435   6.332   3.643   2.373  1.6686  0.2392  0.3152
11340TIP3    H255436   6.281   3.676   2.234  0.6252  0.8535  0.8375
11341TIP3   OH255437   2.736   0.784  11.559 -0.6570  0.0465  0.1507
11341TIP3    H155438   2.678   0.710  11.541 -1.4105  0.7263 -0.2266
11341TIP3    H255439   2.797   0.751  11.625  0.4798 -1.6618 -1.6777
11342TIP3   OH255440   4.100   1.507  11.115  0.4523  0.1002  0.5328
11342TIP3    H155441   4.149   1.511  11.033  1.0579 -0.6584  0.8567
11342TIP3    H255442   4.042   1.431  11.106  1.3614 -0.6908  1.2677
11343TIP3   OH255443   4.193   1.256  17.183  0.6921 -0.2972  0.1803
11343TIP3    H155444   4.186   1.346  17.214  2.4233 -0.1796  0.2725
11343TIP3    H255445   4.273   1.254  17.132 -1.0920 -0.9772 -2.7171
11344TIP3   OH255446   1.375   6.120  10.221  0.0374  0.0444  0.3355
11344TIP3    H155447   1.397   6.075  10.139 -0.4378 -0.8932  0.7168
11344TIP3    H255448   1.455   6.116  10.273  0.7586  1.8116 -0.5927
11345TIP3   OH255449   1.003   5.626  12.477  0.2605 -0.3029 -0.0571
11345TIP3    H155450   0.985   5.567  12.550 -0.1965  0.7526  0.6881
11345TIP3    H255451   1.099   5.632  12.474  0.2744 -0.1152  0.6463
11346TIP3   OH255452   2.522   4.965   1.088 -0.6377  0.2990  0.2133
11346TIP3    H155453   2.577   4.895   1.054 -0.3285  0.5376  0.2202
11346TIP3    H255454   2.440   4.922   1.114 -0.1496 -0.1836  0.9626
11347TIP3   OH255455   3.241   0.060  14.150 -0.1340  0.4397 -0.4663
11347TIP3    H155456   3.147   0.068  14.165 -0.1628  1.0888 -0.9449
11347TIP3    H255457   3.282   0.095  14.229 -0.2908  1.7425 -0.9491
11348TIP3   OH255458   3.903   4.275   2.228 -0.3245  0.0344 -0.3404
11348TIP3    H155459   3.839   4.308   2.292 -1.6377 -0.2492 -1.4743
11348TIP3    H255460   3.862   4.196   2.193  0.9188 -0.4606 -0.6783
11349TIP3   OH255461   3.779   6.676  14.631 -0.5497 -0.1366 -0.1992
11349TIP3    H155462   3.872   6.656  14.620 -0.5271 -0.6455  0.8991
11349TIP3    H255463   3.767   6.758  14.583  0.5677  0.1914  0.0679
11350TIP3   OH255464   1.799   1.265   4.348  0.0435  0.1885 -0.1997
11350TIP3    H155465   1.719   1.317   4.342  1.0167  1.7074 -0.1935
11350TIP3    H255466   1.801   1.214   4.267  0.0315  1.5373 -1.0580
11351TIP3   OH255467   3.321   6.212   3.589 -0.4316  0.0307 -0.3833
11351TIP3    H155468   3.382   6.286   3.584 -1.3831  0.7994 -0.6573
11351TIP3    H255469   3.272   6.215   3.508 -1.0312 -0.4347 -0.0461
11352TIP3   OH255470   5.773   5.268   1.839  0.7676 -0.1191  0.0032
11352TIP3    H155471   5.834   5.243   1.909 -0.0571  0.1312  0.8144
11352TIP3    H255472   5.746   5.357   1.863  0.1172 -0.2164 -0.3772
11353TIP3   OH255473   5.985   2.104  14.794 -0.0874 -0.1907 -0.0001
11353TIP3    H155474   6.023   2.162  14.860 -0.5691  0.1065  0.0142
11353TIP3    H255475   6.007   2.016  14.825  0.3344 -0.0258  0.1646
11354TIP3   OH255476   2.678   3.016   2.976 -0.0187  0.2436 -0.6573
11354TIP3    H155477   2.731   3.096   2.979 -0.4826  0.5049  0.6019
11354TIP3    H255478   2.602   3.040   2.922 -0.6201  0.9433  0.4816
11355TIP3   OH255479   5.859   2.900  13.025 -0.0973  0.3930  0.5596
11355TIP3    H155480   5.933   2.841  13.038  0.1857  0.5588 -0.2744
11355TIP3    H255481   5.898   2.988  13.022 -0.4851  0.6003  1.5102
11356TIP3   OH255482   5.369   1.533   1.878 -0.1789 -0.0223 -0.1415
11356TIP3    H155483   5.313   1.536   1.800 -0.8149 -1.4767  0.2417
11356TIP3    H255484   5.318   1.485   1.943  1.0160 -0.2821  0.6247
11357TIP3   OH255485   3.536   0.177  12.931  0.5588 -0.3679  0.2260
11357TIP3    H155486   3.590   0.241  12.979 -0.0191  0.8946 -0.7765
11357TIP3    H255487   3.600   0.121  12.887  1.0734 -0.2668  0.8306
11358TIP3   OH255488   1.959   5.673  14.492  0.2350 -0.4837 -0.3203
11358TIP3    H155489   1.962   5.712  14.405 -0.2230 -0.9206 -0.5404
11358TIP3    H255490   1.903   5.732  14.542  0.0819 -0.5026 -0.4665
11359TIP3   OH255491   6.748   0.516   4.174 -0.4324  0.0661  0.2755
11359TIP3    H155492   6.703   0.461   4.109 -1.2663  2.8699 -1.6046
11359TIP3    H255493   6.718   0.605   4.156  1.7861  1.3462  2.4858
11360TIP3   OH255494   1.770   1.493   5.525 -0.2952  0.0684 -0.6242
11360TIP3    H155495   1.785   1.466   5.616 -0.0682 -1.0980 -0.9936
11360TIP3    H255496   1.858   1.499   5.488 -0.4515 -0.9120 -1.1655
11361TIP3   OH255497   2.307   4.631  11.299  0.3303 -0.1454 -0.0176
11361TIP3    H155498   2.228   4.640  11.245 -0.8683 -0.3280  1.6642
11361TIP3    H255499   2.379   4.638  11.237 -0.9599  1.7292 -1.3777
11362TIP3   OH255500   6.194   2.151   5.346 -0.0466  0.4741 -0.0316
11362TIP3    H155501   6.163   2.118   5.430 -1.9585 -1.5060 -1.4760
11362TIP3    H255502   6.286   2.123   5.343  0.1411  0.8466  1.5121
11363TIP3   OH255503   1.886   3.492  13.664 -0.6918  0.1620 -0.0012
11363TIP3    H155504   1.939   3.557  13.711 -1.0070  0.2789  0.1882
11363TIP3    H255505   1.879   3.418  13.724  0.3605 -0.3866 -0.5305
11364TIP3   OH255506   1.761   6.199   4.566  0.6058 -0.0248 -0.0186
11364TIP3    H155507   1.776   6.108   4.541  0.4577 -0.2420  0.6599
11364TIP3    H255508   1.761   6.247   4.483 -0.2222 -0.7682 -0.4669
11365TIP3   OH255509   3.631   6.600  11.438  0.1761 -0.5310 -0.0350
11365TIP3    H155510   3.702   6.647  11.394 -0.4337 -1.0896 -1.6850
11365TIP3    H255511   3.635   6.512  11.401 -0.3489 -1.0360  1.0811
11366TIP3   OH255512   1.479   3.812   3.730 -0.2949  0.1641  0.1748
11366TIP3    H155513   1.437   3.819   3.816 -1.6170 -0.1568 -0.4352
11366TIP3    H255514   1.410   3.782   3.672  0.9751 -1.1347 -0.7009
11367TIP3   OH255515   1.685   2.993   0.373 -0.0143  0.5850  0.4284
11367TIP3    H155516   1.684   3.078   0.330 -0.4502 -0.3106 -1.4027
11367TIP3    H255517   1.714   2.932   0.305 -0.8339 -0.8860  1.3699
11368TIP3   OH255518   5.486   2.932  12.402 -0.1468  0.4693  0.2251
11368TIP3    H155519   5.406   2.984  12.400  0.0963  0.9485  2.0446
11368TIP3    H255520   5.464   2.852  12.353 -0.8673  1.7566 -1.6151
11369TIP3   OH255521   5.907   1.155   0.906 -0.2027  0.1302  0.1296
11369TIP3    H155522   5.857   1.117   0.978 -1.3212  0.1346 -0.6384
11369TIP3    H255523   5.960   1.083   0.872  0.1112  0.0577  0.7614
11370TIP3   OH255524   1.985   1.443   1.675  0.2577 -0.5827 -0.4190
11370TIP3    H155525   2.033   1.525   1.660 -1.5566  0.3236 -1.3090
11370TIP3    H255526   2.043   1.375   1.640  0.7558  0.5294 -1.8056
11371TIP3   OH255527   4.983   0.163  13.573  0.1098  0.5217  0.3076
11371TIP3    H155528   5.037   0.232  13.611 -0.1264 -0.3477  2.2892
11371TIP3    H255529   5.026   0.082  13.600 -2.4384 -0.1946  2.3552
11372TIP3   OH255530   5.819   6.567   4.115  0.2511  0.0763 -0.1822
11372TIP3    H155531   5.854   6.481   4.139 -0.2737 -0.0721  0.0593
11372TIP3    H255532   5.851   6.582   4.026 -1.6680 -1.4824 -1.1888
11373TIP3   OH255533   2.796   3.278  11.710 -0.2454 -0.0806  0.4373
11373TIP3    H155534   2.878   3.327  11.724 -0.3511 -0.0503  0.9827
11373TIP3    H255535   2.728   3.337  11.741 -0.5411  0.1682 -0.6660
11374TIP3   OH255536   5.341   4.299   5.536  0.4116 -0.1058 -0.3186
11374TIP3    H155537   5.333   4.340   5.450  0.7628  2.7713  0.9782
11374TIP3    H255538   5.432   4.272   5.542  0.2829 -0.7278 -0.9940
11375TIP3   OH255539   3.561   0.288   4.868  0.0910  0.4125  0.2508
11375TIP3    H155540   3.618   0.225   4.824  0.6212  2.7449 -2.5471
11375TIP3    H255541   3.472   0.254   4.853  0.3905  0.1237 -0.9808
11376TIP3   OH255542   5.411   4.831  13.489  0.0945 -0.0094 -0.3634
11376TIP3    H155543   5.497   4.812  13.528 -0.5767 -1.2337  0.5187
11376TIP3    H255544   5.372   4.746  13.472 -1.2582  0.5430 -0.0945
11377TIP3   OH255545   3.294   3.824   1.471 -0.0914  0.6781 -0.5921
11377TIP3    H155546   3.313   3.852   1.382 -1.0871  0.1416 -0.9838
11377TIP3    H255547   3.217   3.768   1.462  0.1064  0.2169  0.5409
11378TIP3   OH255548   1.992   4.616   4.572  0.0413  0.3690 -0.0712
11378TIP3    H155549   2.044   4.643   4.496  1.1745  0.1387  0.6105
11378TIP3    H255550   2.049   4.557   4.621 -1.5071 -1.2958 -0.2229
11379TIP3   OH255551   3.615   0.757  14.392  0.1022  0.0338 -0.5542
11379TIP3    H155552   3.654   0.839  14.423  0.6027  0.2580 -1.7296
11379TIP3    H255553   3.689   0.703  14.367 -0.2762 -0.2905 -0.9823
11380TIP3   OH255554   0.600   1.781   2.743  0.0733  0.1063 -0.1366
11380TIP3    H155555   0.631   1.747   2.827 -0.3009 -0.2707 -0.1466
11380TIP3    H255556   0.624   1.873   2.744  1.8503 -0.3249 -0.4436
11381TIP3   OH255557   4.408   3.597  12.459  0.1311  0.4144  0.2333
11381TIP3    H155558   4.349   3.564  12.391  0.6590  0.6281 -0.3266
11381TIP3    H255559   4.358   3.586  12.540 -0.8868  1.0517 -0.2938
11382TIP3   OH255560   0.712   5.240  16.971  0.4633 -0.3078 -0.3148
11382TIP3    H155561   0.776   5.310  16.982  1.5412 -1.1936 -0.8155
11382TIP3    H255562   0.749   5.186  16.901  0.7098 -2.5819  1.5465
11383TIP3   OH255563   2.231   2.623  16.522 -0.3816  0.0566 -0.0791
11383TIP3    H155564   2.199   2.697  16.573  0.2735  0.1086  0.2624
11383TIP3    H255565   2.303   2.659  16.471  1.7054 -0.9260  2.0721
11384TIP3   OH255566   3.002   2.434   3.260  0.0132 -0.3494 -0.3649
11384TIP3    H155567   3.034   2.399   3.177 -0.0531 -0.2057 -0.4503
11384TIP3    H255568   2.988   2.527   3.243  0.5755 -0.1983 -0.0247
11385TIP3   OH255569   4.606   5.932   4.222  0.0294  0.0850  0.2415
11385TIP3    H155570   4.603   5.953   4.315 -0.7190 -2.3010  0.8029
11385TIP3    H255571   4.696   5.903   4.207 -0.4042 -1.5455  0.7152
11386TIP3   OH255572   5.327   0.187  11.568  0.1251  0.2389 -0.0479
11386TIP3    H155573   5.345   0.200  11.474 -1.4336 -0.9544 -0.5326
11386TIP3    H255574   5.381   0.253  11.612  0.1742  1.4422 -1.8420
11387TIP3   OH255575   3.388   5.809  13.803 -0.1424 -0.0437 -0.1532
11387TIP3    H155576   3.385   5.714  13.790  2.2646 -0.0943 -0.6145
11387TIP3    H255577   3.377   5.845  13.715  0.8161  0.0264 -0.2567
11388TIP3   OH255578   3.241   4.332   1.207 -0.1740 -0.0843  0.6331
11388TIP3    H155579   3.309   4.346   1.273  0.9071 -0.8137 -0.3078
11388TIP3    H255580   3.288   4.335   1.124 -1.1709 -1.3451  0.0094
11389TIP3   OH255581   1.527   6.714   1.358 -0.1267  0.8223 -0.1073
11389TIP3    H155582   1.560   6.776   1.293  0.0489  2.5144  1.5546
11389TIP3    H255583   1.458   6.762   1.404  0.3697 -0.0146  1.5431
11390TIP3   OH255584   5.500   5.598  16.348 -0.0108  0.5039 -0.0669
11390TIP3    H155585   5.579   5.556  16.313 -0.6810 -0.5054 -0.3559
11390TIP3    H255586   5.465   5.648  16.274  0.5133  1.1910  0.1414
11391TIP3   OH255587   4.743   1.126   0.480  0.0081  0.2453 -0.5344
11391TIP3    H155588   4.663   1.141   0.429 -2.2953 -2.6525  1.9534
11391TIP3    H255589   4.796   1.068   0.426 -2.2415 -2.4970  0.0702
11392TIP3   OH255590   2.293   3.646  12.060  0.2835  0.3254  0.2473
11392TIP3    H155591   2.338   3.660  12.144  3.1483 -0.5068 -1.0820
11392TIP3    H255592   2.258   3.558  12.066  1.4318 -0.1454  0.1720
11393TIP3   OH255593   1.093   4.756   0.091  0.8174  0.3088  0.1781
11393TIP3    H155594   1.101   4.678   0.145 -0.0543  0.6236  0.7836
11393TIP3    H255595   1.118   4.728   0.003  0.6183 -0.6239  0.4173
11394TIP3   OH255596   5.633   6.701  14.211  0.0036  0.3668 -0.0100
11394TIP3    H155597   5.665   6.791  14.207  1.5088 -0.1410  0.3641
11394TIP3    H255598   5.703   6.653  14.255 -1.7041 -0.5838  1.7305
11395TIP3   OH255599   0.539   6.218   2.095  0.6424 -0.0347 -0.4735
11395TIP3    H155600   0.444   6.216   2.084  0.7052  0.0201 -1.0565
11395TIP3    H255601   0.553   6.208   2.189  0.0270  0.6936 -0.2980
11396TIP3   OH255602   0.120   0.710  15.895  0.2743  0.2466  0.0870
11396TIP3    H155603   0.076   0.633  15.931  0.9491  1.0221  2.6736
11396TIP3    H255604   0.210   0.681  15.880  0.5384  0.5291  1.0985
11397TIP3   OH255605   2.770   5.597   3.376 -0.4912  0.0311 -0.3822
11397TIP3    H155606   2.798   5.511   3.347 -1.1633  0.2534 -1.7261
11397TIP3    H255607   2.760   5.588   3.471 -0.5041 -1.3496 -0.5067
11398TIP3   OH255608   1.323   1.994  10.631 -0.3027  0.1848 -0.6361
11398TIP3    H155609   1.338   2.017  10.539 -0.5659 -0.6161 -0.8850
11398TIP3    H255610   1.228   2.000  10.642 -0.2585  0.4390 -0.3676
11399TIP3   OH255611   5.437   2.689   2.663 -0.1723 -0.9633  0.0373
11399TIP3    H155612   5.382   2.697   2.741  0.2760  1.0589  0.1888
11399TIP3    H255613   5.522   2.659   2.696 -0.2636 -1.0475  0.1988
11400TIP3   OH255614   6.625   1.481   4.087 -0.7899  0.6543 -0.4494
11400TIP3    H155615   6.653   1.457   4.175  0.0053  1.3643 -0.5114
11400TIP3    H255616   6.645   1.403   4.034 -0.2753  0.6303 -0.2174
11401TIP3   OH255617   2.561   3.654  10.254  0.7570 -0.4898 -0.3046
11401TIP3    H155618   2.623   3.634  10.184  2.0943  0.0035  0.7325
11401TIP3    H255619   2.597   3.731  10.297  0.2004 -1.0854  1.2494
11402TIP3   OH255620   2.559   1.624  14.748 -0.1898 -0.1435 -0.1196
11402TIP3    H155621   2.567   1.531  14.771  0.0261 -0.2399 -0.5723
11402TIP3    H255622   2.552   1.669  14.832  1.0896 -0.4347  0.1486
11403TIP3   OH255623   6.250   4.168   5.169  0.0196 -0.2459  0.0140
11403TIP3    H155624   6.176   4.181   5.110  1.7994  2.3868 -1.7751
11403TIP3    H255625   6.321   4.137   5.112  0.7233 -1.4145  1.4642
11404TIP3   OH255626   3.200   4.504  13.792  0.2429 -0.4877  0.2498
11404TIP3    H155627   3.273   4.562  13.773  0.7607 -1.4673 -0.8233
11404TIP3    H255628   3.216   4.473  13.881  2.5999 -2.7621 -0.8935
11405TIP3   OH255629   0.042   4.406   0.979  0.2288  0.0263 -0.1260
11405TIP3    H155630   0.051   4.428   1.072 -0.8590  2.8780 -0.6404
11405TIP3    H255631  -0.045   4.438   0.955  0.4794 -0.7230 -2.1136
11406TIP3   OH255632   3.831   0.034   0.393 -0.1781 -0.9767 -0.2377
11406TIP3    H155633   3.926   0.029   0.406 -0.4998 -0.8585  2.5881
11406TIP3    H255634   3.795   0.019   0.480 -2.6806  1.2007 -0.8366
11407TIP3   OH255635   1.232   3.400   4.422 -0.5768 -0.0663  0.3338
11407TIP3    H155636   1.238   3.376   4.329  0.4621 -1.2977  0.7119
11407TIP3    H255637   1.302   3.463   4.434 -1.5768  1.1308 -0.0237
11408TIP3   OH255638   2.140   2.533  15.423 -0.0732 -0.2796  0.2706
11408TIP3    H155639   2.228   2.503  15.445  0.0838 -0.0094  0.0251
11408TIP3    H255640   2.153   2.592  15.349 -0.4708 -0.2983  0.1830
11409TIP3   OH255641   1.197   0.203  13.568  0.3471  0.0375  0.4611
11409TIP3    H155642   1.140   0.176  13.640  1.1084 -0.5412  0.8576
11409TIP3    H255643   1.213   0.296  13.583  1.5968 -0.3850  1.8163
11410TIP3   OH255644   4.533   1.904   4.585 -0.1612 -0.0879 -0.1683
11410TIP3    H155645   4.479   1.830   4.558 -0.4578 -0.3959  1.2546
11410TIP3    H255646   4.622   1.868   4.591 -0.3734 -0.4485  0.9465
11411TIP3   OH255647   5.639   0.434  16.232  0.5944  0.6140 -0.2171
11411TIP3    H155648   5.631   0.458  16.325 -0.2637  0.8951 -0.3595
11411TIP3    H255649   5.728   0.459  16.209  0.5820  1.2023  0.3496
11412TIP3   OH255650   1.180   3.405  15.417 -0.0744  0.0106 -0.0044
11412TIP3    H155651   1.196   3.335  15.353  1.2996  0.4160 -0.1113
11412TIP3    H255652   1.160   3.358  15.499  1.8147 -0.5313  0.1728
11413TIP3   OH255653   4.837   1.005   1.220  0.1673 -0.6005  0.1681
11413TIP3    H155654   4.872   1.015   1.308 -0.2546  1.0274  0.1623
11413TIP3    H255655   4.748   1.040   1.226 -0.1376 -1.1928 -0.7300
11414TIP3   OH255656   5.346   3.779  12.972  0.0922  0.7973 -0.1580
11414TIP3    H155657   5.320   3.709  12.912  0.8397  0.6257 -0.2804
11414TIP3    H255658   5.410   3.739  13.031 -0.4696  1.0276  0.6121
11415TIP3   OH255659   1.460   6.763   5.485 -0.6829 -0.5692 -0.0387
11415TIP3    H155660   1.535   6.710   5.455  0.5225 -0.1907  2.2033
11415TIP3    H255661   1.421   6.797   5.405  1.8898 -0.3296 -1.2268
11416TIP3   OH255662   3.019   2.725   1.237  0.3562 -0.5181 -0.0568
11416TIP3    H155663   3.054   2.796   1.183  1.7604 -0.2043  1.2473
11416TIP3    H255664   3.093   2.666   1.249 -1.3396 -3.3515 -2.9106
11417TIP3   OH255665   4.607   1.885  11.503 -0.1982 -0.5787  0.4991
11417TIP3    H155666   4.514   1.865  11.492 -0.1799 -2.2455  2.9184
11417TIP3    H255667   4.652   1.802  11.488  0.8972  0.1712 -0.4764
11418TIP3   OH255668   6.530   3.609  17.109  0.5576 -0.2726 -0.4685
11418TIP3    H155669   6.478   3.677  17.152 -0.4910 -1.4233  0.1108
11418TIP3    H255670   6.555   3.549  17.180  0.5152 -1.0963 -1.1399
11419TIP3   OH255671   4.953   3.128  12.515 -0.2653 -0.4548 -0.0271
11419TIP3    H155672   5.003   3.194  12.563 -0.1807  0.4183 -1.2902
11419TIP3    H255673   4.960   3.049  12.569 -1.2231  0.8191  2.0171
11420TIP3   OH255674   3.348   2.226   2.933 -0.3257  0.2573  0.1482
11420TIP3    H155675   3.416   2.162   2.910 -0.7293  0.3362 -1.3545
11420TIP3    H255676   3.276   2.206   2.873 -0.0453  2.8368 -1.0944
11421TIP3   OH255677   4.601   5.789   2.983  0.7007 -0.2328  0.0274
11421TIP3    H155678   4.663   5.752   3.046 -0.9560 -1.2497  1.1099
11421TIP3    H255679   4.599   5.883   3.003  1.8270 -0.2078  0.0306
11422TIP3   OH255680   2.447   5.034  12.165  0.2077  0.8763  0.3845
11422TIP3    H155681   2.438   5.129  12.176 -1.1898  0.6328  1.3482
11422TIP3    H255682   2.416   4.997  12.247 -2.4944 -0.5804 -1.2381
11423TIP3   OH255683   2.790   3.871  16.734 -0.5215  0.1288 -0.0812
11423TIP3    H155684   2.821   3.815  16.663  2.0927 -2.1700  2.7547
11423TIP3    H255685   2.695   3.863  16.731 -0.3830 -0.9982 -2.4377
11424TIP3   OH255686   6.140   0.173   5.711  0.9267 -0.3501  0.3496
11424TIP3    H155687   6.157   0.089   5.754  2.1714  0.4303  1.4189
11424TIP3    H255688   6.108   0.230   5.781  0.5864  0.2268 -0.2667
11425TIP3   OH255689   6.159   6.279   2.029 -0.0404  0.1071 -0.2677
11425TIP3    H155690   6.099   6.208   2.052 -0.5269 -0.0101 -1.9064
11425TIP3    H255691   6.125   6.355   2.077 -0.3634 -0.4093  0.3319
11426TIP3   OH255692   6.538   4.331   0.262  0.2256 -0.7483  0.0023
11426TIP3    H155693   6.495   4.254   0.299  2.0630 -2.0822 -0.6157
11426TIP3    H255694   6.495   4.343   0.177  2.1166 -3.0424 -1.3218
11427TIP3   OH255695   2.480   2.118  11.055  0.1593 -0.4788  0.3383
11427TIP3    H155696   2.565   2.163  11.052 -0.8173  1.3317 -1.4579
11427TIP3    H255697   2.501   2.029  11.083  2.3528  0.5991  2.3294
11428TIP3   OH255698   0.733   4.631   0.085 -0.3634  0.3650 -0.0811
11428TIP3    H155699   0.680   4.679   0.021  0.0472  0.0984 -0.6286
11428TIP3    H255700   0.803   4.692   0.109 -1.0056  0.7729  0.7600
11429TIP3   OH255701   4.151   3.351  14.376 -0.2564 -0.7346 -0.3581
11429TIP3    H155702   4.159   3.438  14.415  0.8751 -0.9020 -0.2111
11429TIP3    H255703   4.065   3.352  14.333 -0.7810  0.0227  0.6934
11430TIP3   OH255704   0.473   1.057  10.964  0.1280 -0.4607  0.2973
11430TIP3    H155705   0.464   1.152  10.956  0.5381 -0.4176  0.3314
11430TIP3    H255706   0.386   1.023  10.944 -0.3266 -0.0074  1.4498
11431TIP3   OH255707   2.566   4.322  14.503  0.2769 -0.0436  0.0546
11431TIP3    H155708   2.478   4.290  14.482  1.1942 -2.4261 -0.2457
11431TIP3    H255709   2.601   4.354  14.420 -0.2520  0.8602  0.1646
11432TIP3   OH255710   1.779   6.182  12.063  0.0792  0.2989  0.1236
11432TIP3    H155711   1.730   6.100  12.068  0.8760 -0.3720 -2.3383
11432TIP3    H255712   1.713   6.249  12.046 -0.3317 -0.1469 -0.0469
11433TIP3   OH255713   5.439   1.615   3.918  0.2745  0.4646 -0.2431
11433TIP3    H155714   5.344   1.600   3.916  0.3726 -0.1003 -1.2543
11433TIP3    H255715   5.467   1.596   3.828  1.1931  1.6377 -0.2132
11434TIP3   OH255716   1.200   6.534   4.505 -0.6787  0.0590  0.2801
11434TIP3    H155717   1.130   6.500   4.450  0.0411 -0.3811 -0.3775
11434TIP3    H255718   1.160   6.607   4.553 -1.3394  0.4056 -0.7776
11435TIP3   OH255719   2.259   2.282  11.628 -0.0083  0.3806  0.2079
11435TIP3    H155720   2.340   2.230  11.634 -0.2198 -0.0601 -0.7027
11435TIP3    H255721   2.189   2.219  11.648 -0.0741  0.9786  1.9470
11436TIP3   OH255722   0.987   1.750  16.682  0.4861 -0.1475  0.4192
11436TIP3    H155723   1.070   1.797  16.682 -0.0919  0.9280  1.7134
11436TIP3    H255724   0.938   1.785  16.608  0.1397  1.1886  1.2581
11437TIP3   OH255725   3.954   2.939  12.192  0.1126  0.1627  0.1167
11437TIP3    H155726   3.884   2.947  12.128 -1.0116 -2.0323  1.0442
11437TIP3    H255727   3.918   2.885  12.262  3.0361 -1.9432  0.1153
11438TIP3   OH255728   2.291   5.847  12.589  0.2603  0.0652 -0.1662
11438TIP3    H155729   2.362   5.843  12.525 -0.5584 -0.7273 -1.0364
11438TIP3    H255730   2.221   5.894  12.545 -0.1352 -0.0573  0.3217
11439TIP3   OH255731   0.291   3.929  11.057 -0.1445  0.3597  0.2256
11439TIP3    H155732   0.347   3.918  11.133  2.0719 -0.2851 -1.4580
11439TIP3    H255733   0.308   4.018  11.027 -0.5403  0.3988  0.1141
11440TIP3   OH255734   3.492   5.243  13.166 -0.3802 -0.3455 -0.5394
11440TIP3    H155735   3.587   5.230  13.171 -0.1997  0.8056 -0.6900
11440TIP3    H255736   3.478   5.279  13.078 -0.9626 -0.6155 -0.5535
11441TIP3   OH255737   5.379   6.761   1.443  0.5523  0.6101  0.2487
11441TIP3    H155738   5.289   6.734   1.462  1.4712 -1.0592  2.5862
11441TIP3    H255739   5.416   6.687   1.395  1.2755  0.3627  1.1771
11442TIP3   OH255740   3.152   6.125  15.408 -0.5071 -0.2086 -0.0639
11442TIP3    H155741   3.156   6.163  15.320  1.6451 -0.7545 -0.2299
11442TIP3    H255742   3.105   6.043  15.396 -0.3505 -0.2125 -0.6784
11443TIP3   OH255743   3.960   3.670  14.495 -0.8027 -0.0381 -0.1758
11443TIP3    H155744   3.964   3.764  14.511 -0.5307 -0.1185  0.2140
11443TIP3    H255745   4.050   3.639  14.502 -0.8701 -0.3075 -0.4418
11444TIP3   OH255746   3.261   2.985   4.229  0.2314 -0.0759  0.2466
11444TIP3    H155747   3.186   2.971   4.171  0.9447 -0.2901 -0.6434
11444TIP3    H255748   3.246   3.072   4.267 -0.0744  0.2295 -0.5480
11445TIP3   OH255749   0.064   5.685   1.263 -0.0229  0.4138  0.2768
11445TIP3    H155750   0.122   5.618   1.298 -1.2154  0.0925  1.6757
11445TIP3    H255751   0.036   5.650   1.178 -1.9022 -1.6498  1.6937
11446TIP3   OH255752   5.552   5.487  16.866  0.2931 -0.3341  0.2848
11446TIP3    H155753   5.512   5.487  16.779  0.2193  0.7469  0.3147
11446TIP3    H255754   5.622   5.421  16.861  0.2903 -0.2667 -0.5906
11447TIP3   OH255755   4.934   3.185   2.178 -0.5616 -0.5702  0.2667
11447TIP3    H155756   4.967   3.123   2.243  2.2360 -0.1227 -0.6602
11447TIP3    H255757   4.938   3.137   2.095  0.8511  0.5381 -0.3359
11448TIP3   OH255758   6.534   5.324   4.309  0.1710 -0.1187  0.0954
11448TIP3    H155759   6.557   5.358   4.395  2.5620  2.1426 -1.3418
11448TIP3    H255760   6.566   5.234   4.309  0.5993  0.0218  1.4173
11449TIP3   OH255761   5.860   2.307   2.539 -0.2489 -0.5093 -0.5808
11449TIP3    H155762   5.787   2.332   2.595 -0.5917 -1.3711 -0.6349
11449TIP3    H255763   5.924   2.377   2.550 -0.6872 -0.2240  0.1979
11450TIP3   OH255764   0.607   4.431  13.396  0.9322  0.1093 -0.6789
11450TIP3    H155765   0.632   4.513  13.355  0.1230 -0.2191 -1.8648
11450TIP3    H255766   0.512   4.436  13.402  0.9687 -0.2749  0.2524
11451TIP3   OH255767   5.638   4.214   4.421  0.1175 -0.1383 -0.9318
11451TIP3    H155768   5.641   4.169   4.336  1.2206  0.8765 -1.4380
11451TIP3    H255769   5.701   4.285   4.413 -0.9954  0.9882  0.1622
11452TIP3   OH255770   0.793   0.067   4.836  0.4129  0.2125  0.5309
11452TIP3    H155771   0.826  -0.005   4.781 -1.2789 -0.1028 -0.0877
11452TIP3    H255772   0.871   0.119   4.855  1.5079 -1.2613  0.2094
11453TIP3   OH255773   5.113   0.412  16.728  0.4315  0.3131  0.4825
11453TIP3    H155774   5.180   0.471  16.762  0.9652 -0.1006  0.1466
11453TIP3    H255775   5.080   0.456  16.649  0.0202  0.7084  0.8723
11454TIP3   OH255776   4.285   2.386   6.474  0.1494  0.0915  0.3180
11454TIP3    H155777   4.280   2.371   6.380 -1.9988 -1.1732  0.5980
11454TIP3    H255778   4.356   2.329   6.503  1.5596  1.3050 -0.6648
11455TIP3   OH255779   0.215   4.480  15.467  0.0834  0.9353 -0.1158
11455TIP3    H155780   0.134   4.510  15.507 -0.2732  1.2001 -1.0184
11455TIP3    H255781   0.188   4.441  15.384  0.5086 -2.2536  1.2027
11456TIP3   OH255782   3.251   2.995   3.357 -0.2870 -0.1101 -0.3711
11456TIP3    H155783   3.342   2.967   3.371  0.1493  0.2328 -2.4479
11456TIP3    H255784   3.257   3.065   3.293 -2.2035 -1.4044 -2.0049
11457TIP3   OH255785   5.115   1.070  12.657 -0.0388 -0.3150  0.1137
11457TIP3    H155786   5.031   1.067  12.612  0.6043  0.3468 -1.1774
11457TIP3    H255787   5.145   0.979  12.660 -0.2632 -0.4128 -0.4917
11458TIP3   OH255788   5.539   3.214   6.212 -0.1135  0.2218  0.6000
11458TIP3    H155789   5.471   3.280   6.222  0.9205  1.2669  0.8187
11458TIP3    H255790   5.492   3.131   6.213 -1.2301  0.8441  2.3084
11459TIP3   OH255791   1.150   6.422   0.962 -0.3672 -0.2299 -0.0943
11459TIP3    H155792   1.205   6.498   0.947 -0.9243  0.0181 -0.9177
11459TIP3    H255793   1.129   6.425   1.056  0.3031  0.1505  0.0411
11460TIP3   OH255794   4.131   0.921  15.352  0.3009 -0.5513  0.4051
11460TIP3    H155795   4.052   0.888  15.395 -0.0851 -0.7601 -0.4532
11460TIP3    H255796   4.136   0.872  15.269 -1.3970  2.9017 -1.8684
11461TIP3   OH255797   5.806   1.729   3.874  0.0043 -0.2470 -0.3595
11461TIP3    H155798   5.863   1.687   3.810  0.0169 -0.7115 -0.0447
11461TIP3    H255799   5.747   1.659   3.902 -0.2267  0.0449 -0.1226
11462TIP3   OH255800   2.171   6.731  12.053 -0.1812  0.2986 -0.0506
11462TIP3    H155801   2.175   6.682  11.971  0.3507  0.8615 -0.3633
11462TIP3    H255802   2.091   6.699  12.096  0.1272 -0.7891 -0.2785
11463TIP3   OH255803   3.174   0.493   6.766 -0.0838  0.6541  0.0868
11463TIP3    H155804   3.254   0.442   6.773 -0.4294 -0.4006 -2.9560
11463TIP3    H255805   3.103   0.428   6.763 -0.7788  1.4107 -0.4867
11464TIP3   OH255806   0.396   3.690  13.758 -0.1322  0.6214  0.0381
11464TIP3    H155807   0.307   3.704  13.790 -0.1300 -0.4692  0.5430
11464TIP3    H255808   0.445   3.662  13.835  0.4194  0.2380 -0.4477
11465TIP3   OH255809   1.739   1.391   0.584 -0.1514 -0.1561 -0.0285
11465TIP3    H155810   1.684   1.382   0.662  2.5248  0.5545  2.0527
11465TIP3    H255811   1.766   1.483   0.584  1.6327 -0.6559 -0.5300
11466TIP3   OH255812   4.394   3.416   3.774  0.2063 -0.2357 -0.2817
11466TIP3    H155813   4.347   3.397   3.692  2.8482 -2.1864 -1.4409
11466TIP3    H255814   4.328   3.408   3.842 -1.8751  0.5391 -2.1401
11467TIP3   OH255815   5.925   6.147  16.286  0.2451  0.0991  0.1428
11467TIP3    H155816   5.840   6.168  16.246 -0.0006 -1.5572 -0.2375
11467TIP3    H255817   5.918   6.180  16.375 -0.2802  1.2025 -0.2900
11468TIP3   OH255818   6.645   3.402   2.371  0.0536 -0.1912  0.1030
11468TIP3    H155819   6.727   3.398   2.322 -0.5331 -3.2731 -0.7445
11468TIP3    H255820   6.595   3.472   2.329  0.6368 -1.0057 -2.0391
11469TIP3   OH255821   3.184   0.192   1.090 -0.2127 -0.3017  0.4883
11469TIP3    H155822   3.225   0.241   1.019 -0.5672 -0.7193 -0.0101
11469TIP3    H255823   3.119   0.137   1.046 -0.1403 -0.8721  1.0896
11470TIP3   OH255824   0.829   6.171   4.382  0.3896  0.0912 -0.6557
11470TIP3    H155825   0.881   6.094   4.406 -0.3992 -0.2360  0.0593
11470TIP3    H255826   0.891   6.244   4.385  1.1541 -0.5216 -1.3818
11471TIP3   OH255827   4.324   5.225  11.686 -0.0603  0.2852  0.0594
11471TIP3    H155828   4.343   5.132  11.672  0.9764  0.3234  1.1556
11471TIP3    H255829   4.273   5.228  11.767  0.8466  0.7573  0.6252
11472TIP3   OH255830   4.968   6.392   5.174 -0.9409  0.0423 -0.6005
11472TIP3    H155831   4.933   6.466   5.125 -1.6677 -0.6858 -1.1777
11472TIP3    H255832   4.997   6.330   5.107 -1.3969 -0.6950 -0.1220
11473TIP3   OH255833   4.712   6.321   3.061  0.0757 -0.0130 -0.5178
11473TIP3    H155834   4.628   6.337   3.019  0.6050  1.1303 -1.1539
11473TIP3    H255835   4.726   6.397   3.118  0.1102 -0.7816  0.5247
11474TIP3   OH255836   5.907   4.611  13.763 -0.5949 -0.2962  0.3777
11474TIP3    H155837   6.000   4.592  13.752 -0.9853 -2.3139  0.5299
11474TIP3    H255838   5.865   4.526  13.772 -2.3704  0.6302  1.1360
11475TIP3   OH255839   5.506   0.400  13.424 -0.4157  0.4185  0.0693
11475TIP3    H155840   5.529   0.479  13.375  0.7458 -0.5182 -0.9232
11475TIP3    H255841   5.507   0.427  13.516  1.3065  1.2260 -0.1780
11476TIP3   OH255842   5.815   4.047   5.415 -0.0978  0.3034 -0.1002
11476TIP3    H155843   5.815   3.996   5.333  1.0781  0.2814 -0.0935
11476TIP3    H255844   5.893   4.016   5.462 -0.3906  0.8124  0.7205
11477TIP3   OH255845   6.042   0.699   4.472 -0.2174  0.1113  0.7722
11477TIP3    H155846   5.979   0.676   4.540 -1.1803 -1.4405 -0.6072
11477TIP3    H255847   6.125   0.662   4.503 -0.3350  0.6282  1.7426
11478TIP3   OH255848   0.602   4.881   3.196 -0.2979  0.2292  0.3783
11478TIP3    H155849   0.649   4.798   3.184 -1.5645 -0.4096 -0.3025
11478TIP3    H255850   0.585   4.886   3.290 -2.0539 -1.3439  0.1781
11479TIP3   OH255851   0.807   5.367   5.714 -0.4854 -0.3186  0.1135
11479TIP3    H155852   0.788   5.313   5.637  0.0559  1.7793 -1.5525
11479TIP3    H255853   0.741   5.436   5.711  0.8224  0.9679  0.3211
11480TIP3   OH255854   0.379   2.241   4.616  0.6122 -0.5280  0.1023
11480TIP3    H155855   0.363   2.330   4.648  0.3656 -0.8492  0.8700
11480TIP3    H255856   0.305   2.222   4.559  0.3779 -0.4576  0.3860
11481TIP3   OH255857   3.607   2.270   2.511 -0.0931 -0.5335 -0.4294
11481TIP3    H155858   3.603   2.273   2.607 -1.3884  0.5332 -0.4976
11481TIP3    H255859   3.616   2.177   2.490 -0.7958 -0.8649  0.6923
11482TIP3   OH255860   2.391   2.547  14.227 -0.0599 -0.4301  0.2027
11482TIP3    H155861   2.446   2.619  14.258  1.9493 -2.3671  1.2718
11482TIP3    H255862   2.414   2.537  14.135 -0.9283  0.7707 -0.1634
11483TIP3   OH255863   3.377   4.043   0.004 -0.3991 -0.0333 -0.1365
11483TIP3    H155864   3.294   4.007  -0.026 -0.2536 -0.7994  0.3748
11483TIP3    H255865   3.440   3.972  -0.008  0.0633  0.3296  0.0875
11484TIP3   OH255866   2.007   2.483   6.036 -0.4021 -0.5854  0.1820
11484TIP3    H155867   2.047   2.500   5.951 -0.6552  2.4466  0.6091
11484TIP3    H255868   1.922   2.444   6.016 -0.8896  1.0417 -1.0244
11485TIP3   OH255869   2.698   2.719   2.293  0.7356  0.0827  0.0984
11485TIP3    H155870   2.719   2.808   2.263  0.1777 -0.1976 -1.1705
11485TIP3    H255871   2.718   2.720   2.387  1.0804  1.4385  0.0279
11486TIP3   OH255872   2.631   6.202   2.308  0.1539 -0.1650  0.2019
11486TIP3    H155873   2.721   6.167   2.303 -0.5601 -2.0231 -0.0615
11486TIP3    H255874   2.641   6.287   2.350  2.2583  0.4174 -1.3853
11487TIP3   OH255875   1.324   2.310  11.537  0.7086 -0.3778 -0.2456
11487TIP3    H155876   1.380   2.313  11.460 -0.7902 -2.5532 -1.4831
11487TIP3    H255877   1.347   2.228  11.580  0.3305  0.0017  0.7035
11488TIP3   OH255878   1.866   5.959  15.915  0.0914  0.6311  0.4702
11488TIP3    H155879   1.851   5.926  15.826 -0.3761  0.9554  0.4256
11488TIP3    H255880   1.960   5.978  15.917 -0.2032  2.4354 -0.6092
11489TIP3   OH255881   4.627   0.463  14.063  0.4604  0.4429  0.1751
11489TIP3    H155882   4.567   0.519  14.113  0.7199  0.6604  0.2509
11489TIP3    H255883   4.585   0.378  14.061  0.6398  0.3219  1.1306
11490TIP3   OH255884   4.484   1.478  14.251  0.0322  0.4462 -0.6362
11490TIP3    H155885   4.484   1.573  14.262 -0.5519  0.4731 -0.8264
11490TIP3    H255886   4.489   1.465  14.156 -1.5420  0.3103 -0.7083
11491TIP3   OH255887   5.587   3.474  15.179  0.4769 -0.0805 -0.1834
11491TIP3    H155888   5.532   3.545  15.214 -1.0959 -0.5757 -1.5962
11491TIP3    H255889   5.590   3.410  15.250  0.4823  0.6237  0.4683
11492TIP3   OH255890   3.868   3.267   0.708 -0.1921 -0.4693 -0.3809
11492TIP3    H155891   3.885   3.341   0.766 -0.3813  0.0955 -1.0314
11492TIP3    H255892   3.906   3.294   0.624  0.3983 -1.4223 -0.4206
11493TIP3   OH255893   3.452   4.834   5.522 -0.6137 -0.8754 -0.1429
11493TIP3    H155894   3.527   4.869   5.571  0.0396 -1.6368 -0.5842
11493TIP3    H255895   3.431   4.902   5.458 -1.0063 -0.1864  0.7160
11494TIP3   OH255896   2.037   5.127   6.649  0.1106 -0.3535 -0.1956
11494TIP3    H155897   2.019   5.034   6.657 -1.6193  0.0211  0.5033
11494TIP3    H255898   2.103   5.133   6.580  1.3247 -2.1925  0.7560
11495TIP3   OH255899   6.102   5.212   4.253 -0.3781  0.7191  0.1572
11495TIP3    H155900   6.007   5.203   4.263 -0.1833 -0.6672  0.9093
11495TIP3    H255901   6.126   5.143   4.191  0.1126  1.1795 -0.1606
11496TIP3   OH255902   5.825   5.177  15.804  0.1112  0.6746  0.5062
11496TIP3    H155903   5.797   5.228  15.880  0.6202 -0.6848  1.6293
11496TIP3    H255904   5.849   5.092  15.840  0.9932  0.2280 -1.1014
11497TIP3   OH255905   4.270   3.919   1.837 -0.5687  0.1242  0.5038
11497TIP3    H155906   4.337   3.988   1.838 -0.7020  0.2961 -1.0711
11497TIP3    H255907   4.196   3.959   1.792 -0.7574 -0.9510 -0.1436
11498TIP3   OH255908   3.663   2.174   6.240  0.5590 -0.5142  0.4927
11498TIP3    H155909   3.579   2.153   6.199  0.6049 -0.7633  0.5306
11498TIP3    H255910   3.660   2.132   6.326 -0.0240  0.9842  1.2346
11499TIP3   OH255911   0.484   0.503  14.502  0.4794 -0.6948 -0.4350
11499TIP3    H155912   0.434   0.429  14.466  0.0480 -0.1464 -0.9817
11499TIP3    H255913   0.549   0.463  14.559 -1.3825 -1.3597  1.2616
11500TIP3   OH255914   2.980   1.258   3.421 -0.2541  0.5211 -0.2024
11500TIP3    H155915   3.008   1.237   3.510  0.1523  1.8480 -0.0210
11500TIP3    H255916   2.994   1.352   3.412 -2.0355  0.7176 -1.0554
11501TIP3   OH255917   2.956   6.723   5.834 -0.1870 -0.1132 -0.4289
11501TIP3    H155918   3.041   6.690   5.804 -0.1768 -1.2701  0.7954
11501TIP3    H255919   2.929   6.660   5.900 -0.6341  1.8470  1.3033
11502TIP3   OH255920   0.928   4.989   4.641  0.2944  0.0599  0.3902
11502TIP3    H155921   1.024   4.986   4.635  0.3629 -0.1145  1.4238
11502TIP3    H255922   0.898   4.917   4.586  0.7085  0.9497 -1.0158
11503TIP3   OH255923   1.151   0.623  11.740 -0.1710 -0.6876 -0.2022
11503TIP3    H155924   1.083   0.559  11.719  0.7214 -1.7434  0.1119
11503TIP3    H255925   1.105   0.690  11.791 -0.8297 -1.7614  0.6564
11504TIP3   OH255926   5.004   2.065  13.413 -0.0355 -0.4368  0.2303
11504TIP3    H155927   5.083   2.108  13.379  0.3976  0.3937  2.2039
11504TIP3    H255928   5.034   1.979  13.442 -0.4944 -1.3200 -1.8308
11505TIP3   OH255929   5.994   0.431  11.644  0.1974  0.2858  0.6020
11505TIP3    H155930   5.905   0.459  11.665 -0.3224 -1.6430  1.1066
11505TIP3    H255931   6.039   0.429  11.728  0.3402  0.0243  0.5199
11506TIP3   OH255932   4.231   3.536   3.356 -0.2257  0.0868 -0.0114
11506TIP3    H155933   4.136   3.539   3.341 -0.1684  0.0241 -0.3966
11506TIP3    H255934   4.255   3.626   3.375  0.0002  0.5135 -2.2187
11507TIP3   OH255935   0.190   6.747   2.769  0.0959  0.4625  0.9937
11507TIP3    H155936   0.203   6.840   2.788  0.9335  0.2693  1.3947
11507TIP3    H255937   0.227   6.735   2.681  1.6934  0.1294  1.7055
11508TIP3   OH255938   5.687   4.966  14.465  0.3685  0.1874  0.2718
11508TIP3    H155939   5.744   4.891  14.483  0.2866 -0.1412 -0.8436
11508TIP3    H255940   5.599   4.935  14.484  0.6038  0.9729  2.9086
11509TIP3   OH255941   1.326   3.639  14.539 -0.6161  0.4739  0.6283
11509TIP3    H155942   1.343   3.592  14.621 -0.5609  1.6711  1.3176
11509TIP3    H255943   1.409   3.637  14.492 -0.6794 -0.3178  0.5455
11510TIP3   OH255944   5.804   4.999   2.713  0.6640 -0.3607  0.0966
11510TIP3    H155945   5.868   5.068   2.692  0.7120 -0.0773  1.1564
11510TIP3    H255946   5.826   4.973   2.802  0.0004 -1.0487  0.0575
11511TIP3   OH255947   2.236   0.033  14.127  0.5514  0.6194  0.6707
11511TIP3    H155948   2.171  -0.037  14.128  0.7633  0.3050 -2.3370
11511TIP3    H255949   2.202   0.096  14.063  1.7664  1.8750  1.2344
11512TIP3   OH255950   6.530   5.361  15.614  0.3473  0.1361 -0.2089
11512TIP3    H155951   6.614   5.397  15.641 -1.0208  3.2038  0.1999
11512TIP3    H255952   6.508   5.408  15.534  0.9990 -3.7902 -2.8716
11513TIP3   OH255953   0.158   4.175   4.837  0.2585  0.0091 -0.4161
11513TIP3    H155954   0.181   4.193   4.745 -1.9208 -0.6398 -1.1245
11513TIP3    H255955   0.062   4.178   4.838  0.2851  0.3797  1.9398
11514TIP3   OH255956   2.665   3.176   2.615  0.7313 -0.5598 -0.2792
11514TIP3    H155957   2.625   3.236   2.551  0.3289  0.1732  0.6345
11514TIP3    H255958   2.608   3.183   2.692  2.7875  0.7422  1.1666
11515TIP3   OH255959   5.485   1.695  12.458 -0.0598 -0.3355  0.0961
11515TIP3    H155960   5.577   1.669  12.450  0.3807  1.0652  0.5674
11515TIP3    H255961   5.437   1.612  12.456  1.3233 -1.2033  1.5078
11516TIP3   OH255962   3.171   5.179   0.964 -0.2682 -0.6221  0.2227
11516TIP3    H155963   3.198   5.128   0.888  0.4248  0.0038  0.0513
11516TIP3    H255964   3.104   5.238   0.930 -0.3775 -0.7428  0.2254
11517TIP3   OH255965   1.805   3.877  10.888 -0.4725 -0.2736 -0.6978
11517TIP3    H155966   1.782   3.815  10.818  0.6219 -1.1968 -0.2572
11517TIP3    H255967   1.877   3.929  10.852 -0.5617 -0.0878 -0.6106
11518TIP3   OH255968   3.520   1.271   2.710 -0.0460  0.0889  0.1571
11518TIP3    H155969   3.514   1.294   2.803 -0.3357 -2.2675  0.7614
11518TIP3    H255970   3.477   1.343   2.664 -1.0851  0.6291  1.9357
11519TIP3   OH255971   2.377   2.396   2.142 -0.2308  0.1860  0.1800
11519TIP3    H155972   2.448   2.339   2.172  0.0141  1.3475  1.8796
11519TIP3    H255973   2.343   2.353   2.063  2.4957 -0.2585 -0.7896
11520TIP3   OH255974   4.878   3.380  16.596  0.0041 -0.0685 -0.1472
11520TIP3    H155975   4.905   3.341  16.680  0.0312  0.2944  0.0129
11520TIP3    H255976   4.899   3.313  16.531  2.0559  0.5230 -0.1185
11521TIP3   OH255977   5.159   5.179  12.552 -0.0558  0.7091  0.0215
11521TIP3    H155978   5.152   5.168  12.647  1.8834  2.0458  0.3525
11521TIP3    H255979   5.184   5.271  12.541 -0.7829  0.7019 -1.8236
11522TIP3   OH255980   4.515   4.904  15.912  0.6259  0.4938 -0.2353
11522TIP3    H155981   4.554   4.925  15.827 -0.0349 -2.2763 -1.2669
11522TIP3    H255982   4.428   4.944  15.909  0.4953  0.1540 -0.9584
11523TIP3   OH255983   0.871   1.770  14.279 -0.9434 -0.1731  0.1846
11523TIP3    H155984   0.846   1.738  14.192  0.1280  0.4312 -0.3637
11523TIP3    H255985   0.957   1.730  14.295 -0.7219  0.4465  0.5625
11524TIP3   OH255986   6.276   2.963  11.546  0.3311 -0.1374  0.0955
11524TIP3    H155987   6.185   2.938  11.563  0.6172 -0.8277  0.6468
11524TIP3    H255988   6.295   3.028  11.613  0.0782  0.3912 -0.3465
11525TIP3   OH255989   0.483   5.021  12.384 -0.2277 -0.1395 -0.1373
11525TIP3    H155990   0.438   5.012  12.300 -1.3800  0.6102  0.3812
11525TIP3    H255991   0.487   5.115  12.399  0.2629 -0.2608  0.4964
11526TIP3   OH255992   6.433   1.687   1.043 -0.6827 -0.4699 -0.1285
11526TIP3    H155993   6.444   1.631   1.120 -0.0392  1.3166  1.1169
11526TIP3    H255994   6.345   1.667   1.011 -0.5911 -1.9189  0.5160
11527TIP3   OH255995   6.301   1.876   3.442 -0.3791 -0.1121  0.3095
11527TIP3    H155996   6.302   1.962   3.399  1.7450 -1.1087 -1.7288
11527TIP3    H255997   6.237   1.826   3.393  1.9749 -1.2189 -1.7368
11528TIP3   OH255998   4.035   1.136  16.795 -0.1337 -0.4939 -0.2418
11528TIP3    H155999   4.031   1.149  16.890 -0.3845  0.8275 -0.4204
11528TIP3    H256000   4.119   1.094  16.780  0.5150  0.5306  0.4475
11529TIP3   OH256001   4.305   6.397   4.503 -0.3193  0.7092 -0.2872
11529TIP3    H156002   4.236   6.416   4.567 -0.1240  0.3840  0.0235
11529TIP3    H256003   4.286   6.455   4.429 -3.1043 -1.9477 -1.7922
11530TIP3   OH256004   2.995   5.547   1.723  0.3653 -0.5590  0.3335
11530TIP3    H156005   3.006   5.479   1.657  0.6821 -1.5862  1.4216
11530TIP3    H256006   2.965   5.623   1.674  0.5380 -1.3168 -0.9838
11531TIP3   OH256007   3.964   5.918   3.566  0.6671 -0.2623 -0.3699
11531TIP3    H156008   3.969   5.881   3.654  0.2500  2.9887  1.1001
11531TIP3    H256009   4.053   5.910   3.531  0.6715 -2.2156  0.0619
11532TIP3   OH256010   2.083   5.059   4.476  0.6398 -0.6277  0.5211
11532TIP3    H156011   1.989   5.068   4.489  0.5822  0.3468 -0.4350
11532TIP3    H256012   2.092   5.026   4.387  1.2156  0.0060  0.3323
11533TIP3   OH256013   5.764   3.080  12.752 -0.2250 -0.2148 -0.4380
11533TIP3    H156014   5.746   3.174  12.755 -0.7275 -0.2833 -1.1927
11533TIP3    H256015   5.681   3.040  12.729 -0.3125 -0.9605  1.0606
11534TIP3   OH256016   2.441   5.429   0.990 -0.0435 -0.5293  0.2233
11534TIP3    H156017   2.454   5.380   0.908  0.0521 -1.0079  0.5186
11534TIP3    H256018   2.396   5.509   0.964 -0.2105 -0.7823 -0.2671
11535TIP3   OH256019   3.485   3.814   4.436 -0.1827  0.0676 -0.3552
11535TIP3    H156020   3.491   3.733   4.385  0.2182 -1.0676  1.4325
11535TIP3    H256021   3.470   3.883   4.371  1.3004 -1.1962 -2.1039
11536TIP3   OH256022   2.951   6.657  15.882 -0.3991 -0.8975 -0.3676
11536TIP3    H156023   2.932   6.739  15.835  0.3076  0.1707  1.1724
11536TIP3    H256024   3.029   6.622  15.839  0.2532  0.0795  0.0012
11537TIP3   OH256025   4.169   6.470   4.811 -0.1634  0.5896  1.1497
11537TIP3    H156026   4.212   6.510   4.887  1.4457  0.6686  0.2193
11537TIP3    H256027   4.132   6.545   4.763  0.8028  0.7526  0.6536
11538TIP3   OH256028   6.422   5.966   1.664 -0.0708 -0.3632  0.2675
11538TIP3    H156029   6.368   6.028   1.713  0.7278  0.0101  0.6849
11538TIP3    H256030   6.371   5.947   1.585 -0.3428  0.7920  0.1529
11539TIP3   OH256031   4.835   1.797   4.522  0.2445  0.1766  0.5913
11539TIP3    H156032   4.806   1.773   4.434 -0.0784 -0.1993  0.7974
11539TIP3    H256033   4.926   1.826   4.510  0.7509 -1.4102  0.3562
11540TIP3   OH256034   2.645   0.938   2.958 -0.0049 -0.3012 -0.8032
11540TIP3    H156035   2.614   0.901   3.040 -1.1679 -0.9078 -1.5077
11540TIP3    H256036   2.681   0.863   2.910  0.2726 -0.0194 -1.0384
11541TIP3   OH256037   0.710   4.952  11.062  0.1613  0.2259  0.1744
11541TIP3    H156038   0.696   5.045  11.043  1.9803  0.7168  1.1219
11541TIP3    H256039   0.737   4.914  10.979  1.0255  0.9030  0.1292
11542TIP3   OH256040   2.867   5.479  14.619  0.2346 -0.1071  0.0652
11542TIP3    H156041   2.811   5.493  14.695 -0.3475 -0.3745 -0.2993
11542TIP3    H256042   2.827   5.532  14.550 -0.7773 -1.8890 -0.7529
11543TIP3   OH256043   0.967   0.294   0.674 -0.4965  0.5874 -0.5457
11543TIP3    H156044   1.048   0.243   0.667 -0.2331  0.9085  0.1130
11543TIP3    H256045   0.973   0.336   0.760 -2.0257 -0.5124  0.1086
11544TIP3   OH256046   6.242   0.763   5.269  0.2869 -0.0884 -0.1739
11544TIP3    H156047   6.284   0.733   5.188  0.2634  0.1578 -0.2763
11544TIP3    H256048   6.311   0.809   5.317  0.1564  0.2434 -0.3044
11545TIP3   OH256049   2.297   3.482  11.650 -0.1349  0.6695  0.1389
11545TIP3    H156050   2.222   3.428  11.625  0.1962  0.6816 -0.9181
11545TIP3    H256051   2.341   3.431  11.718 -2.3657  1.7209  2.4350
11546TIP3   OH256052   5.647   5.642  11.761 -1.2983 -0.1942  0.4154
11546TIP3    H156053   5.553   5.630  11.774 -1.4524  1.6600  1.2517
11546TIP3    H256054   5.653   5.718  11.703 -0.3116  0.9702  2.0006
11547TIP3   OH256055   5.786   4.287  12.822  0.1146 -0.0856 -0.3346
11547TIP3    H156056   5.754   4.370  12.857 -1.2585 -0.6672 -0.2063
11547TIP3    H256057   5.796   4.303  12.728 -1.6486 -0.2332 -0.5614
11548TIP3   OH256058   3.127   4.717   3.179 -0.7757 -0.2249  0.0512
11548TIP3    H156059   3.081   4.642   3.218 -1.7898  1.0121  1.2848
11548TIP3    H256060   3.062   4.756   3.120 -0.4593  0.0527 -0.1118
11549TIP3   OH256061   3.627   2.771   1.632 -1.0122 -0.2296 -0.0752
11549TIP3    H156062   3.700   2.752   1.573 -0.2590  3.6121 -0.5207
11549TIP3    H256063   3.551   2.779   1.575 -0.8955  0.2992 -0.1595
11550TIP3   OH256064   5.202   4.997  13.875  0.3974  0.1597  0.5409
11550TIP3    H156065   5.246   5.082  13.867  0.6281 -0.1075 -1.0202
11550TIP3    H256066   5.129   5.014  13.934 -0.3288  1.7428 -0.7960
11551TIP3   OH256067   0.510   2.471  15.846  0.2894 -0.2661 -0.0422
11551TIP3    H156068   0.597   2.497  15.877  0.4225 -0.2193 -0.4564
11551TIP3    H256069   0.480   2.407  15.911  1.7010 -2.1936 -1.2393
11552TIP3   OH256070   1.986   6.085  15.174 -0.3045 -0.3818  0.2668
11552TIP3    H156071   1.911   6.047  15.128 -1.2153  1.4569  0.2009
11552TIP3    H256072   1.948   6.153  15.229  1.2486  0.1291  0.7241
11553TIP3   OH256073   0.020   2.218  12.403  0.0492 -0.2854 -0.8771
11553TIP3    H156074  -0.003   2.253  12.489  1.0100  0.8859 -1.0877
11553TIP3    H256075   0.113   2.240  12.392  0.2722 -1.5856 -1.6526
11554TIP3   OH256076   5.672   2.298   0.717 -0.0377  0.1210 -0.1483
11554TIP3    H156077   5.702   2.287   0.627 -0.9572 -0.3030 -0.4162
11554TIP3    H256078   5.708   2.381   0.746 -1.8172  1.4983 -1.7759
11555TIP3   OH256079   5.002   4.849  15.871  0.5061 -0.0154  0.1974
11555TIP3    H156080   4.968   4.935  15.896 -1.5533 -0.1816 -1.8380
11555TIP3    H256081   5.093   4.866  15.846 -0.1711  1.7754 -1.1506
11556TIP3   OH256082   0.603   5.317   3.222 -0.4642  0.2622  0.0865
11556TIP3    H156083   0.577   5.406   3.198  0.1146  0.0045 -1.5571
11556TIP3    H256084   0.648   5.327   3.306  0.8830  1.7365 -0.7731
11557TIP3   OH256085   5.191   1.460   3.801 -0.0167  0.1280  0.2316
11557TIP3    H156086   5.256   1.391   3.783  1.0513  1.2253 -0.2450
11557TIP3    H256087   5.169   1.494   3.714 -2.3520 -1.2095  0.2768
11558TIP3   OH256088   4.203   5.909   6.174  0.5570  0.3436 -0.1702
11558TIP3    H156089   4.288   5.884   6.137 -0.4927  0.3707 -2.6980
11558TIP3    H256090   4.139   5.868   6.116 -1.2509 -2.5413  3.6134
11559TIP3   OH256091   3.184   3.770  14.645 -0.2583 -0.3798  0.1300
11559TIP3    H156092   3.210   3.717  14.569  1.2504 -0.2638  0.5368
11559TIP3    H256093   3.120   3.832  14.610 -0.0085 -0.7064 -0.9348
11560TIP3   OH256094   4.474   5.902   0.034 -0.0467  0.2465  0.2546
11560TIP3    H156095   4.381   5.923   0.046 -0.4258 -1.3575  0.3402
11560TIP3    H256096   4.520   5.959   0.094 -1.0525  0.5055  0.7918
11561TIP3   OH256097   6.543   4.494  11.110  0.5899 -0.4973  0.1207
11561TIP3    H156098   6.448   4.499  11.122  0.2292 -3.3580 -1.1458
11561TIP3    H256099   6.560   4.549  11.033 -0.1776 -0.7179 -0.2155
11562TIP3   OH256100   0.873   2.340  13.305  0.1336 -0.2100 -0.9314
11562TIP3    H156101   0.778   2.338  13.317  0.5381 -2.2797  2.4595
11562TIP3    H256102   0.895   2.254  13.269  0.9669 -0.6015  0.4831
11563TIP3   OH256103   0.457   0.105   2.347  0.0712  0.0424  0.3810
11563TIP3    H156104   0.540   0.142   2.315  0.7983  0.6170  2.8399
11563TIP3    H256105   0.400   0.181   2.357 -1.1293 -0.4621 -2.2750
11564TIP3   OH256106   5.574   1.198  15.654  0.1400 -0.2111 -0.1705
11564TIP3    H156107   5.558   1.104  15.646 -1.7659 -0.0091  0.9589
11564TIP3    H256108   5.575   1.214  15.748  1.2032  0.7920 -0.3418
11565TIP3   OH256109   2.610   4.807  12.148  0.2125  0.0306  0.1039
11565TIP3    H156110   2.593   4.757  12.228 -1.9481 -2.9689 -2.1601
11565TIP3    H256111   2.531   4.859  12.134  0.2959  0.0016 -0.4876
11566TIP3   OH256112   3.003   1.493   0.186  0.5447 -0.2285  1.3051
11566TIP3    H156113   3.065   1.538   0.243  3.1056  0.1385 -1.6129
11566TIP3    H256114   2.994   1.406   0.224  2.0615  0.0574  2.3890
11567TIP3   OH256115   4.891   3.194   3.468  0.0631  0.2425 -0.1214
11567TIP3    H156116   4.875   3.217   3.377  1.5371  1.0285 -0.2067
11567TIP3    H256117   4.942   3.113   3.464  0.8472  0.7275 -0.0258
11568TIP3   OH256118   5.243   2.316  11.779 -0.0570 -0.0742  1.0333
11568TIP3    H156119   5.202   2.281  11.858  1.2569 -0.5675  1.5068
11568TIP3    H256120   5.228   2.249  11.712 -0.6130  0.0560  1.0266
11569TIP3   OH256121   0.685   2.595   5.460  0.6337 -0.1757 -0.9341
11569TIP3    H156122   0.625   2.562   5.393  0.6255 -0.2884 -0.8708
11569TIP3    H256123   0.762   2.623   5.411  0.9637 -1.0197 -0.9131
11570TIP3   OH256124   4.552   3.524  10.254 -0.3445 -0.4659 -0.2827
11570TIP3    H156125   4.519   3.438  10.227 -2.8374  0.6199 -0.8043
11570TIP3    H256126   4.477   3.583  10.245  1.6232  2.0128 -1.0071
11571TIP3   OH256127   1.971   0.741  13.468 -0.2583  0.0473  0.0369
11571TIP3    H156128   1.911   0.808  13.434 -1.3916 -0.6046  0.7303
11571TIP3    H256129   2.054   0.788  13.482 -1.2831  1.5015  1.3575
11572TIP3   OH256130   3.187   3.746   5.535  0.8660  0.4260  0.4039
11572TIP3    H156131   3.281   3.724   5.538  0.7740  0.0771  0.7532
11572TIP3    H256132   3.148   3.694   5.605  0.2327 -0.2753 -0.4636
11573TIP3   OH256133   5.184   0.503   3.458  0.9945  0.7699  0.4460
11573TIP3    H156134   5.215   0.419   3.490 -0.2931  0.7152  1.5742
11573TIP3    H256135   5.183   0.559   3.535  0.6310  1.4612 -0.0556
11574TIP3   OH256136   6.518   0.188  11.563 -0.0008  0.3565  0.4181
11574TIP3    H156137   6.570   0.120  11.520 -0.9698 -2.1154  3.0387
11574TIP3    H256138   6.427   0.163  11.548 -0.3760  1.2522  1.1415
11575TIP3   OH256139   4.534   2.085   0.511  0.3007 -0.4894 -1.1467
11575TIP3    H156140   4.556   2.090   0.418  3.1377  1.7667 -0.4221
11575TIP3    H256141   4.485   2.166   0.529  0.7067 -0.3924 -0.4563
11576TIP3   OH256142   3.647   6.110   1.120  0.3168 -0.7311  0.0133
11576TIP3    H156143   3.623   6.018   1.124  0.4100 -0.7794 -0.5155
11576TIP3    H256144   3.634   6.135   1.028 -1.4380  0.2485  0.5035
11577TIP3   OH256145   6.517   2.771   1.170  0.0159 -0.6968  0.2757
11577TIP3    H156146   6.518   2.865   1.185  0.1596 -0.6620  0.0514
11577TIP3    H256147   6.546   2.761   1.079  0.7447 -1.0004  0.5448
11578TIP3   OH256148   2.988   1.901   1.361 -0.3674 -0.0232  0.3222
11578TIP3    H156149   2.970   1.823   1.413  0.9004 -0.5632 -0.0167
11578TIP3    H256150   3.076   1.928   1.388  0.1893 -0.1396 -1.2957
11579TIP3   OH256151   0.234   2.973  16.237  0.4429  0.2588 -0.6687
11579TIP3    H156152   0.221   3.046  16.297  0.4639 -0.0778 -0.2525
11579TIP3    H256153   0.180   2.994  16.161  2.1094  1.7815 -1.4998
11580TIP3   OH256154   0.362   2.438   1.849  0.2458  0.6707  0.6473
11580TIP3    H156155   0.368   2.344   1.870 -0.5075  1.1243  3.0645
11580TIP3    H256156   0.452   2.465   1.834  0.5131 -0.3426  0.3580
11581TIP3   OH256157   3.061   3.295   0.570 -0.2253  0.2230 -0.5566
11581TIP3    H156158   2.973   3.258   0.561 -0.1801 -0.1238  0.3849
11581TIP3    H256159   3.049   3.374   0.622 -0.1718  0.9732 -1.6650
11582TIP3   OH256160   3.408   0.255  17.069 -0.2435 -0.7127  0.3191
11582TIP3    H156161   3.457   0.329  17.104  0.8269 -0.8537 -0.8604
11582TIP3    H256162   3.367   0.216  17.146  2.1941 -1.1101  1.4725
11583TIP3   OH256163   1.383   0.394  14.298 -0.3589  0.6617 -0.3855
11583TIP3    H156164   1.335   0.468  14.335 -2.1450  0.5179 -2.2725
11583TIP3    H256165   1.455   0.434  14.250 -1.4079  1.2179 -1.5303
11584TIP3   OH256166   0.700   3.756  16.276  0.2096  0.0392 -0.2180
11584TIP3    H156167   0.752   3.836  16.274  1.6144 -0.7759  1.7062
11584TIP3    H256168   0.665   3.753  16.365 -0.7900 -0.8871 -0.6291
11585TIP3   OH256169   1.499   0.283  16.900 -0.4520 -0.7406 -0.1800
11585TIP3    H156170   1.516   0.283  16.994 -2.0996 -0.3008  0.1345
11585TIP3    H256171   1.561   0.219  16.864  0.6249 -0.4299  1.1097
11586TIP3   OH256172   3.607   4.923   3.373  0.2116  0.0653  0.6737
11586TIP3    H156173   3.665   4.912   3.297 -1.9920  1.1903 -1.2377
11586TIP3    H256174   3.528   4.874   3.350  0.0520 -0.7984  2.9067
11587TIP3   OH256175   0.356   4.668  15.664 -0.2348  0.2410  0.2381
11587TIP3    H156176   0.379   4.617  15.742  1.6538 -0.3037 -0.6283
11587TIP3    H256177   0.339   4.602  15.597 -0.0121  0.7147 -0.2903
11588TIP3   OH256178   5.778   6.665   0.867 -0.1462  0.4757 -0.4060
11588TIP3    H156179   5.729   6.747   0.858  1.5536  1.5095 -0.4598
11588TIP3    H256180   5.776   6.626   0.780  0.3368  1.2427 -0.7775
11589TIP3   OH256181   6.088   1.333  10.463  0.4760 -0.4841  0.4223
11589TIP3    H156182   6.118   1.403  10.520 -0.6649  0.1583  0.2599
11589TIP3    H256183   6.035   1.378  10.396  0.3473 -1.4152 -0.1053
11590TIP3   OH256184   0.467   2.533   0.864  0.6401  0.1571 -0.1476
11590TIP3    H156185   0.460   2.535   0.768  0.5214  0.8450 -0.1294
11590TIP3    H256186   0.386   2.491   0.893  0.6012  0.0980 -0.3372
11591TIP3   OH256187   4.474   3.325  11.899 -0.2257  0.4445  0.6041
11591TIP3    H156188   4.382   3.333  11.925 -0.4350  0.2756 -0.0959
11591TIP3    H256189   4.475   3.255  11.834  0.2703  1.0968 -0.0841
11592TIP3   OH256190   3.418   5.077   6.086  0.1780  0.5508 -0.0739
11592TIP3    H156191   3.490   5.059   6.146  1.2969  2.3985 -0.8072
11592TIP3    H256192   3.421   5.006   6.022  0.7013  0.0562  0.5058
11593TIP3   OH256193   6.377   3.885  15.966 -0.6671  0.5070  0.2177
11593TIP3    H156194   6.368   3.949  15.896 -0.4043  0.2895 -0.0128
11593TIP3    H256195   6.288   3.876  16.002 -0.5826  1.5322  0.7175
11594TIP3   OH256196   2.650   6.704  14.993  0.9349  0.1434 -0.3174
11594TIP3    H156197   2.591   6.727  14.921 -2.5791  1.5437  2.8315
11594TIP3    H256198   2.633   6.611  15.010 -0.1422  0.4362  0.2968
11595TIP3   OH256199   0.973   2.603  16.277 -0.3415  0.4351 -0.1214
11595TIP3    H156200   0.891   2.639  16.309 -1.5252  0.1450 -2.7097
11595TIP3    H256201   1.020   2.678  16.240  0.8306  0.6937  1.7937
11596TIP3   OH256202   6.181   6.026   5.105 -0.8866 -0.2864  0.7370
11596TIP3    H156203   6.256   5.973   5.133 -0.3752 -1.2289 -2.2744
11596TIP3    H256204   6.105   5.973   5.128 -0.4921 -0.8741  0.7095
11597TIP3   OH256205   5.586   5.584   6.693  0.2977  0.3633 -1.2470
11597TIP3    H156206   5.561   5.604   6.603  0.2123  0.2791 -1.2416
11597TIP3    H256207   5.585   5.669   6.738 -0.1851  0.3303 -1.1937
11598TIP3   OH256208   4.724   0.545   3.458 -0.0809  0.1664 -0.6527
11598TIP3    H156209   4.725   0.631   3.500  0.2427 -0.4558  0.6603
11598TIP3    H256210   4.810   0.508   3.478 -0.1028 -0.3361 -1.4820
11599TIP3   OH256211   5.801   0.798   5.180  0.4989 -0.0210 -0.1295
11599TIP3    H156212   5.767   0.843   5.258  1.6861 -0.2062  0.4968
11599TIP3    H256213   5.875   0.747   5.212  0.9958 -0.1015 -1.3877
11600TIP3   OH256214   0.728   5.555  14.820  0.1492  0.1857 -0.5730
11600TIP3    H156215   0.787   5.492  14.861  1.3412  0.3949 -1.9529
11600TIP3    H256216   0.755   5.640  14.854 -0.5248  0.1188  0.1625
11601TIP3   OH256217   0.791   0.166   2.799 -0.6883  0.3147  0.3471
11601TIP3    H156218   0.782   0.127   2.886  2.8353 -0.6421  0.3591
11601TIP3    H256219   0.801   0.091   2.740  2.6401  1.0582 -0.0922
11602TIP3   OH256220   4.731   3.260   1.632  0.2866 -0.1527 -0.8515
11602TIP3    H156221   4.663   3.325   1.648 -0.6409 -1.3909  0.4396
11602TIP3    H256222   4.766   3.282   1.546 -1.3375  0.8821 -1.2814
11603TIP3   OH256223   5.485   3.359   4.839  0.4223 -0.3760 -0.2531
11603TIP3    H156224   5.567   3.342   4.792 -0.1755 -2.5857 -0.5345
11603TIP3    H256225   5.421   3.375   4.769  0.0811 -1.1552 -0.1230
11604TIP3   OH256226   4.851   0.281   2.519 -0.4774 -0.0552 -0.2018
11604TIP3    H156227   4.772   0.335   2.517 -0.3827  0.1350  0.9245
11604TIP3    H256228   4.923   0.342   2.507 -0.4497 -0.1323 -0.4456
11605TIP3   OH256229   2.627   6.613   3.295 -0.3996 -0.0873  0.2219
11605TIP3    H156230   2.542   6.632   3.255  0.4395  1.1460 -1.0093
11605TIP3    H256231   2.630   6.518   3.299 -1.3497 -0.1814 -0.8115
11606TIP3   OH256232   0.537   2.123  13.181  0.0566 -0.1175 -0.1632
11606TIP3    H156233   0.501   2.212  13.176  0.6239  0.0135 -2.3556
11606TIP3    H256234   0.576   2.118  13.269 -0.5548  1.5598  0.2323
11607TIP3   OH256235   4.323   5.486   0.209  0.3677 -0.0944 -0.1436
11607TIP3    H156236   4.334   5.580   0.196 -1.1532 -0.2131 -2.6850
11607TIP3    H256237   4.389   5.445   0.153  0.7060 -0.5412  0.5763
11608TIP3   OH256238   5.243   2.392   3.481  0.0703 -0.6606 -0.1192
11608TIP3    H156239   5.227   2.379   3.388  1.2526 -0.8317 -0.3076
11608TIP3    H256240   5.181   2.459   3.508 -1.9549 -2.3266 -0.4985
11609TIP3   OH256241   3.905   6.081   0.831 -0.7826 -0.0325  0.2994
11609TIP3    H156242   3.918   6.159   0.886 -0.5659 -0.7650  1.2969
11609TIP3    H256243   3.818   6.050   0.855 -0.3034 -0.9015  0.9125
11610TIP3   OH256244   3.587   6.031   5.505  0.3223 -0.0742 -0.6041
11610TIP3    H156245   3.533   6.073   5.572 -0.4222 -1.5362 -0.2742
11610TIP3    H256246   3.605   5.943   5.540  1.2526 -0.3017 -1.6105
11611TIP3   OH256247   3.347   2.800  14.807  0.1942  0.3338 -0.6066
11611TIP3    H156248   3.431   2.828  14.771  0.3004  0.1409 -0.5069
11611TIP3    H256249   3.314   2.736  14.744 -0.1757  0.8861 -0.9749
11612TIP3   OH256250   6.564   6.261  15.564  0.1444 -0.1087 -0.5320
11612TIP3    H156251   6.623   6.314  15.619  1.2564  0.4189 -2.2099
11612TIP3    H256252   6.486   6.249  15.619  1.6980 -0.6539  1.6620
11613TIP3   OH256253   6.340   5.643   4.515  0.3089 -0.0605  0.6115
11613TIP3    H156254   6.271   5.652   4.581  1.1465 -0.9221  1.6202
11613TIP3    H256255   6.292   5.632   4.432 -0.7953 -1.2253  1.3708
11614TIP3   OH256256   1.852   0.735   5.423  0.0016  0.1450 -0.7532
11614TIP3    H156257   1.910   0.778   5.485 -0.2395 -0.2070 -0.2878
11614TIP3    H256258   1.844   0.797   5.350  0.0294  0.6835 -0.2921
11615TIP3   OH256259   4.476   3.904  16.971 -0.1526  0.2515  0.3372
11615TIP3    H156260   4.423   3.928  17.047 -1.5039  1.7092 -1.0270
11615TIP3    H256261   4.531   3.832  17.002  0.3194  1.7216  3.0975
11616TIP3   OH256262   6.197   2.342  16.214  0.3162  0.1291  0.2123
11616TIP3    H156263   6.283   2.315  16.247  1.0073  2.5000  0.4081
11616TIP3    H256264   6.138   2.325  16.287  1.0873  1.0597  1.0717
11617TIP3   OH256265   5.834   2.847  16.101  0.1207  0.8787  0.2693
11617TIP3    H156266   5.802   2.933  16.130  1.1280  1.1249  0.6786
11617TIP3    H256267   5.776   2.784  16.144 -1.3341  1.3606 -0.9101
11618TIP3   OH256268   4.864   0.826   0.664 -0.3095 -0.4016  0.1686
11618TIP3    H156269   4.816   0.908   0.650  2.7247  1.3504 -0.3496
11618TIP3    H256270   4.943   0.852   0.711  0.9350 -2.9674 -0.4288
11619TIP3   OH256271   1.349   3.320   5.779  0.0058  0.0901 -0.3869
11619TIP3    H156272   1.391   3.237   5.803  1.5098  1.0340  0.3445
11619TIP3    H256273   1.381   3.339   5.691  1.6366  1.1080  0.4011
11620TIP3   OH256274   5.716   5.069   0.614  0.9321  0.4411 -0.1537
11620TIP3    H156275   5.756   5.130   0.552  1.3367  0.6032  0.2702
11620TIP3    H256276   5.727   4.983   0.573  1.2039  0.5462 -0.3055
11621TIP3   OH256277   5.442   2.088  12.745  0.0109  0.9038  0.4405
11621TIP3    H156278   5.434   2.007  12.695  0.5838  1.3924 -0.4598
11621TIP3    H256279   5.438   2.061  12.836  0.7588 -0.2058  0.1526
11622TIP3   OH256280   6.624   3.945  11.875  0.2241  0.3424 -0.5155
11622TIP3    H156281   6.556   3.962  11.809  1.6762 -0.4309 -2.2533
11622TIP3    H256282   6.704   3.980  11.836  1.1062 -0.0935  0.8699
11623TIP3   OH256283   6.630   0.238  12.289  0.0663 -0.2951  0.1933
11623TIP3    H156284   6.545   0.282  12.295 -0.2079 -0.5622 -1.5721
11623TIP3    H256285   6.625   0.167  12.353 -0.8899 -0.0710  0.3696
11624TIP3   OH256286   3.434   5.042  15.931  0.0546 -0.1184  0.0673
11624TIP3    H156287   3.513   5.032  15.877 -0.3360 -0.1898 -0.4990
11624TIP3    H256288   3.463   5.024  16.020  0.5955 -0.5297 -0.1934
11625TIP3   OH256289   1.781   5.022  10.829 -0.0843  0.1746  0.4907
11625TIP3    H156290   1.788   4.986  10.917  0.0140 -1.7421 -0.2810
11625TIP3    H256291   1.751   4.949  10.775  1.9012  0.7183 -1.4453
11626TIP3   OH256292   4.133   4.050   0.856  0.0333 -0.6489  0.0725
11626TIP3    H156293   4.087   4.020   0.777  1.0456 -1.5209 -0.1931
11626TIP3    H256294   4.202   4.106   0.823 -0.4485  0.1680  0.4385
11627TIP3   OH256295   3.231   6.359  13.088  0.0745  0.4070  0.5515
11627TIP3    H156296   3.136   6.367  13.086  0.0457 -0.0941 -0.9801
11627TIP3    H256297   3.262   6.421  13.022  0.7992  0.4285  0.9014
11628TIP3   OH256298   5.488   2.205   3.390 -0.4057  0.5806 -0.0896
11628TIP3    H156299   5.525   2.240   3.472 -0.7512 -2.2534  1.3187
11628TIP3    H256300   5.563   2.166   3.346 -0.5171  0.7161 -0.3979
11629TIP3   OH256301   2.443   0.105   6.033  0.2907  0.2630 -0.4908
11629TIP3    H156302   2.519   0.143   6.077 -0.0987  1.2775 -0.6965
11629TIP3    H256303   2.381   0.089   6.104 -0.2404  1.6701 -0.6273
11630TIP3   OH256304   3.635   5.785   5.639  0.3448 -0.4318  0.0322
11630TIP3    H156305   3.617   5.740   5.722  0.5608 -1.6853 -0.5891
11630TIP3    H256306   3.730   5.794   5.638  0.1976  1.4583  0.8721
11631TIP3   OH256307   5.855   4.271   3.090  0.3392 -0.2331 -0.2361
11631TIP3    H156308   5.894   4.232   3.011  3.1379 -0.2387  1.0775
11631TIP3    H256309   5.843   4.197   3.149 -1.1021 -0.1252 -0.3841
11632TIP3   OH256310   2.394   5.942   3.576  0.0989 -0.0639  0.1313
11632TIP3    H156311   2.339   5.900   3.511 -0.0308  1.8854 -1.0435
11632TIP3    H256312   2.333   5.985   3.636  0.2785 -0.1190  0.3579
11633TIP3   OH256313   2.062   0.099   1.210 -0.0966  0.4583 -0.2196
11633TIP3    H156314   1.973   0.064   1.202  0.4244 -0.6127 -1.5119
11633TIP3    H256315   2.061   0.179   1.156 -0.0721  0.0208 -0.8824
11634TIP3   OH256316   4.658   5.963  12.541  0.4681 -0.1389  0.5526
11634TIP3    H156317   4.660   5.966  12.637  0.4979  0.9690  0.5148
11634TIP3    H256318   4.731   5.907  12.517  1.0189  0.3298  1.1370
11635TIP3   OH256319   2.904   2.307  16.551  0.2245  0.0066 -0.5241
11635TIP3    H156320   2.936   2.393  16.526  0.5013  0.3443  0.9296
11635TIP3    H256321   2.872   2.319  16.640 -0.3990 -1.2298 -0.5765
11636TIP3   OH256322   5.381   4.672  10.527  0.4204  0.0154  0.2564
11636TIP3    H156323   5.378   4.664  10.623 -1.9667 -0.8035  0.1768
11636TIP3    H256324   5.437   4.600  10.499  0.2750 -0.4026  1.0110
11637TIP3   OH256325   1.746   2.250   1.929 -0.7236  0.5660 -0.3082
11637TIP3    H156326   1.750   2.270   1.835  2.2561 -0.4811 -0.4388
11637TIP3    H256327   1.836   2.259   1.960 -1.6528  0.7897  2.4600
11638TIP3   OH256328   0.080   2.004   5.459  0.0075 -0.0113  0.1539
11638TIP3    H156329   0.159   2.004   5.405  0.6651  1.4602  1.0817
11638TIP3    H256330   0.111   2.033   5.545 -1.6539  1.1419  0.3647
11639TIP3   OH256331   2.041   4.953   0.758 -0.1482 -0.1427 -0.7468
11639TIP3    H156332   2.125   4.995   0.776  0.5776 -1.2880 -1.4056
11639TIP3    H256333   2.030   4.962   0.663 -0.3131 -0.8388 -0.7941
11640TIP3   OH256334   0.111   4.575  11.733  0.1061  0.0640 -0.5085
11640TIP3    H156335   0.040   4.512  11.721  0.5808 -0.2454 -1.7780
11640TIP3    H256336   0.177   4.528  11.783 -0.4208  0.2444  0.3754
11641TIP3   OH256337   6.157   1.069  12.866 -0.9566  0.0926  0.3953
11641TIP3    H156338   6.219   1.124  12.818  0.3408  0.5059  2.4740
11641TIP3    H256339   6.106   1.025  12.798  0.7662  0.7104 -1.3415
11642TIP3   OH256340   2.671   0.901   0.651  0.0668 -0.6215  0.5207
11642TIP3    H156341   2.709   0.917   0.564 -0.3288 -0.9467  0.2866
11642TIP3    H256342   2.576   0.898   0.636  0.0023 -0.7961  0.9469
11643TIP3   OH256343   1.878   4.385   1.260 -0.5265 -0.4184 -0.8305
11643TIP3    H156344   1.828   4.461   1.292  0.0482  0.0783 -1.1054
11643TIP3    H256345   1.940   4.422   1.198 -0.3744 -1.1485 -1.1112
11644TIP3   OH256346   2.758   2.865   0.482 -0.8445 -0.8963 -0.2807
11644TIP3    H156347   2.732   2.924   0.553 -0.2302  0.7904 -1.4155
11644TIP3    H256348   2.742   2.777   0.516  0.0288 -0.1496  2.1880
11645TIP3   OH256349   5.030   1.143   1.895  0.4025 -0.0813 -0.5569
11645TIP3    H156350   5.021   1.056   1.935  1.4502 -0.1560 -0.4817
11645TIP3    H256351   4.944   1.184   1.908 -0.2756 -1.3164 -1.0952
11646TIP3   OH256352   5.418   1.178  10.316 -0.0995  0.1019 -0.2986
11646TIP3    H156353   5.504   1.169  10.275 -0.2541  0.2638 -0.6532
11646TIP3    H256354   5.413   1.105  10.377 -0.2091 -0.6081 -1.1583
11647TIP3   OH256355   3.384   5.811  13.054  0.5529  0.0145 -0.0239
11647TIP3    H156356   3.310   5.825  13.114 -1.8864  0.2297 -2.9314
11647TIP3    H256357   3.434   5.892  13.058 -1.0094  0.9996 -0.1760
11648TIP3   OH256358   1.694   1.631   3.730 -0.0866  0.8388 -0.4357
11648TIP3    H156359   1.721   1.662   3.816 -0.9135  1.6445 -0.4617
11648TIP3    H256360   1.600   1.618   3.738  0.2075 -1.6122 -0.4440
11649TIP3   OH256361   3.205   0.823   1.481  0.2161  0.0097  0.5032
11649TIP3    H156362   3.114   0.852   1.484  0.9564  2.5000 -0.0165
11649TIP3    H256363   3.241   0.847   1.566  0.5204 -0.5802  0.5479
11650TIP3   OH256364   0.723   2.179  14.062 -0.1549  0.1896 -0.4005
11650TIP3    H156365   0.737   2.151  14.152 -2.2096  2.1896  0.5851
11650TIP3    H256366   0.629   2.165  14.047  0.3966 -1.3617 -2.6971
11651TIP3   OH256367   5.612   6.476  12.993  0.5407  0.1690 -0.4869
11651TIP3    H156368   5.550   6.547  12.978 -0.1140 -0.3308 -0.2228
11651TIP3    H256369   5.559   6.407  13.034  1.3562 -0.1282  0.0652
11652TIP3   OH256370   5.859   3.470  15.501  0.3815 -0.2495 -0.0883
11652TIP3    H156371   5.767   3.461  15.525 -0.0769  1.0780 -1.2677
11652TIP3    H256372   5.878   3.564  15.511  2.0275 -0.7074  1.5583
11653TIP3   OH256373   1.806   6.663  16.714  0.3940 -0.2492  0.2566
11653TIP3    H156374   1.764   6.681  16.630 -0.6613 -1.7789  0.4435
11653TIP3    H256375   1.877   6.603  16.692  1.5908  1.1660  0.1554
11654TIP3   OH256376   0.294   2.559  11.553  0.3731 -0.7660  0.4495
11654TIP3    H156377   0.380   2.518  11.546 -0.0728 -1.7279  0.5869
11654TIP3    H256378   0.292   2.598  11.640  1.5691  1.3125 -0.4226
11655TIP3   OH256379   6.215   2.857  15.576  0.6292  0.3540 -0.1481
11655TIP3    H156380   6.285   2.839  15.514 -1.0477 -0.7883 -1.7788
11655TIP3    H256381   6.187   2.771  15.606 -0.6136  0.7413 -0.1544
11656TIP3   OH256382   2.540   0.719  13.867 -0.3327  0.1714 -0.0798
11656TIP3    H156383   2.465   0.662  13.851 -0.1792  0.1648 -0.7907
11656TIP3    H256384   2.571   0.744  13.779  0.4564  0.2206  0.2081
11657TIP3   OH256385   5.181   1.542   0.465  0.1498 -0.3719  0.4580
11657TIP3    H156386   5.247   1.611   0.459  1.6467 -1.9320 -1.4171
11657TIP3    H256387   5.121   1.560   0.393 -0.4336 -0.0482  1.0177
11658TIP3   OH256388   3.538   1.479  15.365  0.4027  0.2919  0.5575
11658TIP3    H156389   3.614   1.523  15.326  0.0673  1.1739  0.8834
11658TIP3    H256390   3.489   1.549  15.407 -2.6877  0.4186 -2.9904
11659TIP3   OH256391   3.376   4.564   3.439  0.1200  0.1796 -0.0466
11659TIP3    H156392   3.359   4.530   3.527  1.9452 -0.3968  0.1058
11659TIP3    H256393   3.386   4.486   3.384 -2.0008  0.5404 -0.9878
11660TIP3   OH256394   6.471   6.643   5.537 -0.0023 -0.2218 -0.3247
11660TIP3    H156395   6.402   6.707   5.554  1.5312  0.9319  1.6652
11660TIP3    H256396   6.424   6.566   5.505 -2.0113  1.3193 -1.2073
11661TIP3   OH256397   1.843   5.760  11.050 -0.1244  0.0726 -0.6753
11661TIP3    H156398   1.860   5.666  11.057  0.1813  0.2028  0.4340
11661TIP3    H256399   1.835   5.776  10.956 -0.4758 -1.1110 -0.8504
11662TIP3   OH256400   6.017   3.452  14.211 -0.3196  0.1146 -0.3719
11662TIP3    H156401   5.987   3.467  14.300  0.4903  0.6717 -0.1883
11662TIP3    H256402   6.094   3.397  14.220 -1.2993 -1.3713 -0.8461
11663TIP3   OH256403   0.847   4.426  13.769 -0.1570 -0.4779  0.2396
11663TIP3    H156404   0.804   4.342  13.754 -0.3269 -1.2393  4.3897
11663TIP3    H256405   0.918   4.406  13.830  1.9548  1.8899 -1.3222
11664TIP3   OH256406   4.200   4.662   3.905 -0.3570  0.4246  0.3930
11664TIP3    H156407   4.232   4.573   3.888  0.4380  0.5015  1.4377
11664TIP3    H256408   4.166   4.659   3.994 -1.6616  0.8099 -0.0776
11665TIP3   OH256409   3.192   6.672  14.504  0.1948 -0.4934  0.2132
11665TIP3    H156410   3.138   6.680  14.425  0.2783  0.2582  0.2335
11665TIP3    H256411   3.270   6.625  14.475  0.7423  0.7921 -0.3994
11666TIP3   OH256412   4.423   0.265  13.963 -0.5771 -0.1439 -0.1827
11666TIP3    H156413   4.400   0.349  13.922  0.3707 -0.0132 -0.4587
11666TIP3    H256414   4.413   0.201  13.893  0.1780 -0.0442 -0.3872
11667TIP3   OH256415   5.748   0.825   2.436 -0.1320  0.5487 -0.1254
11667TIP3    H156416   5.728   0.888   2.366  0.5622  0.5037 -0.3677
11667TIP3    H256417   5.763   0.879   2.513 -2.7067  0.5201  0.4586
11668TIP3   OH256418   4.559   0.549  17.221 -0.6870 -0.2387 -0.4618
11668TIP3    H156419   4.530   0.597  17.144  0.0336  1.1026  0.0823
11668TIP3    H256420   4.603   0.472  17.186  0.1687  0.6615 -1.4296
11669TIP3   OH256421   1.126   4.736   6.720  0.0637 -0.1089  0.1488
11669TIP3    H156422   1.059   4.784   6.768 -0.1928 -0.2954 -0.0228
11669TIP3    H256423   1.077   4.681   6.658  0.3788 -0.0864 -0.1240
11670TIP3   OH256424   5.684   5.212   4.786 -0.3230 -0.4123 -0.4363
11670TIP3    H156425   5.652   5.138   4.735  1.0152 -1.2316 -0.1039
11670TIP3    H256426   5.698   5.281   4.721 -2.2148 -0.2161 -0.6549
11671TIP3   OH256427   0.957   6.497   0.189  0.5158  0.6148 -0.1834
11671TIP3    H156428   0.989   6.408   0.176  1.1838  0.6407  1.2033
11671TIP3    H256429   1.018   6.536   0.252 -1.1724  1.2594  1.0868
11672TIP3   OH256430   3.253   0.298   4.557  0.0622 -0.3894  0.0442
11672TIP3    H156431   3.291   0.283   4.643 -0.5911 -2.0723  0.0654
11672TIP3    H256432   3.158   0.295   4.572 -0.1145 -4.3905 -1.2605
11673TIP3   OH256433   1.158   1.956  15.583  0.2917 -0.0432 -0.7196
11673TIP3    H156434   1.145   2.037  15.632 -0.4769 -0.3130 -0.4769
11673TIP3    H256435   1.075   1.909  15.591  0.4733 -0.5080 -1.5049
11674TIP3   OH256436   3.444   1.482   5.487 -0.3385  0.0744 -0.0125
11674TIP3    H156437   3.536   1.462   5.466 -0.2713 -2.5265  2.3870
11674TIP3    H256438   3.401   1.396   5.487 -2.5463  1.1628 -0.0640
11675TIP3   OH256439   4.329   4.367   2.873 -0.0152  0.4749  0.1076
11675TIP3    H156440   4.292   4.347   2.787  1.3127 -0.9052 -0.1723
11675TIP3    H256441   4.331   4.282   2.918  2.7721  0.5043  0.1001
11676TIP3   OH256442   4.463   2.635   1.765  0.2602  0.1969  0.0754
11676TIP3    H156443   4.392   2.697   1.750 -0.6998 -0.5870  1.1911
11676TIP3    H256444   4.449   2.605   1.855  1.2136 -0.9684 -0.1511
11677TIP3   OH256445   0.736   3.349   0.973 -0.2796 -0.0523 -0.2803
11677TIP3    H156446   0.662   3.293   0.998 -1.6066  1.2151 -1.2200
11677TIP3    H256447   0.772   3.308   0.895  1.4504 -1.8976  1.4203
11678TIP3   OH256448   3.821   6.136   1.331  0.6900 -0.1294  0.6561
11678TIP3    H156449   3.781   6.124   1.245  0.2156 -0.0458  0.8689
11678TIP3    H256450   3.773   6.076   1.388  0.6302  0.2407  0.9879
11679TIP3   OH256451   0.043   5.682   0.506  0.0236  0.2555 -0.4266
11679TIP3    H156452   0.069   5.720   0.590  0.8863 -1.3596  0.0672
11679TIP3    H256453   0.046   5.755   0.444  1.0406  1.1097  0.6087
11680TIP3   OH256454   0.330   2.798  11.375 -0.2459 -0.2226  0.2371
11680TIP3    H156455   0.265   2.734  11.406 -0.7493 -1.5102 -3.1549
11680TIP3    H256456   0.285   2.844  11.304  0.8696  2.4716  1.2072
11681TIP3   OH256457   1.668   5.764  14.247  0.3620 -0.3495  0.4018
11681TIP3    H156458   1.634   5.811  14.322  0.2814  2.3828 -1.2714
11681TIP3    H256459   1.757   5.798  14.235  1.0964 -2.2008  0.4497
11682TIP3   OH256460   2.382   2.457  17.114  0.1412  0.4842 -0.0912
11682TIP3    H156461   2.472   2.435  17.092  0.1747  0.3934  0.1328
11682TIP3    H256462   2.361   2.533  17.059  0.9716  1.6882  1.2297
11683TIP3   OH256463   4.410   0.510  13.850 -0.0181 -0.0272 -0.2738
11683TIP3    H156464   4.393   0.563  13.928  0.7847 -0.4825  0.2206
11683TIP3    H256465   4.453   0.570  13.789 -0.8206  0.3813 -0.4486
11684TIP3   OH256466   2.074   3.713   4.839  0.1534 -0.3192 -0.2161
11684TIP3    H156467   2.049   3.683   4.927 -2.1215  1.1223 -0.3378
11684TIP3    H256468   2.053   3.639   4.782  0.7642 -0.9080  0.2984
11685TIP3   OH256469   0.134   1.192   0.352 -0.3621 -0.1811 -0.2942
11685TIP3    H156470   0.139   1.258   0.422 -1.8282  0.3466 -0.6616
11685TIP3    H256471   0.125   1.109   0.398 -1.0997  0.1426  0.1581
11686TIP3   OH256472   3.139   1.439  16.192 -0.0969 -0.4197  0.1934
11686TIP3    H156473   3.157   1.394  16.275 -1.2520 -0.8463  0.2189
11686TIP3    H256474   3.149   1.532  16.213  2.1408 -0.6352  0.1780
11687TIP3   OH256475   5.047   6.378   1.742 -0.0563  0.6619  0.3821
11687TIP3    H156476   5.007   6.320   1.677 -0.6946  2.2798 -0.6999
11687TIP3    H256477   4.997   6.460   1.735  0.8410  1.3452  1.8651
11688TIP3   OH256478   4.999   5.809   5.025  0.0038 -0.0319 -0.0047
11688TIP3    H156479   4.959   5.866   4.959  2.0526 -0.4352 -1.6764
11688TIP3    H256480   5.007   5.724   4.981  1.2171 -0.3649  0.8295
11689TIP3   OH256481   0.018   1.881   3.305 -0.1375  0.0088 -0.3660
11689TIP3    H156482  -0.051   1.947   3.299  0.5864  0.9177  0.8670
11689TIP3    H256483   0.078   1.903   3.234  0.2404  0.8598  0.2077
11690TIP3   OH256484   4.526   6.428  12.004 -0.9212  0.4457  0.2564
11690TIP3    H156485   4.566   6.451  12.088 -1.7939 -0.0573  0.8114
11690TIP3    H256486   4.514   6.333  12.008  0.0489  0.2527 -0.8864
11691TIP3   OH256487   0.220   4.065   5.778  0.1957 -0.0462 -0.2936
11691TIP3    H156488   0.156   4.119   5.823  1.1515  1.4914 -0.7520
11691TIP3    H256489   0.186   4.055   5.689 -0.6957 -1.4345  0.1758
11692TIP3   OH256490   3.786   5.815  13.138 -0.3879  0.0274 -0.4011
11692TIP3    H156491   3.803   5.797  13.230  0.4983  1.2724 -0.3038
11692TIP3    H256492   3.869   5.849  13.104 -1.3389  1.7588 -1.0751
11693TIP3   OH256493   5.999   5.658  11.780  0.7415 -0.0235 -0.3587
11693TIP3    H156494   6.023   5.568  11.758 -0.9558 -0.7520  0.6897
11693TIP3    H256495   5.959   5.652  11.866 -2.2821  1.2686 -1.6059
11694TIP3   OH256496   5.345   2.314   2.632 -0.2256 -0.1759 -0.1964
11694TIP3    H156497   5.436   2.321   2.662 -0.2182  4.1475 -0.8873
11694TIP3    H256498   5.353   2.313   2.536 -0.8963  1.6221 -0.2966
11695TIP3   OH256499   0.851   3.311  11.328 -0.5186  0.1605  0.3138
11695TIP3    H156500   0.926   3.371  11.320 -1.4663  1.2206 -0.9322
11695TIP3    H256501   0.794   3.352  11.393 -2.2390  1.8434 -2.1554
11696TIP3   OH256502   4.781   2.116  16.347 -0.1420 -0.0633 -0.4838
11696TIP3    H156503   4.804   2.209  16.343 -1.1709  0.2135 -0.1126
11696TIP3    H256504   4.766   2.098  16.440  0.6299 -0.7529 -0.4818
11697TIP3   OH256505   3.452   3.186  11.996 -0.0594  0.1258  0.0925
11697TIP3    H156506   3.506   3.224  12.065 -0.2652  0.8083 -0.1183
11697TIP3    H256507   3.392   3.127  12.042  1.0888 -0.8870  0.2866
11698TIP3   OH256508   5.245   1.237   3.659 -0.1828 -0.5704 -0.1486
11698TIP3    H156509   5.294   1.167   3.615  0.1461 -0.3876 -0.0706
11698TIP3    H256510   5.165   1.193   3.690 -0.8353 -0.4951 -1.7006
11699TIP3   OH256511   4.320   6.370   0.881 -0.1767 -0.0926 -0.1574
11699TIP3    H156512   4.320   6.450   0.935  1.0134  0.7106 -1.3192
11699TIP3    H256513   4.295   6.301   0.942  1.2683  0.7710  1.4728
11700TIP3   OH256514   6.502   3.084  15.513  0.7108 -0.3475  0.5070
11700TIP3    H156515   6.473   3.114  15.427 -2.4220  0.0337  1.6455
11700TIP3    H256516   6.509   3.164  15.565 -0.4983 -0.8840  1.5005
11701TIP3   OH256517   4.748   1.711   4.160 -0.0921 -0.3352  0.3109
11701TIP3    H156518   4.779   1.786   4.211  0.0965 -0.5897  0.5676
11701TIP3    H256519   4.661   1.738   4.130 -0.0509 -0.0362  0.4558
11702TIP3   OH256520   5.684   0.117  11.121 -0.4700 -0.2544 -0.3014
11702TIP3    H156521   5.609   0.094  11.066  1.4635 -3.5860 -1.6941
11702TIP3    H256522   5.744   0.164  11.063 -0.7423  1.0373  0.4213
11703TIP3   OH256523   5.847   0.799   4.627  0.2269 -0.5071 -0.5340
11703TIP3    H156524   5.886   0.762   4.706  0.1312 -0.3512 -0.4170
11703TIP3    H256525   5.923   0.817   4.570  0.5163  2.0497  0.6339
11704TIP3   OH256526   3.547   4.962  13.839 -0.0400 -0.0638 -1.0882
11704TIP3    H156527   3.518   5.047  13.807 -1.5069 -0.4529 -0.8465
11704TIP3    H256528   3.488   4.943  13.912  0.8867 -0.8627 -0.5301
11705TIP3   OH256529   0.562   0.508   1.468 -0.5770  0.0917  0.0441
11705TIP3    H156530   0.649   0.500   1.428 -0.2569 -0.0706  0.7718
11705TIP3    H256531   0.523   0.584   1.426 -1.1032 -1.3846 -2.2222
11706TIP3   OH256532   3.441   5.430  14.298 -0.0796  0.2437 -0.4591
11706TIP3    H156533   3.489   5.386  14.228  1.2488  1.0257 -0.0508
11706TIP3    H256534   3.437   5.366  14.369  0.9897  0.4293 -0.2294
11707TIP3   OH256535   5.710   3.787   1.011  0.5499 -0.6268  0.3802
11707TIP3    H156536   5.651   3.843   0.961  1.9837  0.3581 -0.2536
11707TIP3    H256537   5.657   3.711   1.034 -0.7065 -0.1811 -0.9389
11708TIP3   OH256538   5.861   4.244   1.608 -0.0838 -0.8494 -0.1262
11708TIP3    H156539   5.874   4.276   1.519  0.2343  1.4931  0.7204
11708TIP3    H256540   5.782   4.289   1.639 -0.0172 -1.4071  0.8844
11709TIP3   OH256541   3.448   6.250  13.828 -0.1066 -0.1188  0.5389
11709TIP3    H156542   3.438   6.333  13.783 -1.0259 -0.1637  0.6582
11709TIP3    H256543   3.483   6.190  13.762  0.8514  0.4345  0.5361
11710TIP3   OH256544   1.975   5.874  11.403 -0.6411  0.0852 -0.8435
11710TIP3    H156545   2.039   5.814  11.366 -0.5305 -0.0174 -0.4893
11710TIP3    H256546   1.919   5.818  11.458 -1.4331  0.0627 -1.6691
11711TIP3   OH256547   0.487   4.977  15.404 -0.1686  0.0325  0.2009
11711TIP3    H156548   0.410   5.032  15.393 -1.5270 -1.5754  1.3734
11711TIP3    H256549   0.465   4.895  15.360  1.0831 -0.2337  0.0591
11712TIP3   OH256550   0.618   1.754   4.855 -0.7760 -0.8231  0.0601
11712TIP3    H156551   0.664   1.755   4.771 -1.8193  2.9583 -0.5355
11712TIP3    H256552   0.686   1.773   4.920 -0.6966  0.4392 -0.3817
11713TIP3   OH256553   5.482   2.952   5.346 -0.2275 -0.5313  0.0355
11713TIP3    H156554   5.502   3.028   5.401  2.9517 -0.6657 -0.8548
11713TIP3    H256555   5.475   2.988   5.257 -0.9233 -0.9776 -0.0929
11714TIP3   OH256556   0.592   5.748  16.621  0.0280  0.9323 -0.3334
11714TIP3    H156557   0.593   5.674  16.683  0.8476  0.8384 -0.4425
11714TIP3    H256558   0.512   5.736  16.571 -0.6707  1.0322  0.7376
11715TIP3   OH256559   5.677   1.833   1.087 -0.1148 -0.2648 -0.0700
11715TIP3    H156560   5.671   1.905   1.149 -0.1972 -0.3825  0.0598
11715TIP3    H256561   5.588   1.799   1.080 -0.2459  0.2008 -0.8022
11716TIP3   OH256562   3.463   4.324  13.761 -0.3194 -0.5247 -0.1706
11716TIP3    H156563   3.457   4.238  13.802  0.0856 -0.7487 -0.5854
11716TIP3    H256564   3.491   4.382  13.832 -1.5291 -0.5484  0.3491
11717TIP3   OH256565   5.168   2.043   5.646 -0.3299 -0.0138  0.1779
11717TIP3    H156566   5.173   2.134   5.616  1.1939 -0.4125 -0.8319
11717TIP3    H256567   5.237   2.034   5.711 -0.8076 -0.3159  0.6501
11718TIP3   OH256568   5.502   0.761  14.056 -0.2549  0.2419 -0.4359
11718TIP3    H156569   5.567   0.705  14.100 -0.7975 -0.4994 -0.5765
11718TIP3    H256570   5.516   0.744  13.963 -1.3053 -0.6685 -0.4392
11719TIP3   OH256571   3.949   0.891  14.276 -0.1456 -0.1691 -0.0603
11719TIP3    H156572   3.968   0.898  14.370  1.4151  1.9979 -0.4939
11719TIP3    H256573   3.905   0.807  14.267 -0.8344 -0.1588  2.6964
11720TIP3   OH256574   0.149   4.122   1.469 -0.5394 -0.7396  0.1132
11720TIP3    H156575   0.210   4.054   1.497 -1.6108 -1.9931 -0.5314
11720TIP3    H256576   0.110   4.087   1.388 -1.3945  0.4584 -0.0054
11721TIP3   OH256577   4.057   6.210   5.618 -0.5045 -0.0937 -0.2573
11721TIP3    H156578   3.969   6.217   5.581  0.3063  2.1377 -1.8830
11721TIP3    H256579   4.082   6.301   5.638  1.7559 -0.6045 -0.6600
11722TIP3   OH256580   5.963   5.289  16.916  0.1438  0.0900  0.1649
11722TIP3    H156581   5.975   5.243  16.999 -0.3451 -1.2366 -0.4876
11722TIP3    H256582   6.034   5.258  16.861  0.1838  0.6028 -0.0768
11723TIP3   OH256583   6.244   1.489   0.388 -0.1901  0.0851  0.8552
11723TIP3    H156584   6.223   1.402   0.355  0.6294  0.5426 -0.9315
11723TIP3    H256585   6.300   1.473   0.463  2.2613 -0.9206 -1.1225
11724TIP3   OH256586   1.759   6.768  12.075 -0.0868 -0.1086 -0.0327
11724TIP3    H156587   1.823   6.696  12.078 -0.5970 -0.6596 -1.6548
11724TIP3    H256588   1.687   6.733  12.022 -0.7593  1.2807 -0.0468
11725TIP3   OH256589   0.086   1.487   3.135 -0.2048  0.0733  0.0790
11725TIP3    H156590   0.009   1.470   3.080  0.3561  0.6603 -0.9083
11725TIP3    H256591   0.153   1.428   3.101  0.9222  2.2183 -1.5761
11726TIP3   OH256592   5.763   5.871  14.546  0.0149 -0.0326  0.4541
11726TIP3    H156593   5.705   5.941  14.577 -0.4020 -0.2432  0.1541
11726TIP3    H256594   5.718   5.790  14.570  0.1309 -0.1979  0.1155
11727TIP3   OH256595   6.163   6.281   5.188  0.1311 -0.2165  0.0525
11727TIP3    H156596   6.171   6.186   5.199 -1.8245 -0.3891  0.0462
11727TIP3    H256597   6.070   6.299   5.197  0.6019  1.8496  1.1177
11728TIP3   OH256598   1.872   1.898  15.742  0.6042 -0.3193  1.1248
11728TIP3    H156599   1.945   1.847  15.776  0.6366  0.1572  1.7616
11728TIP3    H256600   1.910   1.983  15.720  0.3810 -0.2974  0.8240
11729TIP3   OH256601   3.025   5.446   2.897 -0.0415  0.0407  0.0293
11729TIP3    H156602   2.998   5.372   2.951 -1.3095  0.7472  0.4081
11729TIP3    H256603   3.098   5.414   2.845 -0.7545 -1.5439 -0.0036
11730TIP3   OH256604   6.544   0.855   3.528  0.1865  0.9834  0.0672
11730TIP3    H156605   6.587   0.941   3.518 -0.3203  1.2048 -0.2296
11730TIP3    H256606   6.458   0.867   3.487 -0.4193  0.7345  1.2411
11731TIP3   OH256607   2.521   1.852  16.728  0.0799 -0.4554  0.3466
11731TIP3    H156608   2.555   1.885  16.645 -1.5167 -0.1043 -0.1801
11731TIP3    H256609   2.598   1.815  16.772  1.1141  0.1985 -0.8665
11732TIP3   OH256610   4.306   0.080   1.106 -0.4568 -0.2125 -0.2206
11732TIP3    H156611   4.311   0.066   1.200  2.6964  0.0956 -0.2736
11732TIP3    H256612   4.240   0.148   1.095  0.2996  0.9271  1.9401
11733TIP3   OH256613   0.162   1.398   1.043 -0.1512 -0.0350  0.5841
11733TIP3    H156614   0.255   1.398   1.021  0.2358  1.8307  2.1046
11733TIP3    H256615   0.150   1.320   1.097  0.8567  0.5874  1.7046
11734TIP3   OH256616   0.086   0.804  13.710 -0.4641 -0.4647 -0.5167
11734TIP3    H156617   0.107   0.798  13.803 -0.6270  1.3671 -0.3422
11734TIP3    H256618   0.049   0.718  13.688  1.1372 -1.4878  0.6869
11735TIP3   OH256619   5.265   3.104   2.525  0.2617  0.3686  0.3489
11735TIP3    H156620   5.313   3.062   2.597  0.7568  1.9140  0.9360
11735TIP3    H256621   5.221   3.179   2.566 -0.2116  0.7120 -0.7796
11736TIP3   OH256622   4.455   0.793   2.233 -0.2520 -0.2124 -0.5369
11736TIP3    H156623   4.514   0.864   2.208  0.6201 -0.7339  0.0267
11736TIP3    H256624   4.491   0.715   2.191 -0.4781 -0.5545 -0.1003
11737TIP3   OH256625   0.850   5.835  12.473  0.5720  0.2323  0.0835
11737TIP3    H156626   0.912   5.763  12.487  2.2002  1.6730  0.5717
11737TIP3    H256627   0.772   5.794  12.436  0.6818 -2.0486  2.2645
11738TIP3   OH256628   0.801   0.007   3.885  0.2917 -0.8668  0.5406
11738TIP3    H156629   0.791  -0.085   3.860 -1.1458 -0.6305  0.2247
11738TIP3    H256630   0.775   0.056   3.806  3.4489 -0.1881 -0.1753
11739TIP3   OH256631   3.275   2.228  14.951 -0.0817  0.4729 -0.4060
11739TIP3    H156632   3.249   2.143  14.914  2.0477 -0.2264 -0.3506
11739TIP3    H256633   3.251   2.292  14.883  0.4906 -0.4250 -1.4717
11740TIP3   OH256634   4.355   1.440  12.697  0.2796 -0.1555 -0.0662
11740TIP3    H156635   4.409   1.361  12.701  0.8269  0.1776 -0.8119
11740TIP3    H256636   4.386   1.494  12.771  1.0381  0.0784 -0.5514
11741TIP3   OH256637   1.510   2.822   5.992 -0.1780  0.4610 -0.4093
11741TIP3    H156638   1.588   2.869   6.021  0.1776 -0.1232 -0.4038
11741TIP3    H256639   1.447   2.833   6.063  0.1821  0.2541 -0.0599
11742TIP3   OH256640   3.374   1.638  11.444  0.8119  0.4707 -0.0777
11742TIP3    H156641   3.394   1.731  11.451 -1.2394  1.0720 -1.5197
11742TIP3    H256642   3.279   1.635  11.431  1.1474 -1.6533 -2.5353
11743TIP3   OH256643   2.600   6.536   6.009  0.4300 -0.0960 -0.3476
11743TIP3    H156644   2.507   6.540   6.029  0.1554 -1.0206 -1.4090
11743TIP3    H256645   2.613   6.449   5.971  1.8540 -0.2445  0.4537
11744TIP3   OH256646   3.713   4.634   3.834 -0.3218  0.4103  0.0995
11744TIP3    H156647   3.774   4.704   3.856 -0.5492  0.2017  1.4410
11744TIP3    H256648   3.712   4.632   3.739 -1.2721  3.0440  0.0170
11745TIP3   OH256649   5.992   5.207  14.526 -0.0883  0.1615 -0.0947
11745TIP3    H156650   5.900   5.204  14.553 -0.1639  2.2843 -0.0021
11745TIP3    H256651   6.034   5.137  14.574 -1.3389  0.2471  1.1542
11746TIP3   OH256652   6.018   4.203  16.798 -0.0701  0.4920 -0.6426
11746TIP3    H156653   5.960   4.127  16.812  1.2094  0.0293  2.7051
11746TIP3    H256654   6.100   4.165  16.767  1.1188  0.2475  2.6075
11747TIP3   OH256655   4.552   4.853  12.731 -0.0889 -0.1911 -0.4280
11747TIP3    H156656   4.638   4.824  12.764  0.7084  2.0875 -0.4383
11747TIP3    H256657   4.562   4.851  12.635 -0.1965 -0.3450 -0.4360
11748TIP3   OH256658   5.424   4.984  13.241  0.0337 -0.1998  0.4078
11748TIP3    H156659   5.383   4.941  13.317 -0.3847  0.4915  0.5785
11748TIP3    H256660   5.517   4.990  13.265 -0.0953  0.0139  0.8692
11749TIP3   OH256661   2.084   0.108  14.852  0.1430 -0.1274  0.5456
11749TIP3    H156662   2.020   0.156  14.799 -0.5617 -0.8542  0.7281
11749TIP3    H256663   2.167   0.122  14.808 -0.5515 -1.3378 -1.1773
11750TIP3   OH256664   6.052   4.476   1.103  0.0044 -0.8719  0.1820
11750TIP3    H156665   6.128   4.421   1.086  0.2403 -0.0481 -1.5093
11750TIP3    H256666   6.080   4.564   1.077 -0.6877 -0.1029  1.9283
11751TIP3   OH256667   1.091   1.873   1.878 -0.1714 -0.0164  0.2590
11751TIP3    H156668   1.080   1.909   1.966 -0.2919 -0.6566  0.5077
11751TIP3    H256669   1.161   1.809   1.887  0.3104  0.4345 -0.2646
11752TIP3   OH256670   1.774   5.276   2.241  0.0252 -0.3461 -0.0594
11752TIP3    H156671   1.792   5.365   2.211  0.2308  0.0263  1.1087
11752TIP3    H256672   1.861   5.236   2.249  0.0496 -0.1191  0.9477
11753TIP3   OH256673   3.655   4.005  13.231 -0.0108 -0.3052 -0.0493
11753TIP3    H156674   3.635   3.956  13.311  2.0630 -0.8645  0.1599
11753TIP3    H256675   3.726   3.956  13.190  1.8935  2.2679 -0.0109
11754TIP3   OH256676   3.220   5.469   0.884 -0.1343 -0.3174  0.0157
11754TIP3    H156677   3.126   5.449   0.888 -0.6211  1.9279  0.7652
11754TIP3    H256678   3.237   5.485   0.792 -0.6777  0.0489 -0.0253
11755TIP3   OH256679   6.008   5.628   2.272  0.5575  0.1542  0.1790
11755TIP3    H156680   6.019   5.606   2.179  0.4599  0.8155  0.0119
11755TIP3    H256681   6.006   5.543   2.316 -0.8900 -0.2215 -0.5760
11756TIP3   OH256682   1.718   0.555  15.262  0.2017 -0.3209  0.6656
11756TIP3    H156683   1.700   0.640  15.302 -1.1688  1.1314 -2.8518
11756TIP3    H256684   1.808   0.562  15.230  0.5832 -0.7462  1.6149
11757TIP3   OH256685   0.914   5.050  10.786  0.1002 -0.1643 -0.0426
11757TIP3    H156686   0.854   5.118  10.754  0.9726 -0.3633 -2.1912
11757TIP3    H256687   0.872   4.968  10.762  0.6406 -0.3259 -0.4436
11758TIP3   OH256688   3.824   1.462   4.395 -0.8535 -0.2256 -0.0807
11758TIP3    H156689   3.867   1.418   4.469  0.1686  0.6304 -0.1598
11758TIP3    H256690   3.895   1.490   4.338 -1.6847 -2.3748 -2.2901
11759TIP3   OH256691   2.804   6.225   3.630 -0.0766  0.0035 -0.0464
11759TIP3    H156692   2.777   6.134   3.641 -0.8064 -0.0209 -1.8953
11759TIP3    H256693   2.848   6.247   3.712 -0.0156 -1.9717  0.4706
11760TIP3   OH256694   1.660   6.050  14.188  0.0179 -0.1722  0.1043
11760TIP3    H156695   1.634   6.111  14.119 -1.9825 -0.8290  0.2367
11760TIP3    H256696   1.577   6.017  14.222  0.9905 -0.0888  2.6158
11761TIP3   OH256697   4.122   0.487   3.672 -0.0900  0.2964  0.1865
11761TIP3    H156698   4.033   0.517   3.692  0.2219 -0.9941  3.7342
11761TIP3    H256699   4.111   0.426   3.598 -2.2976 -0.6162  1.2378
11762TIP3   OH256700   0.435   1.887   3.575 -0.5690 -0.0218  0.3130
11762TIP3    H156701   0.385   1.847   3.646 -0.6561  1.4228  1.0979
11762TIP3    H256702   0.474   1.814   3.528 -3.1188 -1.1643 -0.0936
11763TIP3   OH256703   1.063   0.747  14.605 -0.8464 -0.1130  0.1951
11763TIP3    H156704   0.985   0.705  14.641 -0.7138 -0.8697 -0.3943
11763TIP3    H256705   1.136   0.705  14.649 -0.7778  1.1757  1.3623
11764TIP3   OH256706   5.514   0.535   4.498 -0.9904 -0.4495 -0.2819
11764TIP3    H156707   5.510   0.442   4.474  2.0336 -0.4454 -1.0368
11764TIP3    H256708   5.537   0.535   4.591 -3.3705 -0.4216  0.3431
11765TIP3   OH256709   3.899   2.527   2.284  0.0755 -0.0630  0.0737
11765TIP3    H156710   3.860   2.504   2.369  2.4333  0.0782  1.2243
11765TIP3    H256711   3.824   2.548   2.228 -1.5872 -1.3350  1.7614
11766TIP3   OH256712   2.184   6.743   4.267  0.3276 -0.5194 -0.0191
11766TIP3    H156713   2.112   6.681   4.253  0.3498 -0.0211 -2.6113
11766TIP3    H256714   2.157   6.822   4.219  2.0870  0.0727 -0.0619
11767TIP3   OH256715   4.069   4.279   3.031  0.1037 -0.3062  0.1989
11767TIP3    H156716   4.119   4.252   3.108 -0.3359  0.4452  0.7570
11767TIP3    H256717   4.134   4.292   2.962  0.6502  0.4295  0.8521
11768TIP3   OH256718   5.958   3.830  14.779  0.1665 -0.0056  0.0229
11768TIP3    H156719   6.015   3.889  14.828  0.6425 -0.0096 -0.5280
11768TIP3    H256720   5.938   3.877  14.698 -0.2201 -0.2075 -0.0000
11769TIP3   OH256721   2.591   1.870  11.038 -0.5584  0.1318  0.1978
11769TIP3    H156722   2.532   1.812  11.086 -0.3329 -0.1711  0.1124
11769TIP3    H256723   2.679   1.838  11.059 -0.2138  2.7999  3.2557
11770TIP3   OH256724   0.420   6.485  11.507  0.1534 -0.2463  0.2351
11770TIP3    H156725   0.339   6.437  11.526 -0.8093  1.3964  0.4278
11770TIP3    H256726   0.465   6.492  11.591  0.1270 -0.4876  0.2715
11771TIP3   OH256727   2.765   2.610  14.868  0.1982 -0.1782  0.0571
11771TIP3    H156728   2.722   2.538  14.915  0.6627  0.5219  1.6011
11771TIP3    H256729   2.851   2.618  14.910  1.6532 -1.1919 -2.6365
11772TIP3   OH256730   4.529   3.940   2.271  0.2839 -0.0346  0.3925
11772TIP3    H156731   4.575   3.859   2.296  0.3704  0.1035  0.6793
11772TIP3    H256732   4.572   4.009   2.322  2.4981  0.7134 -2.3665
11773TIP3   OH256733   2.713   4.749  10.955 -0.5841 -0.3198  0.3853
11773TIP3    H156734   2.708   4.767  10.862 -1.3164 -2.0058  0.0773
11773TIP3    H256735   2.653   4.675  10.969  0.3899 -0.8562  1.9703
11774TIP3   OH256736   4.039   0.338  13.774 -0.0476 -0.5148  0.3688
11774TIP3    H156737   4.065   0.286  13.850  1.3874  0.9785  0.9394
11774TIP3    H256738   4.114   0.334  13.715  0.1060  0.9445  0.4472
11775TIP3   OH256739   5.650   5.131   3.356 -0.0381  0.0062  0.7275
11775TIP3    H156740   5.720   5.142   3.420 -0.1536 -0.6456  0.9690
11775TIP3    H256741   5.644   5.216   3.312  2.0024 -0.4156 -0.4363
11776TIP3   OH256742   2.637   1.217   5.763 -0.4492  0.7963 -0.2610
11776TIP3    H156743   2.664   1.226   5.855  0.0272 -0.8506 -0.2151
11776TIP3    H256744   2.555   1.168   5.767  0.7577 -1.3252 -0.8060
11777TIP3   OH256745   6.242   3.678   1.797  0.5703  0.2232 -0.5432
11777TIP3    H156746   6.286   3.664   1.713  1.0254 -0.7085 -0.1576
11777TIP3    H256747   6.198   3.763   1.788  1.2598  0.4874 -1.4460
11778TIP3   OH256748   2.107   5.127   3.432 -0.1776  0.1074 -0.0496
11778TIP3    H156749   2.040   5.140   3.366 -1.5536  0.2818  1.3433
11778TIP3    H256750   2.098   5.202   3.490  2.0502  0.7606 -0.5309
11779TIP3   OH256751   3.478   3.225  10.485 -0.8121  0.0698 -0.1281
11779TIP3    H156752   3.512   3.261  10.402  3.0378  0.9755  1.7113
11779TIP3    H256753   3.510   3.135  10.486 -1.5132 -0.1797  0.0509
11780TIP3   OH256754   0.884   3.964  11.757 -0.8595 -0.1292 -0.2860
11780TIP3    H156755   0.954   3.916  11.714 -0.8774 -0.6660  0.2919
11780TIP3    H256756   0.876   3.925  11.844 -2.7329 -0.9302 -0.7872
11781TIP3   OH256757   4.667   1.236   3.072 -0.1333  0.3866  0.4111
11781TIP3    H156758   4.672   1.141   3.061  0.1196  0.1584  2.2639
11781TIP3    H256759   4.579   1.259   3.042 -0.2652 -0.4537  0.1356
11782TIP3   OH256760   1.066   0.460  10.998  0.0219 -0.1069  0.4629
11782TIP3    H156761   1.051   0.517  11.073  1.8593 -0.6133  1.2477
11782TIP3    H256762   0.992   0.477  10.940 -1.2075  0.6210  2.1741
11783TIP3   OH256763   4.904   3.275   3.982  0.1795  0.2134  0.1866
11783TIP3    H156764   4.855   3.264   3.900 -1.5810  0.3133  1.1973
11783TIP3    H256765   4.942   3.363   3.976 -0.2120  0.3437 -0.3781
11784TIP3   OH256766   4.941   5.366  15.422  0.0286  0.7823  0.1973
11784TIP3    H156767   4.992   5.432  15.373  0.0610 -0.3448 -1.3121
11784TIP3    H256768   4.977   5.282  15.393 -3.2464 -0.0909 -1.5820
11785TIP3   OH256769   0.767   3.252  16.177 -0.5545  0.0645 -0.1730
11785TIP3    H156770   0.789   3.170  16.133 -0.9743 -0.4208  0.5347
11785TIP3    H256771   0.793   3.320  16.114 -0.2841 -0.6038 -0.7870
11786TIP3   OH256772   5.078   6.706  12.277  0.0176  0.4062 -0.3377
11786TIP3    H156773   5.085   6.770  12.206 -1.2040  1.1072  0.1533
11786TIP3    H256774   5.120   6.749  12.351  2.6305 -0.9204 -0.9876
11787TIP3   OH256775   5.446   6.771   2.458 -0.4226  0.0708  0.1505
11787TIP3    H156776   5.529   6.815   2.444 -0.3931  0.2687  0.9132
11787TIP3    H256777   5.469   6.690   2.504 -0.6145 -0.0703 -0.0007
11788TIP3   OH256778   5.674   4.915  15.047 -0.4222  0.2041  0.0077
11788TIP3    H156779   5.581   4.939  15.057  0.0143  1.2077  2.0064
11788TIP3    H256780   5.721   4.991  15.080  1.1516  0.0714 -1.8630
11789TIP3   OH256781   5.322   3.089   1.679 -0.3547 -0.0745 -1.0246
11789TIP3    H156782   5.267   3.116   1.605  0.5314 -1.6155 -2.2904
11789TIP3    H256783   5.383   3.162   1.691 -1.9242  1.1600 -0.3328
11790TIP3   OH256784   5.453   4.129   0.179 -0.3586 -0.2978  0.0831
11790TIP3    H156785   5.408   4.091   0.255 -1.4371  0.4104 -0.2025
11790TIP3    H256786   5.525   4.179   0.217 -1.8669  1.4206  0.7690
11791TIP3   OH256787   4.689   4.477  13.160 -0.2882  0.3741  0.1851
11791TIP3    H156788   4.760   4.432  13.114 -0.0353  1.4699 -0.4997
11791TIP3    H256789   4.681   4.430  13.244  0.8117 -0.1512 -0.0023
11792TIP3   OH256790   0.663   0.589  12.663 -0.2349  0.3706  0.0079
11792TIP3    H156791   0.673   0.526  12.735 -1.2046  0.7751  0.4997
11792TIP3    H256792   0.688   0.540  12.585  1.4267  0.0984  0.6835
11793TIP3   OH256793   5.104   3.288  12.048 -0.0441 -0.2076 -0.1544
11793TIP3    H156794   5.189   3.250  12.069 -0.1505 -0.1450  0.4060
11793TIP3    H256795   5.060   3.296  12.133  0.1083  1.4604 -0.2087
11794TIP3   OH256796   2.962   1.150   1.351  0.2100  0.0718 -0.0855
11794TIP3    H156797   2.967   1.220   1.416 -0.7650  0.5806 -0.5512
11794TIP3    H256798   3.045   1.103   1.361 -0.1645 -0.2125  1.9208
11795TIP3   OH256799   2.179   2.221  16.406  0.0096 -0.3613  0.3115
11795TIP3    H156800   2.265   2.228  16.363 -1.0539 -0.4123 -1.8881
11795TIP3    H256801   2.163   2.126  16.411 -2.3807 -0.3818 -4.5237
11796TIP3   OH256802   3.337   1.580   4.220 -0.6872  0.3665 -0.0988
11796TIP3    H156803   3.317   1.672   4.202  0.1414  0.3502 -1.1526
11796TIP3    H256804   3.418   1.583   4.270 -1.2028  0.2518  0.7479
11797TIP3   OH256805   1.348   5.120   5.218 -0.5196 -0.6928  0.2669
11797TIP3    H156806   1.316   5.131   5.308  0.3170  0.8546  0.4008
11797TIP3    H256807   1.346   5.208   5.182 -1.0918 -1.3512 -1.3384
11798TIP3   OH256808   2.628   4.735   2.671  0.1294  0.2232 -0.1261
11798TIP3    H156809   2.658   4.660   2.620 -0.1176 -0.0121  0.0719
11798TIP3    H256810   2.669   4.724   2.757  0.9734  0.9045 -0.4356
11799TIP3   OH256811   5.657   5.914  13.655 -0.9332 -0.2895 -0.0284
11799TIP3    H156812   5.634   5.870  13.737 -2.2021 -1.1710 -0.8399
11799TIP3    H256813   5.573   5.926  13.610 -0.3826  1.3087 -0.6426
11800TIP3   OH256814   0.658   3.087   2.479  0.3316 -0.0746  0.0498
11800TIP3    H156815   0.753   3.097   2.466  0.3352  0.7320  0.6860
11800TIP3    H256816   0.644   2.992   2.477  0.7852 -0.1337 -2.5515
11801TIP3   OH256817   3.029   0.218  14.934 -0.1747 -0.0379 -0.4115
11801TIP3    H156818   3.020   0.127  14.907 -0.0863 -0.4935  1.0362
11801TIP3    H256819   3.005   0.269  14.857 -0.4070 -1.2863 -1.1714
11802TIP3   OH256820   3.675   3.929  16.921 -0.4319  0.3471  0.1554
11802TIP3    H156821   3.695   3.907  17.012  1.1664 -1.3563 -0.5969
11802TIP3    H256822   3.583   3.905  16.911 -0.2018 -0.8996  0.9061
11803TIP3   OH256823   5.789   5.135  15.126  0.1438  0.5737  0.1476
11803TIP3    H156824   5.863   5.099  15.175 -0.8519 -0.8772  0.5964
11803TIP3    H256825   5.779   5.224  15.160  0.8861  0.3514  0.9685
11804TIP3   OH256826   2.358   0.715   2.282  0.3169  0.5953  0.1049
11804TIP3    H156827   2.425   0.780   2.261 -0.6414  1.4650 -0.2670
11804TIP3    H256828   2.299   0.760   2.342 -2.6504  1.4631 -3.3028
11805TIP3   OH256829   2.077   0.297   2.799  0.0783 -0.0941  0.0064
11805TIP3    H156830   1.985   0.312   2.818 -0.2354 -1.0306 -0.7168
11805TIP3    H256831   2.111   0.383   2.774 -0.7465  0.1271 -0.3584
11806TIP3   OH256832   4.480   2.348   3.881 -0.8616 -0.2922 -0.2264
11806TIP3    H156833   4.438   2.313   3.959 -0.0952  0.3347  0.4883
11806TIP3    H256834   4.511   2.271   3.833  0.1076 -0.6342  0.9200
11807TIP3   OH256835   1.655   3.542   5.493  0.2352  0.2904 -0.0979
11807TIP3    H156836   1.612   3.467   5.534  0.5001 -2.1635 -4.1389
11807TIP3    H256837   1.748   3.521   5.496  0.2988  0.3742 -1.4354
11808TIP3   OH256838   4.458   0.374   4.800 -0.2155  0.3964  0.0027
11808TIP3    H156839   4.424   0.293   4.837  0.4952  1.0323  2.1341
11808TIP3    H256840   4.381   0.423   4.771 -0.7393 -0.3981  0.0574
11809TIP3   OH256841   5.781   2.461  14.095  0.5601 -0.1957  0.5313
11809TIP3    H156842   5.741   2.392  14.148 -0.5617  0.6041  0.7417
11809TIP3    H256843   5.759   2.437  14.005  0.1309 -0.0891  0.6067
11810TIP3   OH256844   4.129   4.261  16.196 -0.5635  0.0539  0.3540
11810TIP3    H156845   4.177   4.342  16.213  2.0380 -1.5796  1.1141
11810TIP3    H256846   4.175   4.221  16.123 -1.9412 -0.6778 -0.1336
11811TIP3   OH256847   1.939   1.221   1.467  0.5331  0.4621 -0.2404
11811TIP3    H156848   1.918   1.127   1.464  1.6260  0.2173 -0.3520
11811TIP3    H256849   1.855   1.263   1.486 -0.2230 -0.4383 -1.4729
11812TIP3   OH256850   4.903   0.392  15.585 -0.2302 -0.5192  0.5638
11812TIP3    H156851   4.854   0.354  15.658  1.4268 -0.7901  1.5760
11812TIP3    H256852   4.953   0.464  15.625  0.2490 -0.3063 -0.4093
11813TIP3   OH256853   2.964   3.062   5.745  0.1049  0.2390 -0.6000
11813TIP3    H156854   3.043   3.112   5.763  0.5129  0.0636 -1.8174
11813TIP3    H256855   2.940   3.087   5.655 -0.0855 -1.2000 -0.9578
11814TIP3   OH256856   3.699   2.636  13.281 -0.2354 -0.0380 -0.8021
11814TIP3    H156857   3.678   2.708  13.222  1.3131  1.9256  0.9995
11814TIP3    H256858   3.617   2.587  13.289 -2.1376  3.1575  0.1853
11815TIP3   OH256859   1.117   6.706  13.711 -0.1865  0.4754 -0.0472
11815TIP3    H156860   1.069   6.696  13.629  1.3790 -1.0831 -0.8025
11815TIP3    H256861   1.205   6.734  13.683  0.7868 -1.4827  0.9888
11816TIP3   OH256862   0.875   0.506   1.549 -0.0542 -0.0410 -0.4509
11816TIP3    H156863   0.885   0.502   1.454 -1.1896 -0.4772 -0.5673
11816TIP3    H256864   0.902   0.595   1.573 -0.2729  0.2482 -1.2551
11817TIP3   OH256865   3.567   5.679  13.502  0.0630  0.1805  0.3287
11817TIP3    H156866   3.661   5.676  13.520 -0.3099 -2.7998  2.0493
11817TIP3    H256867   3.556   5.629  13.421 -0.3889 -2.3672  1.9262
11818TIP3   OH256868   1.680   5.467   3.304  0.5792  0.2577 -0.1161
11818TIP3    H156869   1.664   5.556   3.273 -0.0132  0.2413  0.1370
11818TIP3    H256870   1.595   5.424   3.301  0.8038 -0.2138  0.0515
11819TIP3   OH256871   3.985   2.808   1.805  0.1704  0.2461 -0.0425
11819TIP3    H156872   3.968   2.714   1.800  0.9092  0.0808  0.5348
11819TIP3    H256873   3.901   2.848   1.783 -0.6650 -0.5611  1.6065
11820TIP3   OH256874   3.238   5.449   5.934  0.1804  0.2140  0.5760
11820TIP3    H156875   3.241   5.540   5.966 -0.6628  1.4593 -2.7037
11820TIP3    H256876   3.145   5.429   5.927  0.3287  0.2249 -1.6883
11821TIP3   OH256877   3.310   4.532   4.738  0.2134  0.5498 -0.0483
11821TIP3    H156878   3.351   4.446   4.750  0.3049  0.4797 -0.8194
11821TIP3    H256879   3.284   4.559   4.826 -0.4117 -0.5636  0.1187
11822TIP3   OH256880   4.051   4.825   0.207  0.3064 -0.1496  0.2698
11822TIP3    H156881   4.018   4.915   0.216 -1.1457 -0.6591  0.2315
11822TIP3    H256882   4.063   4.796   0.297 -0.9385 -0.5107  0.3346
11823TIP3   OH256883   1.153   2.165   0.542  0.3417  0.1887  0.4161
11823TIP3    H156884   1.244   2.144   0.562  0.5704  0.8653  0.1102
11823TIP3    H256885   1.105   2.083   0.556  1.3259 -0.7574 -1.4772
11824TIP3   OH256886   1.918   5.745  16.971 -0.1329 -0.4738  0.0996
11824TIP3    H156887   1.865   5.700  16.906 -0.8249  0.2012  0.1906
11824TIP3    H256888   1.955   5.674  17.024  0.6950 -1.0437 -1.2073
11825TIP3   OH256889   6.196   0.331  10.980 -0.1125 -0.4096  0.1148
11825TIP3    H156890   6.179   0.237  10.970 -0.2440 -0.3653 -0.0823
11825TIP3    H256891   6.180   0.368  10.893 -1.0826 -0.0501  0.4453
11826TIP3   OH256892   0.254   2.754   0.372  0.1957  0.3369  0.5426
11826TIP3    H156893   0.221   2.672   0.336  0.9104 -1.0640  2.9854
11826TIP3    H256894   0.199   2.772   0.448  1.2229  1.1455  1.1213
11827TIP3   OH256895   6.491   5.318   1.592 -0.4829 -0.2031  0.1902
11827TIP3    H156896   6.537   5.401   1.606 -0.5385  0.0183 -0.8937
11827TIP3    H256897   6.529   5.283   1.512  0.8374 -2.1387  1.6184
11828TIP3   OH256898   1.246   0.357  15.588 -0.0172  0.1729 -0.0193
11828TIP3    H156899   1.160   0.397  15.579  0.1046  0.6011  0.6616
11828TIP3    H256900   1.248   0.288  15.522 -0.6974  0.4808 -0.3638
11829TIP3   OH256901   6.006   1.164   2.602 -0.0776  0.0963  0.0091
11829TIP3    H156902   5.912   1.146   2.609 -0.2207  0.9212  0.3452
11829TIP3    H256903   6.046   1.105   2.666 -0.4469  0.3359  0.4698
11830TIP3   OH256904   0.045   2.372  13.180 -0.2771 -0.2070  0.2440
11830TIP3    H156905  -0.031   2.335  13.224 -1.1506  0.0882 -0.9983
11830TIP3    H256906   0.045   2.464  13.206 -0.2812 -0.2290  0.3233
11831TIP3   OH256907   3.035   1.365  15.040 -0.5672 -0.2665 -0.2085
11831TIP3    H156908   3.116   1.335  15.083 -1.7206 -2.6964  0.3923
11831TIP3    H256909   3.064   1.430  14.977  1.5695  0.8671  1.8698
11832TIP3   OH256910   1.201   1.848  11.308  0.2809  0.1592 -0.4093
11832TIP3    H156911   1.269   1.782  11.320  0.6432 -0.0099 -3.0964
11832TIP3    H256912   1.249   1.927  11.281 -0.3565  0.8382  0.4062
11833TIP3   OH256913   1.893   1.488   3.587  0.5328  0.6590 -0.0886
11833TIP3    H156914   1.835   1.539   3.645 -2.1974 -0.1870 -1.9785
11833TIP3    H256915   1.981   1.509   3.618 -0.7672  1.2311  3.5458
11834TIP3   OH256916   3.210   6.165  12.541 -0.2109 -0.4577  0.4032
11834TIP3    H156917   3.249   6.246  12.574  1.1217 -0.6351 -0.6681
11834TIP3    H256918   3.136   6.194  12.488 -0.3445  0.0019  0.8340
11835TIP3   OH256919   0.199   4.386   1.701 -0.0208  0.0214 -0.1084
11835TIP3    H156920   0.234   4.388   1.612  1.0292  1.2104  0.3255
11835TIP3    H256921   0.252   4.320   1.746 -0.1362 -0.1266 -0.1884
11836TIP3   OH256922   0.983   4.561  11.786 -0.1665  0.6809  0.9546
11836TIP3    H156923   0.956   4.638  11.836  0.6123  1.1416  0.6853
11836TIP3    H256924   0.901   4.519  11.759 -0.5912  1.2883  1.2910
11837TIP3   OH256925   6.305   5.996  13.000  0.0792  0.1651  0.1399
11837TIP3    H156926   6.245   6.060  12.961 -1.4953  0.0555  2.2293
11837TIP3    H256927   6.377   5.988  12.938 -1.9657  0.4952 -2.3701
11838TIP3   OH256928   1.914   6.312   4.774 -0.6785  0.3745  0.0957
11838TIP3    H156929   1.863   6.267   4.841 -1.5939  0.2101 -0.6941
11838TIP3    H256930   1.875   6.282   4.691 -0.0108  1.1007 -0.4804
11839TIP3   OH256931   3.948   3.000  12.692  0.2746 -0.2631 -0.1544
11839TIP3    H156932   3.983   3.057  12.624 -2.8506  1.1753 -0.6461
11839TIP3    H256933   3.917   2.923  12.645  1.6704 -1.0425  0.1552
11840TIP3   OH256934   2.009   4.547   1.839  0.7443  0.1139 -0.6006
11840TIP3    H156935   2.091   4.549   1.789 -0.2628 -0.1866 -2.3019
11840TIP3    H256936   1.968   4.631   1.822  1.5414  1.0242  1.7570
11841TIP3   OH256937   4.356   0.823   1.362  0.3901  0.5485 -0.1221
11841TIP3    H156938   4.396   0.875   1.293 -0.3572  1.7569  0.3287
11841TIP3    H256939   4.428   0.801   1.421  0.7125  1.0898 -0.3121
11842TIP3   OH256940   1.425   2.303   3.763  0.9243  0.0408 -0.4589
11842TIP3    H156941   1.506   2.352   3.781  0.5750  1.0261 -1.4878
11842TIP3    H256942   1.438   2.267   3.675  1.6113 -2.6619  0.6983
11843TIP3   OH256943   2.328   1.167   3.599  0.1005 -0.1714 -0.4591
11843TIP3    H156944   2.238   1.174   3.566  0.0504  2.1723  0.1032
11843TIP3    H256945   2.349   1.074   3.591 -2.0097 -0.5887 -1.5532
11844TIP3   OH256946   3.373   1.625   2.435 -0.3361  0.2952  0.2088
11844TIP3    H156947   3.390   1.621   2.529 -1.4364  0.8006  0.4455
11844TIP3    H256948   3.451   1.665   2.398  0.2636 -0.2604  0.8641
11845TIP3   OH256949   2.336   2.776   2.560 -0.2080  0.2713 -0.0525
11845TIP3    H156950   2.354   2.795   2.467 -0.7213 -1.2513 -0.4687
11845TIP3    H256951   2.244   2.800   2.571 -0.1724  0.3647  0.0383
11846TIP3   OH256952   3.419   4.600  13.339  0.1111  0.1807  0.2672
11846TIP3    H156953   3.436   4.561  13.425  0.9648  0.8849  0.4262
11846TIP3    H256954   3.415   4.525  13.280 -2.0445 -0.4387  1.1428
11847TIP3   OH256955   1.099   3.420   0.247  0.1565 -0.2624  0.2153
11847TIP3    H156956   1.009   3.452   0.240  0.9968  2.2717  0.5397
11847TIP3    H256957   1.098   3.335   0.202 -2.5509 -0.6277  0.8562
11848TIP3   OH256958   0.428   6.194  12.156  0.2425 -0.4359  0.0250
11848TIP3    H156959   0.453   6.134  12.226 -0.3305 -0.0877  0.5310
11848TIP3    H256960   0.502   6.254  12.148  0.6307 -0.9427 -0.1819
11849TIP3   OH256961   5.088   3.599   5.011  0.8308  0.0651  0.3277
11849TIP3    H156962   5.165   3.549   5.038  0.3853 -1.1668 -0.6603
11849TIP3    H256963   5.117   3.648   4.934  0.0869 -1.9936 -1.3250
11850TIP3   OH256964   4.859   2.596  16.720 -0.2014  0.4937  0.0533
11850TIP3    H156965   4.859   2.611  16.814 -0.6873  2.0428 -0.1753
11850TIP3    H256966   4.778   2.638  16.689  0.3238  0.6473 -1.1390
11851TIP3   OH256967   4.285   0.381  12.016 -0.0179 -0.2361  0.2928
11851TIP3    H156968   4.376   0.356  12.034  0.3031  0.8110  0.1469
11851TIP3    H256969   4.253   0.416  12.099  0.1431  0.6695 -0.0241
11852TIP3   OH256970   3.356   6.511  14.356  0.1444  0.2146  0.4702
11852TIP3    H156971   3.287   6.469  14.305 -0.1566 -0.0685  1.1093
11852TIP3    H256972   3.436   6.498  14.304 -0.0084 -0.8382  0.4914
11853TIP3   OH256973   5.179   6.711   4.358  0.2866  0.4559 -0.2092
11853TIP3    H156974   5.088   6.724   4.331  0.5116 -2.0345 -2.4426
11853TIP3    H256975   5.228   6.710   4.276  2.1546  0.5751  0.8939
11854TIP3   OH256976   0.264   4.277   3.999  0.0991  0.4309 -0.5872
11854TIP3    H156977   0.176   4.306   4.024  0.3818  1.5490 -0.8986
11854TIP3    H256978   0.321   4.310   4.069  0.2796 -0.2815 -0.3924
11855TIP3   OH256979   2.376   3.537  15.476  0.1935 -0.1883 -0.4548
11855TIP3    H156980   2.304   3.485  15.511 -0.0427 -0.7642 -1.7667
11855TIP3    H256981   2.444   3.473  15.454  0.3998  0.1667 -0.8805
11856TIP3   OH256982   0.419   0.747  10.790  0.4931  0.0451 -0.2187
11856TIP3    H156983   0.391   0.785  10.706  1.8781 -1.5445 -1.4407
11856TIP3    H256984   0.477   0.813  10.827  0.6100  0.3721 -0.9588
11857TIP3   OH256985   1.369   4.358  15.561  0.2735  0.0978 -0.0517
11857TIP3    H156986   1.355   4.429  15.624 -0.4843 -0.4637  0.4306
11857TIP3    H256987   1.300   4.294  15.582 -1.3976  0.8749 -2.8623
11858TIP3   OH256988   1.713   3.413   1.615  0.0717  0.2869 -0.4850
11858TIP3    H156989   1.691   3.410   1.708  1.0319 -0.1451 -0.2624
11858TIP3    H256990   1.665   3.489   1.581 -2.6839 -1.3262 -0.2889
11859TIP3   OH256991   3.702   4.704   5.703 -0.4240 -0.8401  0.0168
11859TIP3    H156992   3.695   4.705   5.608 -1.3317 -0.3022  0.0805
11859TIP3    H256993   3.780   4.756   5.722  0.2598 -1.6912 -0.4714
11860TIP3   OH256994   2.448   6.387  14.756  0.2679 -0.4153  0.1862
11860TIP3    H156995   2.498   6.456  14.713  0.3489 -0.5997 -0.0198
11860TIP3    H256996   2.357   6.412  14.744  0.1394 -2.1861 -3.0703
11861TIP3   OH256997   0.498   0.688  11.436 -0.3096 -0.0612 -0.3566
11861TIP3    H156998   0.410   0.685  11.399  0.7738  1.0547 -3.2063
11861TIP3    H256999   0.529   0.598  11.432 -0.7736 -0.2052 -0.8346
11862TIP3   OH257000   4.487   4.822   2.992  0.2277  0.6368  0.6180
11862TIP3    H157001   4.505   4.748   2.934  1.3673  0.9321  0.5838
11862TIP3    H257002   4.469   4.782   3.077  0.1514  0.2786  0.4331
11863TIP3   OH257003   4.034   5.727   3.130  0.4933 -0.5594 -0.6964
11863TIP3    H157004   4.001   5.713   3.218 -2.5932 -0.0661 -1.7274
11863TIP3    H257005   4.116   5.775   3.143  1.2477 -2.4520  1.9458
11864TIP3   OH257006   2.978   4.338  11.484 -0.4776  0.8727 -0.2395
11864TIP3    H157007   3.017   4.367  11.402 -0.1452 -2.3416 -1.2973
11864TIP3    H257008   3.000   4.407  11.547  2.5255  1.6083 -1.9869
11865TIP3   OH257009   1.414   5.922   1.178  0.0195  0.1983  0.1035
11865TIP3    H157010   1.404   5.839   1.132 -1.2748 -0.3953  1.3899
11865TIP3    H257011   1.341   5.923   1.240 -0.1168  2.4057 -0.0514
11866TIP3   OH257012   6.114   6.643   1.795  0.3649 -0.2651  0.1917
11866TIP3    H157013   6.147   6.600   1.874  1.1628  0.6209  0.3528
11866TIP3    H257014   6.096   6.733   1.822  1.2999  0.2313 -0.7873
11867TIP3   OH257015   2.401   6.355   4.937  0.2475 -0.2804 -0.4048
11867TIP3    H157016   2.417   6.341   5.030  2.7212  0.7110 -0.6490
11867TIP3    H257017   2.363   6.273   4.906  0.3870 -0.9713  1.2533
11868TIP3   OH257018   0.989   5.934   5.064 -0.3938 -0.5714 -0.5992
11868TIP3    H157019   0.993   5.998   5.136  3.3725 -0.0203 -1.2123
11868TIP3    H257020   0.994   5.849   5.107 -3.0780 -0.4744  0.0480
11869TIP3   OH257021   6.563   4.021   2.250  0.2171  0.0903 -0.8505
11869TIP3    H157022   6.591   3.930   2.243  0.7798  0.2246 -0.4431
11869TIP3    H257023   6.493   4.030   2.185 -1.5149 -1.2512  0.7951
11870TIP3   OH257024   2.552   0.276  15.964 -0.5287 -0.1401 -0.1465
11870TIP3    H157025   2.467   0.270  16.007 -1.3063 -1.5766 -1.7873
11870TIP3    H257026   2.568   0.370  15.955 -1.2626  0.1472  1.4624
11871TIP3   OH257027   5.805   1.386  12.883 -0.3197 -0.0945 -0.7306
11871TIP3    H157028   5.826   1.409  12.792  0.5797 -1.8436 -0.9955
11871TIP3    H257029   5.721   1.340  12.877  1.8283 -4.1558 -1.3076
11872TIP3   OH257030   6.122   5.480  12.381  0.5468 -0.6235 -0.2082
11872TIP3    H157031   6.191   5.423  12.412  1.2585  0.3716  0.0606
11872TIP3    H257032   6.084   5.434  12.306  2.2570 -0.6475 -1.0741
11873TIP3   OH257033   0.271   5.534  11.262 -0.9694  0.4338 -0.0401
11873TIP3    H157034   0.306   5.619  11.289 -1.9125  0.7911  0.0592
11873TIP3    H257035   0.244   5.546  11.171  2.4596 -0.8500 -1.3371
11874TIP3   OH257036   4.461   2.232   4.376  0.3957  0.1775  0.0556
11874TIP3    H157037   4.402   2.278   4.436  0.9992 -1.7600  2.1534
11874TIP3    H257038   4.549   2.253   4.408  0.6738 -2.4745  1.0908
11875TIP3   OH257039   3.155   6.272  16.501 -0.0044 -0.1408 -0.0039
11875TIP3    H157040   3.096   6.238  16.434 -0.1298  1.0450 -0.5072
11875TIP3    H257041   3.242   6.260  16.465  0.0480 -1.4696  0.5420
11876TIP3   OH257042   6.405   1.306  15.479  0.2057 -0.0722  0.5909
11876TIP3    H157043   6.333   1.245  15.463 -0.3714  0.9949 -0.9852
11876TIP3    H257044   6.440   1.326  15.392  0.7212  1.4436  1.1382
11877TIP3   OH257045   1.949   6.199   3.401 -0.2858  0.3301  0.0321
11877TIP3    H157046   1.885   6.171   3.335 -1.5455 -0.0073  1.3774
11877TIP3    H257047   1.972   6.288   3.376 -0.8842  0.2677 -0.7641
11878TIP3   OH257048   1.140   5.585   4.058 -0.9648  0.0963 -0.6388
11878TIP3    H157049   1.046   5.580   4.040 -0.8667  3.1104 -2.4034
11878TIP3    H257050   1.180   5.526   3.994 -1.5179  0.6476 -1.5088
11879TIP3   OH257051   4.667   2.175  12.975 -0.5601  0.0516 -0.2205
11879TIP3    H157052   4.574   2.185  12.952 -1.1518  0.0472  1.9731
11879TIP3    H257053   4.668   2.098  13.032  0.5304  1.0272  1.1014
11880TIP3   OH257054   1.932   4.267   4.930  0.2942  0.1712  0.4094
11880TIP3    H157055   1.891   4.186   4.899 -2.3139  1.3209  0.7630
11880TIP3    H257056   1.955   4.314   4.850 -0.6053  0.2605  0.1963
11881TIP3   OH257057   1.803   3.396  11.290  0.4486 -0.2445 -0.1967
11881TIP3    H157058   1.803   3.407  11.195 -0.6610  0.1243 -0.1621
11881TIP3    H257059   1.714   3.418  11.317  1.5949  2.9132  1.3004
11882TIP3   OH257060   5.495   6.348  14.809 -0.1894  0.2259  0.5289
11882TIP3    H157061   5.452   6.433  14.815 -1.7878 -0.3953 -1.3680
11882TIP3    H257062   5.577   6.365  14.761 -0.2664  0.7663  0.5932
11883TIP3   OH257063   4.259   5.895   3.167  0.1249 -0.6066 -0.2807
11883TIP3    H157064   4.198   5.969   3.163  0.0104 -0.6928 -0.1123
11883TIP3    H257065   4.346   5.936   3.168  0.0042 -0.3173  3.4940
11884TIP3   OH257066   5.574   3.182   2.976  0.2857 -0.3424 -0.0456
11884TIP3    H157067   5.622   3.234   2.911 -1.1940 -0.1561 -1.0331
11884TIP3    H257068   5.551   3.101   2.930 -1.0961 -0.0543  0.1097
11885TIP3   OH257069   6.203   0.124   2.910 -0.4997 -0.6034 -0.4464
11885TIP3    H157070   6.209   0.217   2.889 -0.5483 -0.7379 -1.0857
11885TIP3    H257071   6.273   0.084   2.859  0.5789 -0.7130  1.1139
11886TIP3   OH257072   3.443   0.664  14.865  0.1434 -0.0036 -0.1991
11886TIP3    H157073   3.451   0.744  14.814  0.7408 -0.2484 -0.4961
11886TIP3    H257074   3.350   0.658  14.887 -0.0701  0.2427 -1.0249
11887TIP3   OH257075   4.241   1.367  11.312  0.3171  0.1050  0.2887
11887TIP3    H157076   4.224   1.273  11.304 -1.4660  0.3623  0.8893
11887TIP3    H257077   4.183   1.408  11.248  0.5169  0.8658  0.5808
11888TIP3   OH257078   4.141   4.150  16.850  0.7370  0.5909 -0.6947
11888TIP3    H157079   4.176   4.123  16.766  0.8671 -0.5546 -0.2731
11888TIP3    H257080   4.047   4.159  16.836  0.7219  0.1242 -0.8789
11889TIP3   OH257081   6.259   5.477  13.116  0.1817  0.0679  0.4321
11889TIP3    H157082   6.267   5.414  13.188 -2.0909  0.6049  1.1893
11889TIP3    H257083   6.196   5.436  13.056 -0.9490  1.3902  0.7014
11890TIP3   OH257084   4.489   4.627   4.189 -0.3525 -0.3759  0.1486
11890TIP3    H157085   4.395   4.632   4.200 -0.4644 -0.8252 -0.5479
11890TIP3    H257086   4.512   4.540   4.221 -0.3639 -0.7843 -0.9181
11891TIP3   OH257087   2.242   0.664   5.214  0.0264  0.6943  0.6029
11891TIP3    H157088   2.311   0.658   5.280 -1.8938  0.7524  2.6838
11891TIP3    H257089   2.257   0.748   5.171  1.4770  0.5098  0.7042
11892TIP3   OH257090   5.604   2.000  12.073 -0.1210 -0.4845 -0.1727
11892TIP3    H157091   5.638   1.913  12.097 -1.4506 -1.1070 -0.4925
11892TIP3    H257092   5.670   2.036  12.015  1.1018 -0.7128  1.0335
11893TIP3   OH257093   2.306   3.627  15.843  0.1621  0.4023  0.1025
11893TIP3    H157094   2.294   3.695  15.909 -0.1718  0.2533  0.1947
11893TIP3    H257095   2.218   3.609  15.811 -0.0765 -1.7872  1.8623
11894TIP3   OH257096   2.978   2.861  13.962  0.0156  0.1237 -0.3324
11894TIP3    H157097   3.004   2.930  13.901 -3.2912  1.1647 -0.6903
11894TIP3    H257098   2.892   2.889  13.994 -0.2194 -2.5384  1.5324
11895TIP3   OH257099   0.484   6.417   4.208 -0.8887  0.1769  0.2531
11895TIP3    H157100   0.389   6.426   4.211 -0.8429  1.0560 -0.7230
11895TIP3    H257101   0.503   6.345   4.269 -1.9160  1.9356  2.7758
11896TIP3   OH257102   5.981   3.746  11.040 -0.2621  0.1427  0.3187
11896TIP3    H157103   5.962   3.777  11.128  0.7492  2.9815 -0.4188
11896TIP3    H257104   6.071   3.712  11.045 -0.1556  0.4301  0.3347
11897TIP3   OH257105   4.588   4.648  10.651  0.3749 -0.2147 -0.0250
11897TIP3    H157106   4.651   4.719  10.665  2.0734 -1.9182  1.2213
11897TIP3    H257107   4.546   4.670  10.568  3.8624  0.1034 -1.8118
11898TIP3   OH257108   1.536   4.635  15.696  0.4965  0.1523 -0.1304
11898TIP3    H157109   1.616   4.671  15.659  0.3674  0.9993  0.3885
11898TIP3    H257110   1.468   4.656  15.632  0.6271 -0.2705 -0.4115
11899TIP3   OH257111   1.638   1.927  13.673  0.1091 -0.2210  0.1590
11899TIP3    H157112   1.600   1.969  13.596  0.0340 -0.4520  0.0686
11899TIP3    H257113   1.564   1.911  13.731 -0.0223 -1.2012 -0.2703
11900TIP3   OH257114   6.772   1.232  11.526  0.1365  0.0271 -0.1024
11900TIP3    H157115   6.790   1.151  11.573 -1.2533 -0.7862 -0.9208
11900TIP3    H257116   6.844   1.242  11.465 -0.1459 -1.0900 -0.6289
11901TIP3   OH257117   6.293   6.361  15.268 -0.1635  0.2038 -0.3172
11901TIP3    H157118   6.252   6.296  15.325  3.1250 -0.7885  1.0137
11901TIP3    H257119   6.264   6.445  15.303  0.0424 -0.4399  1.4339
11902TIP3   OH257120   6.108   1.017   5.265  0.3056 -0.1272 -0.3468
11902TIP3    H157121   6.090   1.044   5.355 -2.8095 -2.1098 -0.2933
11902TIP3    H257122   6.137   0.926   5.273 -1.8699 -0.9425 -1.4572
11903TIP3   OH257123   5.435   0.548   6.061 -0.1140  0.0236 -0.3014
11903TIP3    H157124   5.493   0.622   6.044 -1.0839  1.1554  1.2268
11903TIP3    H257125   5.478   0.500   6.131 -0.5606  0.3409  0.1894
11904TIP3   OH257126   1.069   6.000  12.578 -0.0978  0.1977 -0.1979
11904TIP3    H157127   1.006   5.928  12.570  0.2313 -0.1446  0.2274
11904TIP3    H257128   1.015   6.078  12.586 -0.4516  0.0896 -1.4736
11905TIP3   OH257129   5.171   5.300   0.411 -0.1079 -0.2471  0.1143
11905TIP3    H157130   5.256   5.344   0.419 -0.6038  0.8055 -0.3019
11905TIP3    H257131   5.162   5.284   0.317 -0.0865 -0.9358  0.2298
11906TIP3   OH257132   5.560   0.387  14.694 -0.2341 -0.2387 -0.0656
11906TIP3    H157133   5.469   0.364  14.675 -0.2587  0.8974 -1.3276
11906TIP3    H257134   5.573   0.356  14.784 -2.1119  0.3110  0.4297
11907TIP3   OH257135   0.602   3.829   2.248  0.0839 -0.0440 -0.1042
11907TIP3    H157136   0.584   3.739   2.220  2.5373  0.1431 -2.5321
11907TIP3    H257137   0.526   3.879   2.221 -1.5015 -1.4310  1.6621
11908TIP3   OH257138   4.239   2.579  16.957  0.1695 -0.1048  0.2469
11908TIP3    H157139   4.216   2.528  16.879  1.6139  1.4208 -1.1909
11908TIP3    H257140   4.260   2.666  16.924  0.7411  0.5825  2.3653
11909TIP3   OH257141   4.011   5.476   1.145  0.0565 -0.0384  1.0434
11909TIP3    H157142   3.929   5.478   1.194  1.1608  0.4391  2.9254
11909TIP3    H257143   4.065   5.412   1.191  1.1586  0.5313  0.5606
11910TIP3   OH257144   3.414   1.281  13.785 -0.8698  0.2445 -0.0699
11910TIP3    H157145   3.495   1.287  13.837 -0.7553  0.2542 -0.2473
11910TIP3    H257146   3.370   1.364  13.800 -0.8011  0.2766 -0.0439
11911TIP3   OH257147   2.914   2.481   4.563 -0.3363  0.1930  0.8001
11911TIP3    H157148   2.955   2.557   4.606 -0.5931  0.7839  0.0070
11911TIP3    H257149   2.829   2.514   4.533 -0.3477 -0.3524  0.2370
11912TIP3   OH257150   0.807   6.132   0.590 -0.4530  0.2937  0.8465
11912TIP3    H157151   0.798   6.039   0.569 -1.0563  0.3873  0.6753
11912TIP3    H257152   0.717   6.164   0.596 -0.2668  1.4594 -1.8104
11913TIP3   OH257153   1.795   1.926  15.024 -0.0063  0.1370  0.6962
11913TIP3    H157154   1.732   1.956  14.959  0.6149  0.3813  0.2051
11913TIP3    H257155   1.825   2.006  15.067 -1.0751 -0.0844  1.9140
11914TIP3   OH257156   5.661   4.552   6.011 -0.0510 -0.3948 -0.3169
11914TIP3    H157157   5.620   4.586   6.090  0.6894  2.3877 -1.0877
11914TIP3    H257158   5.718   4.481   6.042 -2.2838 -1.5529  1.2183
11915TIP3   OH257159   1.341   0.994   1.282 -0.4591  0.3137  0.4286
11915TIP3    H157160   1.405   1.028   1.344 -0.5768  0.3004  0.5588
11915TIP3    H257161   1.365   1.033   1.198 -0.5520  0.6681  0.5661
11916TIP3   OH257162   3.568   0.095   6.109 -0.1073  0.2351  0.7341
11916TIP3    H157163   3.498   0.159   6.111  1.0156  1.5083 -0.0694
11916TIP3    H257164   3.603   0.095   6.198  1.0010  2.0089  0.3193
11917TIP3   OH257165   5.307   2.055  14.520  0.7295  0.6229 -0.1352
11917TIP3    H157166   5.294   2.123  14.454 -1.1468 -0.1405 -0.5769
11917TIP3    H257167   5.328   1.977  14.470  0.3542  0.2865  0.2340
11918TIP3   OH257168   0.998   1.802  14.874  0.3774 -0.1357  0.4715
11918TIP3    H157169   0.927   1.777  14.934  0.7557 -0.6761  0.7030
11918TIP3    H257170   0.966   1.780  14.787 -0.5593  1.5429  0.3774
11919TIP3   OH257171   1.548   1.252  17.114 -0.0488 -0.5975 -0.5214
11919TIP3    H157172   1.545   1.230  17.021  0.5984  2.5144 -1.3195
11919TIP3    H257173   1.586   1.174  17.155 -0.4249 -2.0601 -2.8153
11920TIP3   OH257174   1.987   5.036   5.772  0.2557 -0.6261 -0.0541
11920TIP3    H157175   1.989   5.130   5.792  1.6153 -0.7805  0.5110
11920TIP3    H257176   1.904   5.006   5.809 -0.2660  0.3682 -0.3685
11921TIP3   OH257177   1.719   3.918   2.249  0.0940 -0.3000 -0.2743
11921TIP3    H157178   1.739   3.994   2.303  0.6395 -0.5714 -0.0881
11921TIP3    H257179   1.773   3.848   2.286 -0.2237 -0.7137 -0.5945
11922TIP3   OH257180   2.425   5.164   5.177  0.4614  0.3895 -0.5479
11922TIP3    H157181   2.477   5.162   5.257  0.7681 -0.5948 -0.7750
11922TIP3    H257182   2.335   5.179   5.207  0.5126 -0.4044  0.0095
11923TIP3   OH257183   4.855   2.808   1.569  0.4835 -0.1074 -0.2325
11923TIP3    H157184   4.807   2.741   1.617 -1.4945  1.3835 -0.0620
11923TIP3    H257185   4.900   2.760   1.499 -1.2797 -1.5743 -0.4170
11924TIP3   OH257186   4.941   3.429   0.783  0.4460 -0.0356  0.6860
11924TIP3    H157187   4.920   3.391   0.869  2.0517  0.8891  1.5188
11924TIP3    H257188   5.033   3.457   0.791  0.7906 -0.4644 -1.5360
11925TIP3   OH257189   3.602   1.980   2.511 -0.0057 -0.0232  0.4611
11925TIP3    H157190   3.687   1.967   2.553 -0.2236 -0.3365  0.8067
11925TIP3    H257191   3.539   1.948   2.575 -0.3063 -1.0812 -0.3516
11926TIP3   OH257192   3.627   4.450   2.931  0.0732  0.0716 -0.3512
11926TIP3    H157193   3.549   4.439   2.877 -2.5553  1.7968  2.8541
11926TIP3    H257194   3.624   4.378   2.994 -0.9184  2.0287  1.9543
11927TIP3   OH257195   2.371   6.491  14.050  0.3569  0.0832  0.1247
11927TIP3    H157196   2.337   6.510  13.962 -1.9951  0.5066  1.1104
11927TIP3    H257197   2.456   6.450  14.033 -0.1002  0.0388 -2.3598
11928TIP3   OH257198   4.301   2.441   3.698  0.5483  0.3473 -0.1122
11928TIP3    H157199   4.346   2.440   3.782 -0.5680  1.6122  0.5334
11928TIP3    H257200   4.248   2.521   3.701 -3.0562 -1.8952 -0.0934
11929TIP3   OH257201   0.993   0.198  12.917  0.2436  0.9668 -0.1103
11929TIP3    H157202   0.973   0.263  12.850  0.3152  0.3953 -0.6808
11929TIP3    H257203   0.933   0.126  12.901  1.5002  0.0380 -0.7030
11930TIP3   OH257204   2.199   0.161   2.599  0.1220  0.6561  0.2874
11930TIP3    H157205   2.164   0.078   2.565  2.3255 -1.3805  2.7758
11930TIP3    H257206   2.128   0.196   2.654 -1.3186  1.1657 -1.8071
11931TIP3   OH257207   2.675   0.065  16.367 -0.5674 -0.3444  0.0901
11931TIP3    H157208   2.738   0.116  16.318 -1.4203  0.2935 -0.3571
11931TIP3    H257209   2.686   0.093  16.458  0.2985 -0.7777  0.1194
11932TIP3   OH257210   4.701   4.775  16.846 -0.0489  0.0778  0.0723
11932TIP3    H157211   4.717   4.846  16.909  1.4058  0.5391 -0.7851
11932TIP3    H257212   4.608   4.782  16.825  0.0528  1.6545  0.0979
11933TIP3   OH257213   1.151   0.813  11.180 -0.3939  0.3326  0.4042
11933TIP3    H157214   1.142   0.824  11.275  0.7275  0.7317  0.4723
11933TIP3    H257215   1.134   0.720  11.165  1.4320 -0.1794  1.2735
11934TIP3   OH257216   0.635   4.277  15.939 -0.1868 -0.0791  0.2296
11934TIP3    H157217   0.641   4.212  16.008 -3.2966 -0.3012  0.3325
11934TIP3    H257218   0.589   4.234  15.868 -1.1425  1.5815 -0.1988
11935TIP3   OH257219   2.107   6.571  15.293 -0.4114  0.4720  0.0059
11935TIP3    H157220   2.170   6.639  15.317 -0.2280  0.8390 -1.4664
11935TIP3    H257221   2.150   6.489  15.316 -0.2703  0.8103  0.9666
11936TIP3   OH257222   2.695   6.517  16.733 -0.0569 -0.6465  0.5048
11936TIP3    H157223   2.701   6.593  16.790 -3.0613  0.4851 -0.6237
11936TIP3    H257224   2.786   6.501  16.705  0.5071  3.2203 -0.1518
11937TIP3   OH257225   2.417   1.945   2.997  0.1714 -0.6707  0.1376
11937TIP3    H157226   2.416   1.941   2.901 -1.1678  3.4985 -0.1230
11937TIP3    H257227   2.496   1.994   3.018 -1.0020  0.8822  0.9815
11938TIP3   OH257228   6.388   3.468  13.761  0.0628 -0.0303  0.5015
11938TIP3    H157229   6.343   3.410  13.823 -0.6516 -0.2118 -0.1809
11938TIP3    H257230   6.453   3.411  13.719  1.2162  0.3304  1.7755
11939TIP3   OH257231   1.987   3.260  11.944 -0.7330  0.1991  0.3401
11939TIP3    H157232   1.937   3.220  11.873  0.8499  1.1221 -1.3474
11939TIP3    H257233   2.020   3.186  11.995  0.4757 -0.6032 -1.5602
11940TIP3   OH257234   5.711   2.464   3.191  0.5515  0.8614  0.0550
11940TIP3    H157235   5.694   2.377   3.154 -1.5564  1.8108 -1.3732
11940TIP3    H257236   5.750   2.447   3.276 -0.8639 -1.5203  0.2890
11941TIP3   OH257237   5.106   6.263   1.321  0.6385 -0.3956 -0.9331
11941TIP3    H157238   5.184   6.317   1.322  0.3423  0.0354  0.8207
11941TIP3    H257239   5.090   6.245   1.229  1.9720  0.7174 -1.3911
11942TIP3   OH257240   1.230   2.127  12.866 -0.7439 -0.2825  0.2271
11942TIP3    H157241   1.193   2.042  12.843  0.1534 -0.6606  0.1481
11942TIP3    H257242   1.217   2.134  12.961  0.8192 -1.3306  0.5405
11943TIP3   OH257243   1.741   5.945  16.958 -0.4365  0.3794  0.1703
11943TIP3    H157244   1.674   5.923  17.022 -0.1085  0.4573  0.5423
11943TIP3    H257245   1.805   5.874  16.964 -1.6311 -0.9025 -1.8251
11944TIP3   OH257246   4.158   3.949  13.653 -0.1376 -0.7673 -0.5743
11944TIP3    H157247   4.087   4.011  13.639 -0.0766 -0.5197  0.1442
11944TIP3    H257248   4.177   3.913  13.567  1.1875  1.6864 -1.3613
11945TIP3   OH257249   3.009   5.265  10.800 -0.1383  0.2995 -0.6704
11945TIP3    H157250   3.018   5.232  10.710 -1.7638  1.4355 -1.2868
11945TIP3    H257251   3.071   5.213  10.851  0.6515 -0.5241 -2.4091
11946TIP3   OH257252   0.990   2.792   3.734  0.6977 -0.2368  0.2148
11946TIP3    H157253   1.059   2.788   3.800 -0.0816 -0.5851  1.0222
11946TIP3    H257254   1.002   2.876   3.692  0.9694  0.1568  1.0639
11947TIP3   OH257255   6.559   0.592   1.778 -0.2124  0.0476 -0.2348
11947TIP3    H157256   6.627   0.643   1.822 -1.0911  0.7053  0.3801
11947TIP3    H257257   6.518   0.541   1.848  2.1305 -3.3031 -1.1432
11948TIP3   OH257258   6.010   1.478  11.894  0.4195  0.0535 -0.3078
11948TIP3    H157259   6.071   1.520  11.834  0.1754  1.4530  0.3961
11948TIP3    H257260   6.065   1.448  11.967  0.3047  1.1245  0.2261
11949TIP3   OH257261   3.293   4.070   1.002  0.5150 -0.4746  0.1824
11949TIP3    H157262   3.200   4.093   1.008  0.8272  0.8400  0.1028
11949TIP3    H257263   3.339   4.146   1.039  1.5096 -1.6183  1.3330
11950TIP3   OH257264   3.300   1.535   3.518 -0.2944  1.1637 -0.0724
11950TIP3    H157265   3.278   1.458   3.572 -0.9781  0.0114 -1.9462
11950TIP3    H257266   3.242   1.604   3.550 -0.3724  0.6348  0.9612
11951TIP3   OH257267   4.693   1.875   1.288 -0.2287  0.1476 -0.0540
11951TIP3    H157268   4.758   1.919   1.234 -1.3159  1.6316 -0.1925
11951TIP3    H257269   4.662   1.802   1.234  0.5513  0.0709 -0.3962
11952TIP3   OH257270   6.223   0.203  16.642 -0.2494 -0.4182 -0.0034
11952TIP3    H157271   6.148   0.177  16.589 -0.7008  1.0273 -0.1062
11952TIP3    H257272   6.195   0.188  16.732 -0.3091 -0.7808 -0.0817
11953TIP3   OH257273   0.844   1.037   1.384  0.1660  0.0111 -0.1427
11953TIP3    H157274   0.788   0.969   1.347 -0.1169  0.3459 -0.3231
11953TIP3    H257275   0.918   0.988   1.421  0.1821 -0.3654 -0.6593
11954TIP3   OH257276   5.335   4.981  12.765  0.0920  0.4620 -0.2912
11954TIP3    H157277   5.311   4.940  12.682  0.8776 -0.6165 -0.0009
11954TIP3    H257278   5.292   4.927  12.832  0.2871  0.7172  0.0424
11955TIP3   OH257279   6.418   0.666  11.618 -0.0969  0.0874  0.4506
11955TIP3    H157280   6.452   0.667  11.707  1.7866  0.0429 -0.2511
11955TIP3    H257281   6.389   0.576  11.603 -2.6574  0.6473  1.8231
11956TIP3   OH257282   3.095   3.412   4.389 -0.0742  0.2964  0.2576
11956TIP3    H157283   3.071   3.499   4.356 -0.2960  0.6647  1.3949
11956TIP3    H257284   3.153   3.429   4.463 -0.6846 -0.5042  0.9305
11957TIP3   OH257285   5.150   4.933  11.304  0.6533  0.2988  0.7142
11957TIP3    H157286   5.137   4.849  11.259 -0.8702  1.2888 -0.7556
11957TIP3    H257287   5.190   4.989  11.237  1.0133  0.9572  1.4774
11958TIP3   OH257288   6.116   1.357  13.780  0.0793 -0.0296 -0.1552
11958TIP3    H157289   6.068   1.291  13.828 -0.1797 -0.8883 -1.5732
11958TIP3    H257290   6.199   1.367  13.828  0.2162 -1.5387 -0.0670
11959TIP3   OH257291   3.920   4.429   2.799  0.2789  0.0236  0.2598
11959TIP3    H157292   3.956   4.430   2.888  0.0133 -0.4790  0.3726
11959TIP3    H257293   3.825   4.430   2.811  0.2140 -1.7227  0.0146
11960TIP3   OH257294   1.731   0.582   5.964  0.0801 -0.0957 -0.6893
11960TIP3    H157295   1.718   0.566   6.057 -0.2159  0.0229 -0.7081
11960TIP3    H257296   1.769   0.670   5.960 -1.1747  0.4588 -0.7508
11961TIP3   OH257297   4.054   6.254  13.229  0.0301 -0.4175 -0.1271
11961TIP3    H157298   4.079   6.338  13.267  0.0633 -0.5099  0.0564
11961TIP3    H257299   4.004   6.211  13.298  2.0425 -1.5535  0.6714
11962TIP3   OH257300   1.788   3.748   0.157  0.7026  0.0716 -0.5116
11962TIP3    H157301   1.740   3.830   0.145 -1.0250 -0.9177 -0.6780
11962TIP3    H257302   1.808   3.718   0.068  0.7192 -0.0276 -0.4747
11963TIP3   OH257303   5.622   3.368   1.114 -0.6027 -0.1075 -0.5293
11963TIP3    H157304   5.680   3.369   1.038  0.2299 -0.0483  0.0972
11963TIP3    H257305   5.535   3.350   1.078 -0.2640  0.2066 -1.5240
11964TIP3   OH257306   5.783   2.374  12.331 -0.3366 -0.1177 -0.4506
11964TIP3    H157307   5.794   2.282  12.309  1.8007  0.1309 -0.5282
11964TIP3    H257308   5.767   2.375  12.425  1.0127 -0.4957 -0.2047
11965TIP3   OH257309   6.664   6.723   4.779  0.1185 -0.3625  0.0584
11965TIP3    H157310   6.701   6.751   4.863  0.2185 -1.7843  0.5157
11965TIP3    H257311   6.586   6.673   4.804  1.0132 -2.1483 -0.5893
11966TIP3   OH257312   4.009   5.701   0.548  0.3282  0.4766 -0.4599
11966TIP3    H157313   4.070   5.652   0.493 -2.0144  0.9107 -3.5885
11966TIP3    H257314   4.041   5.791   0.546  0.5893  0.3783 -0.6405
11967TIP3   OH257315   2.595   4.867   3.056 -0.1509 -0.1572 -0.2380
11967TIP3    H157316   2.660   4.914   3.003  0.9247 -1.5666 -0.2109
11967TIP3    H257317   2.642   4.790   3.088 -1.4340 -0.4454  0.9819
11968TIP3   OH257318   1.813   5.341  13.210  0.2739 -0.5689 -0.4863
11968TIP3    H157319   1.907   5.327  13.193  0.1294 -0.6198 -1.2509
11968TIP3    H257320   1.810   5.378  13.298  0.9364 -1.6352  0.0018
11969TIP3   OH257321   5.974   3.665   4.559  0.4943 -0.2594 -0.1312
11969TIP3    H157322   5.991   3.680   4.466 -3.1646 -1.0562 -0.9987
11969TIP3    H257323   5.968   3.570   4.568  0.0472 -0.1516  0.7743
11970TIP3   OH257324   5.737   4.628   1.260  0.4383 -0.3279 -0.2829
11970TIP3    H157325   5.778   4.642   1.345  1.0119 -0.8397 -0.4682
11970TIP3    H257326   5.719   4.716   1.226  0.7137 -0.1183  0.1183
11971TIP3   OH257327   1.603   4.868  16.918 -0.0749  0.6269  0.1015
11971TIP3    H157328   1.630   4.915  16.838 -1.0156  0.5237 -0.2872
11971TIP3    H257329   1.620   4.930  16.989  2.8268 -0.0769  0.0825
11972TIP3   OH257330   6.098   3.999  14.937 -0.5360  0.5337 -0.3614
11972TIP3    H157331   6.086   4.068  15.002 -0.2251 -0.9739  1.3457
11972TIP3    H257332   6.191   4.003  14.914 -0.5383  0.7455 -0.3318
11973TIP3   OH257333   5.292   6.005  14.724  0.5607  0.7493 -0.6776
11973TIP3    H157334   5.308   6.099  14.737  0.8548  0.5450  0.5701
11973TIP3    H257335   5.197   5.995  14.729  0.5511  0.9404 -0.4860
11974TIP3   OH257336   1.157   4.900   4.235  0.1520 -0.2161 -0.2619
11974TIP3    H157337   1.089   4.967   4.227 -0.8511 -1.0276  1.2881
11974TIP3    H257338   1.145   4.845   4.157 -2.6863 -1.8740  1.2683
11975TIP3   OH257339   6.505   2.930   0.436 -0.0830  0.3864 -0.2867
11975TIP3    H157340   6.553   2.847   0.427  0.7840  0.8570 -0.0272
11975TIP3    H257341   6.459   2.939   0.353 -0.2308 -0.3863 -0.2979
11976TIP3   OH257342   4.075   2.534  13.547  0.0522  0.5879  0.1825
11976TIP3    H157343   4.116   2.614  13.512  1.5667 -1.1557 -2.1827
11976TIP3    H257344   4.128   2.463  13.512 -1.0371 -1.4707  2.5846
11977TIP3   OH257345   5.100   5.648  11.035  0.1800  0.0267  0.5172
11977TIP3    H157346   5.120   5.558  11.063  0.2414  0.0542  0.5622
11977TIP3    H257347   5.175   5.673  10.980 -0.0345 -0.0949  0.1694
11978TIP3   OH257348   1.267   5.076  15.238  0.6841  0.6142 -0.0029
11978TIP3    H157349   1.356   5.096  15.209  0.2827  1.1108 -0.9369
11978TIP3    H257350   1.275   5.060  15.332  2.0092 -0.9938 -0.3733
11979TIP3   OH257351   0.868   3.558   0.276 -0.5885  0.2392  0.6186
11979TIP3    H157352   0.870   3.639   0.226 -0.5445 -0.6681 -0.9030
11979TIP3    H257353   0.776   3.543   0.295 -0.8647 -0.6050 -1.2496
11980TIP3   OH257354   0.711   1.450   1.449  0.7211 -0.2403 -0.2357
11980TIP3    H157355   0.722   1.474   1.357 -0.7295 -0.2114 -0.4184
11980TIP3    H257356   0.794   1.471   1.490  1.2367  0.1344 -1.4675
11981TIP3   OH257357   3.089   2.726   2.763 -0.2710  0.4506 -0.4532
11981TIP3    H157358   3.173   2.763   2.789 -0.0235 -0.3283 -0.1548
11981TIP3    H257359   3.068   2.769   2.680 -0.1111  1.4646  0.0235
11982TIP3   OH257360   4.488   5.788  13.350  0.1058 -0.0486 -0.0257
11982TIP3    H157361   4.503   5.737  13.429  1.0815  1.2916  0.6822
11982TIP3    H257362   4.502   5.727  13.278 -2.0953 -1.6282  0.8225
11983TIP3   OH257363   3.231   0.230   5.595 -0.4485 -0.0282  0.5734
11983TIP3    H157364   3.315   0.276   5.600 -0.7850  0.4464  1.8702
11983TIP3    H257365   3.199   0.249   5.507  1.6194 -1.6528 -0.5694
11984TIP3   OH257366   5.432   6.555  11.340  0.1181 -0.2843  0.3563
11984TIP3    H157367   5.443   6.633  11.394 -1.8490 -0.5368  1.1402
11984TIP3    H257368   5.423   6.483  11.403  0.6861 -0.9905 -0.3503
11985TIP3   OH257369   4.252   2.246  15.022 -0.6125 -0.0411  0.1192
11985TIP3    H157370   4.223   2.276  14.936 -1.5205  0.1695  0.4979
11985TIP3    H257371   4.231   2.153  15.024  1.8511 -0.6588 -0.9053
11986TIP3   OH257372   4.602   4.828   3.581  0.4631  0.1149  0.2566
11986TIP3    H157373   4.533   4.833   3.648 -0.3305 -1.7379 -0.3859
11986TIP3    H257374   4.562   4.868   3.504  0.3952 -0.1968  0.1276
11987TIP3   OH257375   5.069   2.718  12.219 -0.2062 -0.2943 -0.3777
11987TIP3    H157376   5.020   2.732  12.299  1.0604  2.4548 -0.0588
11987TIP3    H257377   5.030   2.778  12.156  0.2360 -0.8885 -1.2331
11988TIP3   OH257378   1.840   3.951  12.421 -0.2963 -0.3799  0.1751
11988TIP3    H157379   1.747   3.934  12.435 -0.5412 -0.2953 -1.3451
11988TIP3    H257380   1.842   4.026  12.362  0.7237 -1.2079 -0.8652
11989TIP3   OH257381   0.639   2.782  17.024 -0.5378 -0.1599  0.0614
11989TIP3    H157382   0.669   2.842  17.092 -1.6926  0.6980 -0.1697
11989TIP3    H257383   0.569   2.731  17.065 -0.4811 -0.4152 -0.1510
11990TIP3   OH257384   5.910   3.172   1.101  0.2207  0.1168 -0.7640
11990TIP3    H157385   5.869   3.208   1.023  0.4620 -0.6579 -1.2536
11990TIP3    H257386   6.002   3.161   1.077  0.0392 -1.3910 -0.8320
11991TIP3   OH257387   2.185   2.852   4.689  0.4909 -0.7829  0.6985
11991TIP3    H157388   2.166   2.929   4.635  0.3181 -1.8743 -0.8527
11991TIP3    H257389   2.250   2.882   4.752 -1.1784  1.1874  1.5466
11992TIP3   OH257390   0.977   0.981   3.791  0.2444 -0.3402 -0.0220
11992TIP3    H157391   0.932   1.029   3.861  0.6373 -1.4005  0.9894
11992TIP3    H257392   1.060   1.027   3.779  0.0436  0.0258 -0.0009
11993TIP3   OH257393   2.968   5.339  16.961  0.5681 -0.3794  0.5112
11993TIP3    H157394   3.020   5.370  16.886 -0.1035  0.0986  0.2438
11993TIP3    H257395   2.975   5.244  16.957  1.1389 -0.3325  0.2717
11994TIP3   OH257396   1.008   3.447  14.386  0.2765 -0.0729 -0.2581
11994TIP3    H157397   1.054   3.431  14.303 -1.1475 -0.4659 -0.9878
11994TIP3    H257398   0.916   3.457  14.360  0.2060  2.7372  0.9196
11995TIP3   OH257399   4.271   4.674   6.634  0.0136 -0.0440  0.1276
11995TIP3    H157400   4.313   4.742   6.686 -0.1866 -1.5532  2.3243
11995TIP3    H257401   4.177   4.694   6.639  0.0910  0.5848 -0.8035
11996TIP3   OH257402   5.791   4.584  11.138 -0.2768 -0.1164 -0.4362
11996TIP3    H157403   5.875   4.558  11.100  0.7167  1.8562  0.3363
11996TIP3    H257404   5.757   4.649  11.077 -0.9389 -0.4321 -0.4048
11997TIP3   OH257405   5.961   0.162  13.761 -0.4198  0.0634 -0.0768
11997TIP3    H157406   5.983   0.238  13.815 -1.0503 -0.2759  0.6765
11997TIP3    H257407   5.920   0.198  13.683 -0.2878  0.5241  0.0663
11998TIP3   OH257408   5.311   2.005  15.897 -0.1834  0.3668  0.0475
11998TIP3    H157409   5.328   2.011  15.803  0.1456 -2.1894 -0.0926
11998TIP3    H257410   5.396   1.986  15.936 -0.3620  1.1756  0.8576
11999TIP3   OH257411   3.024   4.170   2.635  0.3178  0.6543 -0.0540
11999TIP3    H157412   3.010   4.264   2.631 -1.6600  0.4105  0.7003
11999TIP3    H257413   2.973   4.133   2.563 -0.8592 -0.0147  1.0833
12000TIP3   OH257414   0.782   3.358   4.249 -0.2449  0.0362 -0.2530
12000TIP3    H157415   0.859   3.369   4.304 -0.2091 -1.3495 -0.0084
12000TIP3    H257416   0.757   3.447   4.223 -0.0497  0.6797  1.7125
12001TIP3   OH257417   1.618   4.808  12.300  0.2751 -0.2104 -0.2897
12001TIP3    H157418   1.524   4.816  12.314 -0.0132 -1.0300 -1.6412
12001TIP3    H257419   1.626   4.759  12.218  1.8823  1.1691 -0.9945
12002TIP3   OH257420   3.575   6.572   2.345 -0.4372  0.2801 -0.2513
12002TIP3    H157421   3.498   6.629   2.337 -1.0170 -0.4092  0.3348
12002TIP3    H257422   3.576   6.522   2.263  0.1169  1.1801 -0.7999
12003TIP3   OH257423   3.757   3.382  15.502 -0.5517  0.3132  0.4314
12003TIP3    H157424   3.734   3.303  15.552 -0.1169 -0.5348 -0.6922
12003TIP3    H257425   3.784   3.349  15.416  0.9438  1.5841  0.3942
12004TIP3   OH257426   1.937   0.658   4.658 -0.0479  0.2557  0.1109
12004TIP3    H157427   1.866   0.616   4.707 -0.5763  1.1311  0.1091
12004TIP3    H257428   1.897   0.683   4.575  0.6712 -0.6094 -0.5042
12005TIP3   OH257429   5.821   3.704  15.627 -0.0041  0.4596  0.2511
12005TIP3    H157430   5.806   3.699  15.722 -0.0773  1.8020  0.3182
12005TIP3    H257431   5.743   3.749  15.593  1.0615  2.0279 -0.1566
12006TIP3   OH257432   0.542   6.784  12.934  0.1812 -0.6746  0.2552
12006TIP3    H157433   0.613   6.832  12.892 -0.2259  0.5531  0.9326
12006TIP3    H257434   0.521   6.836  13.011 -0.7119 -1.6144  0.6552
12007TIP3   OH257435   4.281   5.158  14.348 -0.2609  0.0694 -0.1642
12007TIP3    H157436   4.268   5.111  14.430  0.3337 -0.9856 -0.6601
12007TIP3    H257437   4.193   5.184  14.320 -0.7650 -2.0036 -0.5980
12008TIP3   OH257438   5.707   1.767  14.272 -0.0092  0.0169  0.5014
12008TIP3    H157439   5.626   1.806  14.238 -0.0191 -0.4153  0.0177
12008TIP3    H257440   5.773   1.788  14.207  0.3167  0.5524  1.0044
12009TIP3   OH257441   0.676   5.633  16.342 -0.3020  0.6778  0.5036
12009TIP3    H157442   0.624   5.626  16.262  0.0757  1.1357  0.2078
12009TIP3    H257443   0.617   5.674  16.405 -0.2134  1.4842  0.0774
12010TIP3   OH257444   1.071   3.843   4.495 -0.3111  0.0934  0.2282
12010TIP3    H157445   1.049   3.841   4.402 -1.7861  1.6391  0.5323
12010TIP3    H257446   1.020   3.915   4.531 -0.4969 -1.0849  2.4373
12011TIP3   OH257447   6.755   5.593   4.313 -0.5242 -0.2995  0.5021
12011TIP3    H157448   6.772   5.546   4.395  0.0260 -1.5125 -0.2927
12011TIP3    H257449   6.688   5.657   4.336 -0.2546 -0.5140  1.9404
12012TIP3   OH257450   3.162   6.277   6.381 -0.1538 -0.5387 -0.8349
12012TIP3    H157451   3.100   6.208   6.404 -1.0503 -0.0153 -1.6107
12012TIP3    H257452   3.248   6.243   6.406 -0.7775 -1.1969  0.4342
12013TIP3   OH257453   6.366   3.611  11.230 -0.2631  0.0941  0.5940
12013TIP3    H157454   6.426   3.626  11.303  0.5892  1.5463 -0.3715
12013TIP3    H257455   6.396   3.528  11.192 -0.0535 -0.1370  1.2421
12014TIP3   OH257456   3.383   1.935   0.183  0.0024 -0.1593  0.7516
12014TIP3    H157457   3.445   1.999   0.218  2.8639 -0.5384 -3.2437
12014TIP3    H257458   3.312   1.988   0.147  0.3694  0.5507  1.0577
12015TIP3   OH257459   2.434   4.523  13.764  0.4087 -0.1259 -0.0465
12015TIP3    H157460   2.482   4.443  13.746 -0.4183 -1.1586  2.1509
12015TIP3    H257461   2.390   4.507  13.847 -0.0121  2.5084  0.3003
12016TIP3   OH257462   5.333   4.423  11.350 -0.2123 -0.3105  0.1110
12016TIP3    H157463   5.406   4.483  11.339  0.6582 -1.2064  0.9508
12016TIP3    H257464   5.316   4.390  11.261  1.7886 -1.6914  0.2198
12017TIP3   OH257465   0.314   6.256  16.343 -0.1667 -0.1238  0.7773
12017TIP3    H157466   0.313   6.195  16.268  0.9826 -0.1769  0.7999
12017TIP3    H257467   0.239   6.313  16.327  0.0415 -0.1569 -0.4091
12018TIP3   OH257468   3.864   3.126  17.088  0.4816  0.1428  0.0937
12018TIP3    H157469   3.950   3.101  17.121  0.4000  1.6504  1.5304
12018TIP3    H257470   3.819   3.163  17.164  0.1597  3.4310 -1.5945
12019TIP3   OH257471   0.195   6.522  13.769  0.3868  0.0007  0.1941
12019TIP3    H157472   0.245   6.544  13.690  0.5834  0.5650  0.4766
12019TIP3    H257473   0.130   6.591  13.777 -0.4820 -0.7531 -0.1917
12020TIP3   OH257474   6.414   0.685  16.992  0.0524  0.0432 -0.3764
12020TIP3    H157475   6.331   0.661  17.034  0.7424 -0.8547  0.4913
12020TIP3    H257476   6.402   0.657  16.901 -1.4084  1.9097 -0.7841
12021TIP3   OH257477   5.117   0.644  15.667  0.1732 -0.4403  0.3979
12021TIP3    H157478   5.069   0.722  15.641  0.6139 -0.9210 -1.9083
12021TIP3    H257479   5.135   0.658  15.760 -1.0251  1.5178  0.3699
12022TIP3   OH257480   4.714   0.820   5.666 -0.0991  0.2600 -0.3095
12022TIP3    H157481   4.681   0.741   5.623 -0.0169  0.7917 -1.3724
12022TIP3    H257482   4.717   0.885   5.596  2.4335  0.4478 -0.0597
12023TIP3   OH257483   5.864   4.427   1.893  0.7970 -0.2370  0.4425
12023TIP3    H157484   5.893   4.427   1.984  1.0092 -0.3486  0.3765
12023TIP3    H257485   5.928   4.371   1.848  0.0466 -1.0979  0.4325
12024TIP3   OH257486   4.953   1.512  13.930  0.1051  0.2872  0.3812
12024TIP3    H157487   5.043   1.519  13.962  0.8000  0.3262 -1.5447
12024TIP3    H257488   4.962   1.489  13.837 -1.8666  0.8094  0.0433
12025TIP3   OH257489   6.181   5.983  12.682  0.3687 -0.6474 -0.2631
12025TIP3    H157490   6.211   5.964  12.593  0.8084 -0.5478 -0.1371
12025TIP3    H257491   6.239   6.053  12.712 -1.2860  1.0086 -0.7693
12026TIP3   OH257492   6.481   4.233  17.189 -0.1243 -0.3678 -0.2353
12026TIP3    H157493   6.451   4.310  17.141  0.9899 -0.3377 -0.8820
12026TIP3    H257494   6.572   4.222  17.163 -0.5783 -2.5552 -0.9943
12027TIP3   OH257495   4.262   0.799   2.019  0.5030 -0.2438 -0.3526
12027TIP3    H157496   4.246   0.884   1.977  1.4368  0.4474  0.6478
12027TIP3    H257497   4.306   0.821   2.101 -3.9771 -1.3719  2.5338
12028TIP3   OH257498   3.331   6.640  14.008 -0.1252 -0.1931 -0.4149
12028TIP3    H157499   3.309   6.727  14.040  1.0525  0.1480 -0.5247
12028TIP3    H257500   3.285   6.580  14.068  1.2940  0.4550  1.3589
12029TIP3   OH257501   4.324   5.510  14.474  0.4469 -1.1204  0.3167
12029TIP3    H157502   4.238   5.541  14.445  0.1168 -0.7720  1.6127
12029TIP3    H257503   4.382   5.527  14.400  0.5236  3.7711  1.2873
12030TIP3   OH257504   1.538   2.878  13.167 -0.4881  0.7120  0.1872
12030TIP3    H157505   1.558   2.807  13.228 -1.3442  1.6755  1.6158
12030TIP3    H257506   1.613   2.880  13.108 -0.0974 -0.8831  0.6008
12031TIP3   OH257507   2.451   3.193  11.624  0.0699 -0.0137 -0.4522
12031TIP3    H157508   2.518   3.131  11.598 -1.4625 -2.2071  0.6534
12031TIP3    H257509   2.403   3.212  11.543  0.7070 -0.0775 -0.8428
12032TIP3   OH257510   1.047   1.873  16.273 -0.1414 -0.0033 -0.3573
12032TIP3    H157511   1.124   1.876  16.329 -0.8262  1.0047  0.5578
12032TIP3    H257512   1.082   1.866  16.184  0.9578 -1.8270  0.1888
12033TIP3   OH257513   2.121   4.586  13.268 -0.4357  0.6324  0.6482
12033TIP3    H157514   2.030   4.603  13.294 -0.2033  2.5236  0.2306
12033TIP3    H257515   2.173   4.607  13.346 -0.2611  0.5765  0.5478
12034TIP3   OH257516   0.876   3.353   5.497  0.0371  0.0620 -0.7838
12034TIP3    H157517   0.955   3.331   5.546 -1.8966  0.4708  2.6994
12034TIP3    H257518   0.822   3.274   5.503 -1.2074  0.9390 -0.1261
12035TIP3   OH257519   4.475   1.501  14.894  0.3408  0.1205 -0.0567
12035TIP3    H157520   4.550   1.469  14.944  0.6901 -1.6062 -1.6075
12035TIP3    H257521   4.476   1.596  14.906  2.0374 -0.0079  0.9423
12036TIP3   OH257522   4.571   2.856   2.020 -0.2941  0.8425 -0.1551
12036TIP3    H157523   4.598   2.870   2.111 -1.9298 -1.2385  0.7056
12036TIP3    H257524   4.597   2.765   2.002  0.3857  1.3800 -1.9213
12037TIP3   OH257525   4.028   5.693   0.979 -0.3591  0.3835 -0.3817
12037TIP3    H157526   4.022   5.622   1.042 -1.3213  1.2614  0.5481
12037TIP3    H257527   4.101   5.669   0.921  2.1539  0.7241  2.5329
12038TIP3   OH257528   3.361   4.617  11.320 -0.0539 -0.6218 -0.4827
12038TIP3    H157529   3.450   4.591  11.341  0.2773  0.7758 -0.1096
12038TIP3    H257530   3.367   4.658  11.233  0.0370  1.2738  0.3825
12039TIP3   OH257531   5.623   2.442  17.011  0.1427 -0.1760 -0.0156
12039TIP3    H157532   5.644   2.404  16.926  2.8801 -3.3917  1.9897
12039TIP3    H257533   5.650   2.534  17.003  2.3753 -0.9469 -1.9623
12040TIP3   OH257534   2.518   4.854  10.474  0.3588  0.0619 -0.3843
12040TIP3    H157535   2.479   4.847  10.386  0.1074 -2.2989 -0.1339
12040TIP3    H257536   2.447   4.887  10.529  0.0832  0.1675 -0.8002
12041TIP3   OH257537   5.553   5.982   2.330 -0.1078  0.8762 -0.1941
12041TIP3    H157538   5.535   6.073   2.306  1.4912  1.2499 -0.0487
12041TIP3    H257539   5.585   5.942   2.249 -1.4387  0.2581 -0.4235
12042TIP3   OH257540   4.615   6.593   1.027 -0.1427 -0.2115 -0.5697
12042TIP3    H157541   4.626   6.667   1.087 -2.6638  0.3324 -0.6943
12042TIP3    H257542   4.566   6.528   1.078  1.4022 -1.4925 -0.6990
12043TIP3   OH257543   1.089   5.917  11.483  0.1816 -0.4631  0.2619
12043TIP3    H157544   1.160   5.899  11.546  0.7164 -0.4353 -0.3283
12043TIP3    H257545   1.085   5.839  11.429  0.1995 -0.1976 -0.1219
12044TIP3   OH257546   0.755   5.254  14.576 -0.5632 -0.0380 -0.0569
12044TIP3    H157547   0.838   5.282  14.538 -0.0901 -0.8656  0.3504
12044TIP3    H257548   0.695   5.246  14.501  1.1122 -4.3667 -1.1033
12045TIP3   OH257549   5.962   3.482   4.119  0.3527  0.5425 -0.7525
12045TIP3    H157550   5.886   3.424   4.118 -0.6261  1.8372 -1.1870
12045TIP3    H257551   5.942   3.548   4.184  1.5242  0.3536 -0.1805
12046TIP3   OH257552   1.486   3.982  13.905 -0.0522  0.7348  0.0291
12046TIP3    H157553   1.403   3.967  13.949  0.1962 -0.4653  0.1008
12046TIP3    H257554   1.470   3.956  13.814  0.7943 -1.4234  0.4687
12047TIP3   OH257555   2.731   3.376  12.861  0.1108  0.2113 -0.2481
12047TIP3    H157556   2.817   3.418  12.864  0.8831 -1.3220 -0.3378
12047TIP3    H257557   2.722   3.346  12.771 -0.4315  0.2136 -0.1932
12048TIP3   OH257558   1.692   6.481   3.631  0.1885  0.1206  0.0240
12048TIP3    H157559   1.636   6.413   3.592  0.0398  0.7060 -0.7908
12048TIP3    H257560   1.637   6.522   3.697  0.2767 -0.5447  0.5220
12049TIP3   OH257561   0.974   3.962   5.594  0.1128  0.0304  0.2791
12049TIP3    H157562   0.922   4.007   5.660  0.2988 -0.4481  0.7557
12049TIP3    H257563   1.065   3.984   5.616  0.0878  1.6129 -1.0934
12050TIP3   OH257564   2.200   4.366   5.649  0.2561  0.9092  0.4466
12050TIP3    H157565   2.152   4.315   5.584  0.8706  1.4538 -0.4433
12050TIP3    H257566   2.219   4.304   5.719  1.8223 -0.3715 -1.0362
12051TIP3   OH257567   6.346   3.150   0.749  0.5099  0.0082 -0.6612
12051TIP3    H157568   6.392   3.115   0.826  0.8128 -0.0409 -0.8658
12051TIP3    H257569   6.328   3.074   0.695 -0.5280 -0.0793 -0.2044
12052TIP3   OH257570   2.293   6.420  13.787  0.2203  0.3536  0.0763
12052TIP3    H157571   2.229   6.352  13.808 -0.6491  1.4238  0.9524
12052TIP3    H257572   2.307   6.411  13.693 -0.5092 -0.5004  0.0412
12053TIP3   OH257573   6.485   2.787  11.572 -0.2039  0.3216  0.0726
12053TIP3    H157574   6.398   2.824  11.560 -0.1960 -0.1591 -1.6419
12053TIP3    H257575   6.469   2.694  11.588  0.0180  0.0463 -1.2284
12054TIP3   OH257576   1.585   1.428  16.009  0.5648 -0.0402  0.3357
12054TIP3    H157577   1.511   1.475  16.048  1.5242  1.4272  0.4131
12054TIP3    H257578   1.614   1.483  15.937 -0.4943 -2.2096 -1.8363
12055TIP3   OH257579   2.556   1.277   0.530 -0.4103  0.4016  0.2229
12055TIP3    H157580   2.556   1.370   0.553  0.4154  0.1470  1.3224
12055TIP3    H257581   2.628   1.240   0.581 -0.6394 -0.8163 -0.3181
12056TIP3   OH257582   6.011   3.243  11.656 -0.0553 -0.2352  0.1290
12056TIP3    H157583   5.965   3.239  11.740 -0.9060  0.0030 -0.3254
12056TIP3    H257584   6.018   3.337  11.637  0.8510 -0.2589  0.3224
12057TIP3   OH257585   6.318   1.931  11.551  0.8235  0.1282  0.1763
12057TIP3    H157586   6.306   1.865  11.483  0.5752  0.4645 -0.1074
12057TIP3    H257587   6.403   1.972  11.530  0.3707  0.7816 -0.4038
12058TIP3   OH257588   2.943   5.775   3.242 -0.1639 -0.7193 -0.0133
12058TIP3    H157589   2.884   5.847   3.219  1.0657  0.2541 -0.1009
12058TIP3    H257590   2.883   5.703   3.265 -1.3976 -0.1487 -1.3385
12059TIP3   OH257591   2.341   1.621   6.335 -0.2500 -0.2971  0.2358
12059TIP3    H157592   2.294   1.587   6.412 -1.4935  0.3980 -0.1949
12059TIP3    H257593   2.276   1.675   6.290  1.2174  1.3913  0.0799
12060TIP3   OH257594   0.434   6.690   3.755 -0.4448 -0.5917  0.2660
12060TIP3    H157595   0.437   6.603   3.796 -1.9394 -1.0129 -0.4968
12060TIP3    H257596   0.398   6.747   3.823 -1.2790 -0.9527  0.1369
12061TIP3   OH257597   4.473   2.020   5.008 -0.3831  0.5358  0.0376
12061TIP3    H157598   4.421   2.087   4.963 -0.2591  1.2101  0.8809
12061TIP3    H257599   4.454   1.939   4.960 -2.2151  0.7766  0.3147
12062TIP3   OH257600   1.860   3.044   2.209 -0.1992  0.0078 -0.4643
12062TIP3    H157601   1.790   3.072   2.268 -1.0345  1.6094 -2.1457
12062TIP3    H257602   1.932   3.105   2.227  0.8530 -1.6975  1.3330
12063TIP3   OH257603   3.901   3.905   2.680  0.0804 -0.5652 -0.1931
12063TIP3    H157604   3.851   3.828   2.652  0.1525  0.0075 -1.9608
12063TIP3    H257605   3.871   3.975   2.622  0.0973  0.7278  1.3184
12064TIP3   OH257606   3.657   6.445   5.643  0.1885 -0.6272  0.1647
12064TIP3    H157607   3.704   6.363   5.653  2.9842  0.9057  0.1999
12064TIP3    H257608   3.698   6.504   5.707  0.0739  1.5318 -1.6691
12065TIP3   OH257609   3.538   5.295  16.109  0.1425 -0.2017 -0.4777
12065TIP3    H157610   3.530   5.202  16.133 -1.2478  0.3695  1.3595
12065TIP3    H257611   3.487   5.304  16.028 -2.2331 -0.4537  0.9587
12066TIP3   OH257612   6.100   5.768   0.077  0.6984 -0.6862 -0.4076
12066TIP3    H157613   6.195   5.759   0.087  0.5451 -0.5941  1.2905
12066TIP3    H257614   6.077   5.707   0.007  2.2163  0.4263 -1.9241
12067TIP3   OH257615   2.694   3.181   0.142 -0.1766  0.3310  0.3141
12067TIP3    H157616   2.646   3.118   0.087  0.0378  1.3071 -1.0368
12067TIP3    H257617   2.725   3.247   0.080  2.9597 -0.2864  1.1532
12068TIP3   OH257618   0.751   3.993  13.344 -0.0446 -0.2426 -0.1453
12068TIP3    H157619   0.681   4.042  13.386  0.6809  1.0706 -0.4410
12068TIP3    H257620   0.723   3.984  13.252  0.8933  1.6938 -0.6462
12069TIP3   OH257621   4.446   3.459   2.116 -0.5413 -0.7947 -0.3316
12069TIP3    H157622   4.531   3.498   2.135 -0.2402  0.6123 -4.2208
12069TIP3    H257623   4.450   3.372   2.155  1.7089  0.1664  1.7132
12070TIP3   OH257624   5.364   5.692   4.806  0.2072 -0.9286  0.2248
12070TIP3    H157625   5.417   5.617   4.833 -1.0884 -1.6321  0.8605
12070TIP3    H257626   5.296   5.699   4.873 -0.8724 -0.4209 -0.9100
12071TIP3   OH257627   6.314   2.143   4.251 -0.2198  0.1203 -0.1317
12071TIP3    H157628   6.344   2.053   4.240  1.0461  0.5391 -0.1895
12071TIP3    H257629   6.225   2.135   4.285 -0.8644 -1.1603 -2.0286
12072TIP3   OH257630   6.762   3.972   3.938  0.2337 -0.3353  0.2889
12072TIP3    H157631   6.771   3.894   3.992 -1.0831 -0.3462  0.4883
12072TIP3    H257632   6.706   4.031   3.989  0.7252  0.5029 -0.1238
12073TIP3   OH257633   1.529   2.921  14.075  0.0897 -0.3829  0.1461
12073TIP3    H157634   1.538   2.826  14.080  1.5428 -0.2224  0.7496
12073TIP3    H257635   1.441   2.938  14.108 -0.8021 -1.6391 -1.5074
12074TIP3   OH257636   3.918   2.889  16.405  0.1324  0.1756  0.0904
12074TIP3    H157637   3.911   2.798  16.377 -0.0257  0.3694 -0.5165
12074TIP3    H257638   3.837   2.930  16.373  0.6577  0.7568 -0.5125
12075TIP3   OH257639   2.096   2.202   2.264 -0.2678  0.0065 -0.4012
12075TIP3    H157640   2.126   2.119   2.226 -0.1769 -1.0289  1.8041
12075TIP3    H257641   2.171   2.234   2.314 -1.5703 -0.6977  2.0852
12076TIP3   OH257642   3.509   0.096  16.598 -0.4282  0.2684 -0.4302
12076TIP3    H157643   3.506   0.164  16.666 -1.5134 -0.1896 -0.0116
12076TIP3    H257644   3.600   0.094  16.570  0.1913 -0.0337  1.5320
12077TIP3   OH257645   0.165   1.131  12.291  0.2970  0.3450  0.5201
12077TIP3    H157646   0.217   1.099  12.217 -0.3581 -2.3002  1.1754
12077TIP3    H257647   0.111   1.201  12.253  0.8328 -0.1788 -1.2460
12078TIP3   OH257648   6.670   1.988  15.825 -0.1754  0.2701  0.3019
12078TIP3    H157649   6.672   1.902  15.867  1.4527 -0.5725 -1.3944
12078TIP3    H257650   6.718   2.045  15.885 -0.6708 -0.1677  1.1162
12079TIP3   OH257651   6.671   3.182  14.846 -0.2009  0.3523 -0.3834
12079TIP3    H157652   6.643   3.247  14.782  0.5246  0.4941 -0.5598
12079TIP3    H257653   6.610   3.192  14.919 -1.5278 -0.3552 -1.3777
12080TIP3   OH257654   3.570   3.131   3.779  0.0607  0.0826  0.0943
12080TIP3    H157655   3.478   3.155   3.786  0.0496 -0.1385  0.8479
12080TIP3    H257656   3.592   3.144   3.687 -1.0101 -0.9278 -0.3214
12081TIP3   OH257657   5.069   1.442   2.861 -0.0866  0.3924  0.8262
12081TIP3    H157658   5.035   1.492   2.935  0.2863  0.2040  1.1275
12081TIP3    H257659   5.055   1.499   2.786 -2.2154 -0.1744  0.7453
12082TIP3   OH257660   4.937   3.117  11.945 -0.0151  0.7759 -0.3308
12082TIP3    H157661   4.999   3.182  11.911 -1.6515  2.3885 -0.3431
12082TIP3    H257662   4.916   3.148  12.033 -0.1642 -0.1991 -0.0226
12083TIP3   OH257663   0.078   4.838   5.570 -0.5321  0.4663 -0.1731
12083TIP3    H157664   0.104   4.751   5.601  0.7532  0.7143 -0.5194
12083TIP3    H257665   0.161   4.881   5.547 -1.2646  1.2572 -1.3953
12084TIP3   OH257666   1.633   1.587  16.843  0.1530  0.4666  0.0899
12084TIP3    H157667   1.545   1.593  16.805  0.9320  1.0135 -1.6610
12084TIP3    H257668   1.619   1.546  16.929 -2.1419  3.2322  1.0997
12085TIP3   OH257669   3.270   1.353  14.232  0.4653 -0.2036 -0.0532
12085TIP3    H157670   3.340   1.375  14.293  0.1969 -0.2946  0.2862
12085TIP3    H257671   3.266   1.257  14.233 -0.7992 -0.1545  1.2165
12086TIP3   OH257672   2.960   6.602   3.040  0.2456  0.3981  0.2803
12086TIP3    H157673   2.932   6.694   3.040  1.2331  0.7139  1.0417
12086TIP3    H257674   2.999   6.589   3.126  3.4826  0.3246 -1.1115
12087TIP3   OH257675   3.019   5.800  16.028  0.8697 -0.4738  0.5375
12087TIP3    H157676   2.938   5.789  16.077  0.8073  0.4156  0.6592
12087TIP3    H257677   3.069   5.865  16.078  1.3035 -0.4078  0.0348
12088TIP3   OH257678   2.739   3.266  13.303 -0.5113 -0.2719 -0.4876
12088TIP3    H157679   2.660   3.214  13.318 -2.5083  3.2207  1.8618
12088TIP3    H257680   2.786   3.264  13.387 -0.2368  1.0517 -0.5885
12089TIP3   OH257681   4.929   5.787  16.966 -0.1089  0.1317  0.2136
12089TIP3    H157682   4.989   5.773  17.040  0.2597 -0.3082 -0.1648
12089TIP3    H257683   4.862   5.846  17.000 -0.8380 -1.3467  1.3964
12090TIP3   OH257684   3.874   5.972   6.301 -0.5670 -0.2789 -0.1765
12090TIP3    H157685   3.884   5.876   6.295 -0.7285 -0.3631  0.8723
12090TIP3    H257686   3.820   5.995   6.225  1.5835 -0.7065 -1.8839
12091TIP3   OH257687   6.375   2.205  15.565  0.0736  0.1413  0.4369
12091TIP3    H157688   6.471   2.210  15.570  0.0984 -0.5171  0.5732
12091TIP3    H257689   6.356   2.112  15.557 -0.5392  0.3088 -0.0550
12092TIP3   OH257690   4.714   4.875  14.788 -0.1417  0.8054  0.0823
12092TIP3    H157691   4.766   4.853  14.865  1.0026  2.1349 -0.2902
12092TIP3    H257692   4.624   4.859  14.815  0.4836 -2.6789  0.3477
12093TIP3   OH257693   1.384   2.477  13.402 -0.3342 -0.7045 -0.3863
12093TIP3    H157694   1.402   2.390  13.436 -2.1081 -1.2152 -0.6887
12093TIP3    H257695   1.368   2.464  13.309 -0.0751  0.0150 -0.5347
12094TIP3   OH257696   5.668   4.322  15.972 -0.4321 -0.1177 -0.0895
12094TIP3    H157697   5.680   4.300  15.880 -1.3434  1.2616 -0.5515
12094TIP3    H257698   5.671   4.238  16.017 -0.3351 -0.8368 -1.4125
12095TIP3   OH257699   0.458   2.659  17.222 -0.5692  0.1847  0.4854
12095TIP3    H157700   0.493   2.700  17.301  2.0652 -1.0511  0.0361
12095TIP3    H257701   0.383   2.608  17.252 -1.7776  2.5793  1.5801
12096TIP3   OH257702   2.945   5.886  14.173  0.2477 -0.4942 -0.0120
12096TIP3    H157703   2.965   5.900  14.266 -1.2499  0.8928  0.1274
12096TIP3    H257704   2.866   5.833  14.172  0.5766 -0.9797 -0.5009
12097TIP3   OH257705   1.788   2.293   2.689  0.5728 -0.1870  0.3897
12097TIP3    H157706   1.772   2.256   2.602  1.0092 -0.2365  0.3298
12097TIP3    H257707   1.826   2.222   2.739 -1.0259 -0.5884  1.0657
12098TIP3   OH257708   6.362   4.441   0.756 -0.4465 -0.0034 -0.0272
12098TIP3    H157709   6.390   4.382   0.686  0.5015 -0.3248  0.6093
12098TIP3    H257710   6.438   4.497   0.773 -0.4152 -0.4021  1.2136
12099TIP3   OH257711   2.912   5.727   4.683 -0.7323 -0.7778  0.4744
12099TIP3    H157712   2.856   5.798   4.651  1.2249 -0.4863 -2.4823
12099TIP3    H257713   2.880   5.650   4.636  0.1402 -0.9484  0.1601
12100TIP3   OH257714   2.083   2.322  14.042  0.4323  0.0615  0.3464
12100TIP3    H157715   1.993   2.353  14.033 -0.0234 -1.3098  0.0909
12100TIP3    H257716   2.097   2.316  14.137  0.2862  0.3437  0.3846
12101TIP3   OH257717   1.476   2.265  17.107 -0.2570 -0.1918 -0.5793
12101TIP3    H157718   1.384   2.240  17.097 -1.1638  3.3109 -1.7657
12101TIP3    H257719   1.516   2.242  17.024 -0.8036  1.0843 -1.2129
12102TIP3   OH257720   1.287   3.755   4.855  0.0842 -0.1395 -0.1536
12102TIP3    H157721   1.288   3.777   4.949  0.7892 -2.1768  0.3407
12102TIP3    H257722   1.378   3.734   4.834 -0.2924 -1.0203 -0.9597
12103TIP3   OH257723   5.240   3.854   5.714  0.3583  0.4448  0.0575
12103TIP3    H157724   5.224   3.782   5.775  1.0739 -0.9977 -1.4165
12103TIP3    H257725   5.261   3.929   5.769 -2.3689  0.0685  1.7063
12104TIP3   OH257726   4.967   6.133  16.410 -0.2241  0.3760  0.8072
12104TIP3    H157727   4.985   6.192  16.483 -0.1988 -0.4758  1.4979
12104TIP3    H257728   4.876   6.105  16.424 -0.3569  0.5327  0.2778
12105TIP3   OH257729   0.357   0.952   0.353  0.8084 -0.2840 -0.1701
12105TIP3    H157730   0.360   1.039   0.312 -1.5749 -0.2553 -0.3608
12105TIP3    H257731   0.364   0.891   0.280 -0.9152 -0.2317 -0.3973
12106TIP3   OH257732   5.927   3.839   1.275  0.3540  0.7249 -0.1460
12106TIP3    H157733   5.998   3.810   1.218  2.3430  0.5021  2.3829
12106TIP3    H257734   5.886   3.758   1.304 -0.1439  0.8104 -0.6025
12107TIP3   OH257735   0.483   4.303   6.990 -0.0408  0.4182 -0.2100
12107TIP3    H157736   0.409   4.358   6.966  0.9023  1.7083 -0.2238
12107TIP3    H257737   0.501   4.251   6.911 -1.8608 -1.0128  0.2781
12108TIP3   OH257738   2.230   1.003  14.492 -0.3874  0.0742  0.0243
12108TIP3    H157739   2.298   1.031  14.553 -0.4679  0.6754 -0.1577
12108TIP3    H257740   2.273   0.938  14.437 -0.2155 -0.2118  0.4965
12109TIP3   OH257741   4.434   1.225  16.095  0.3944  0.0946 -0.3806
12109TIP3    H157742   4.490   1.301  16.081  0.8460  0.2142  1.9646
12109TIP3    H257743   4.358   1.258  16.142 -1.8881 -0.0118 -3.7788
12110TIP3   OH257744   0.423   2.116   1.324  0.0395  0.2836  0.4971
12110TIP3    H157745   0.396   2.087   1.411  1.2197  1.1490  1.1616
12110TIP3    H257746   0.388   2.049   1.264 -0.7724 -0.3089  1.6279
12111TIP3   OH257747   3.139   4.581   4.285 -0.0596 -1.3192  0.6290
12111TIP3    H157748   3.146   4.567   4.379  0.9214 -1.2723  0.5741
12111TIP3    H257749   3.080   4.656   4.276 -0.6476 -1.7109  1.1717
12112TIP3   OH257750   1.456   0.382   4.853 -0.3790  0.5602 -0.2600
12112TIP3    H157751   1.526   0.439   4.822 -0.9116  1.3819  0.0421
12112TIP3    H257752   1.411   0.353   4.773 -1.3662  2.1818 -0.3170
12113TIP3   OH257753   3.224   5.045  13.137  0.4343 -0.4169 -0.4610
12113TIP3    H157754   3.148   4.993  13.165 -0.6528  1.6522  0.5058
12113TIP3    H257755   3.300   4.996  13.171 -0.2840 -3.5789 -3.1685
12114TIP3   OH257756   0.402   0.454  14.130 -0.3284 -0.4081  0.3468
12114TIP3    H157757   0.331   0.456  14.195  0.0036  0.3648  0.6882
12114TIP3    H257758   0.419   0.360  14.117 -0.6386 -0.5816  1.1218
12115TIP3   OH257759   4.504   2.566  10.833  0.0860  0.4951 -0.5109
12115TIP3    H157760   4.540   2.612  10.757  1.0191 -1.3914 -1.2411
12115TIP3    H257761   4.535   2.616  10.908  0.1558  1.6855 -1.3025
12116TIP3   OH257762   4.963   4.747   3.105 -0.1496 -0.1107  0.1515
12116TIP3    H157763   4.972   4.692   3.026 -2.3276 -0.4149  0.0851
12116TIP3    H257764   4.879   4.791   3.094  0.9675  2.2901  0.8323
12117TIP3   OH257765   1.168   0.481   0.065 -0.2544  0.1674  0.3435
12117TIP3    H157766   1.075   0.462   0.076  0.2821 -1.8326  1.5459
12117TIP3    H257767   1.188   0.542   0.136 -0.7155  0.9882 -0.2065
12118TIP3   OH257768   0.965   3.675  14.130  0.4887  0.0284  0.3715
12118TIP3    H157769   0.927   3.589  14.145 -0.0865  0.4344  1.2898
12118TIP3    H257770   0.981   3.678  14.035 -3.0178  0.3645 -0.2571
12119TIP3   OH257771   4.297   1.635  11.889 -0.1705  0.2255  0.3635
12119TIP3    H157772   4.313   1.711  11.833  0.8463 -1.1544 -1.2683
12119TIP3    H257773   4.384   1.606  11.916 -0.5144 -0.6565  0.5534
12120TIP3   OH257774   2.227   3.807  12.990  0.8435 -0.3414  0.1314
12120TIP3    H157775   2.266   3.725  12.961  0.0640 -1.0937  1.1599
12120TIP3    H257776   2.300   3.858  13.026  1.3239 -0.5871 -0.4928
12121TIP3   OH257777   0.125   2.262   2.974  0.4530  0.9692  0.3005
12121TIP3    H157778   0.216   2.286   2.956  0.6439  0.1354  0.1545
12121TIP3    H257779   0.107   2.300   3.060  0.3636  2.6918 -0.4393
12122TIP3   OH257780   3.290   0.699   3.770 -0.4522  0.1335 -0.6004
12122TIP3    H157781   3.229   0.644   3.722 -1.2504  0.6139 -0.1511
12122TIP3    H257782   3.234   0.762   3.817  0.3043 -0.3656  1.0100
12123TIP3   OH257783   3.676   4.636   3.558 -0.0344  0.1273  0.3063
12123TIP3    H157784   3.690   4.731   3.556 -0.4026  0.1839  0.4906
12123TIP3    H257785   3.585   4.625   3.533 -0.3099 -0.1120  1.4062
12124TIP3   OH257786   0.582   2.899  11.546  0.1612  0.1017 -0.2098
12124TIP3    H157787   0.655   2.893  11.485 -0.9494 -1.7999 -1.4303
12124TIP3    H257788   0.506   2.917  11.491 -0.4959  0.7737  0.8915
12125TIP3   OH257789   3.239   3.873   0.657 -0.2174  0.9182  0.0654
12125TIP3    H157790   3.199   3.919   0.732  0.6582  1.1205  0.4082
12125TIP3    H257791   3.311   3.929   0.630 -1.3636  1.5356 -1.8222
12126TIP3   OH257792   1.316   0.600  15.037  0.7186 -0.0012  0.3801
12126TIP3    H157793   1.225   0.585  15.065  0.5267  0.8163  0.2099
12126TIP3    H257794   1.368   0.542  15.093 -0.0125 -1.4540 -0.4093
12127TIP3   OH257795   1.095   1.631  13.498 -0.0045  0.1834  0.2444
12127TIP3    H157796   1.011   1.664  13.528 -0.4248  0.9853 -1.6978
12127TIP3    H257797   1.086   1.535  13.498 -0.6615  0.2490  0.7379
12128TIP3   OH257798   0.201   0.625   0.361 -0.1574 -0.1348 -0.2991
12128TIP3    H157799   0.135   0.558   0.379  1.2783 -1.5368 -0.1429
12128TIP3    H257800   0.203   0.633   0.266 -1.0782  0.4486 -0.2696
12129TIP3   OH257801   1.956   3.735   2.243  0.1417 -0.2175  0.2533
12129TIP3    H157802   1.968   3.675   2.169  0.8312  1.6048 -1.1587
12129TIP3    H257803   1.932   3.678   2.316 -1.0037 -2.0416 -1.4582
12130TIP3   OH257804   4.571   0.540  12.653 -0.1422 -0.0921  0.3715
12130TIP3    H157805   4.519   0.516  12.576 -1.0082  0.8452  0.6538
12130TIP3    H257806   4.652   0.490  12.644 -0.2611 -0.0378 -1.1200
12131TIP3   OH257807   5.146   6.395  17.181  0.4079  0.0846 -0.4224
12131TIP3    H157808   5.104   6.428  17.260  1.5550  1.2712 -0.2963
12131TIP3    H257809   5.123   6.302  17.179 -0.3544  0.2327  0.8324
12132TIP3   OH257810   6.184   5.901  14.093 -0.2062 -0.1964 -0.2189
12132TIP3    H157811   6.136   5.818  14.096 -0.4018 -0.1528 -1.6170
12132TIP3    H257812   6.130   5.957  14.037  1.0098  0.1632 -1.0463
12133TIP3   OH257813   6.464   6.658  13.153  0.4727 -0.2648  0.4312
12133TIP3    H157814   6.558   6.638  13.147  0.6544  0.7947 -0.4334
12133TIP3    H257815   6.425   6.579  13.190  1.9133 -0.1898  2.2231
12134TIP3   OH257816   5.348   3.191  12.067 -0.7368  0.1751  0.2933
12134TIP3    H157817   5.335   3.122  12.002 -0.7584 -0.1234  0.6202
12134TIP3    H257818   5.443   3.201  12.071 -0.6181 -1.5365  2.0525
12135TIP3   OH257819   6.063   4.452   3.711  0.5370  0.6356  0.3743
12135TIP3    H157820   6.109   4.392   3.652  2.0193  0.2400  1.8965
12135TIP3    H257821   6.010   4.395   3.767  1.4806  0.7687  1.4196
12136TIP3   OH257822   3.410   4.603   4.001  0.1059  0.9172  0.0995
12136TIP3    H157823   3.419   4.516   3.962  1.3789  0.8344  0.5548
12136TIP3    H257824   3.315   4.620   4.001 -0.0912 -0.1329 -0.7010
12137TIP3   OH257825   6.469   6.524   0.222  0.1156 -0.3448 -0.6007
12137TIP3    H157826   6.504   6.512   0.310  2.2649  0.7230 -1.2863
12137TIP3    H257827   6.456   6.435   0.190 -0.6225 -0.7478  0.7449
12138TIP3   OH257828   4.023   5.219  14.232  0.3176  0.4638 -0.1422
12138TIP3    H157829   3.969   5.140  14.243 -0.1726  0.7622 -0.4010
12138TIP3    H257830   3.994   5.278  14.300  1.4139  0.0283  0.7238
12139TIP3   OH257831   6.401   6.420   3.448 -0.1284  0.0094  0.5285
12139TIP3    H157832   6.336   6.414   3.519 -1.1979  0.2054 -0.4242
12139TIP3    H257833   6.477   6.461   3.489 -1.1240  1.1203  1.3079
12140TIP3   OH257834   4.059   0.242  14.624 -0.0431  0.1433 -0.1251
12140TIP3    H157835   4.054   0.146  14.619  0.9349  0.0733  0.0116
12140TIP3    H257836   4.059   0.271  14.532 -1.9348  0.1155 -0.1364
12141TIP3   OH257837   3.456   4.308  17.223  0.5536 -0.3822  0.0872
12141TIP3    H157838   3.385   4.329  17.163  1.0241 -0.6467 -0.5728
12141TIP3    H257839   3.441   4.216  17.246  0.7634 -0.4808 -0.1676
12142TIP3   OH257840   4.246   3.674   1.712  0.9123  0.5336 -0.4258
12142TIP3    H157841   4.245   3.608   1.781  1.0119 -0.6707 -1.5473
12142TIP3    H257842   4.234   3.757   1.757 -0.6098 -0.3691  0.8895
12143TIP3   OH257843   2.257   6.719  13.825  0.1228 -0.1791  0.1519
12143TIP3    H157844   2.230   6.628  13.812 -0.7776  0.1906 -0.6586
12143TIP3    H257845   2.175   6.766  13.842  0.7195  0.2728  1.8815
12144TIP3   OH257846   4.978   1.662   0.087  0.0293  0.5602 -0.2557
12144TIP3    H157847   4.971   1.700   0.174  1.8382  1.4337 -0.4770
12144TIP3    H257848   5.065   1.623   0.084 -0.5431 -0.6956 -1.1958
12145TIP3   OH257849   3.277   3.644  11.459 -0.1069 -0.1693  0.6033
12145TIP3    H157850   3.314   3.661  11.546  0.3068  0.0610  0.3819
12145TIP3    H257851   3.214   3.573  11.474  0.1935 -0.3537  1.0354
12146TIP3   OH257852   1.493   1.992  13.413  0.1616  0.2152  0.2953
12146TIP3    H157853   1.464   1.918  13.465  0.9556 -0.4197 -0.1528
12146TIP3    H257854   1.514   1.955  13.327 -0.5260  1.1475 -0.2789
12147TIP3   OH257855   3.729   6.359  11.825  0.2848 -0.2180  0.0322
12147TIP3    H157856   3.714   6.448  11.792 -2.0330 -0.2815  0.7867
12147TIP3    H257857   3.749   6.307  11.747  3.5237  1.2942 -0.2034
12148TIP3   OH257858   3.028   1.794   3.848 -0.5137  0.1640  0.2484
12148TIP3    H157859   3.016   1.825   3.938  0.2063  1.5015 -0.1084
12148TIP3    H257860   3.115   1.825   3.823 -1.0013  0.4173 -1.1566
12149TIP3   OH257861   3.384   6.411   4.302  0.5450  0.6167 -0.3796
12149TIP3    H157862   3.379   6.372   4.214  0.0501 -1.1022  0.3916
12149TIP3    H257863   3.476   6.399   4.327  0.3866 -0.1376 -0.1280
12150TIP3   OH257864   2.879   0.254  12.888  0.8627 -0.1214  0.5019
12150TIP3    H157865   2.854   0.191  12.820  2.2028 -0.4291  0.2704
12150TIP3    H257866   2.796   0.287  12.922  0.1317  1.0080 -2.1677
12151TIP3   OH257867   6.643   6.536   6.022  0.3418 -0.2783 -0.1325
12151TIP3    H157868   6.613   6.531   5.931  2.3758  0.1000 -0.8381
12151TIP3    H257869   6.723   6.484   6.024  0.0578 -0.6702  1.5641
12152TIP3   OH257870   5.375   5.015  12.444  0.7215 -0.3287 -0.5273
12152TIP3    H157871   5.312   5.070  12.491  0.6801 -1.5806  0.9034
12152TIP3    H257872   5.399   5.067  12.367 -1.2314  0.6185 -0.5284
12153TIP3   OH257873   0.020   6.305   4.463  0.9491 -0.5265 -0.3173
12153TIP3    H157874   0.001   6.213   4.445 -1.3834 -0.3610  1.0359
12153TIP3    H257875  -0.006   6.351   4.383 -0.5367 -0.7574  0.0254
12154TIP3   OH257876   3.433   4.973  16.714  0.0537 -0.0647  0.1326
12154TIP3    H157877   3.447   4.979  16.808  0.3893  0.2154  0.0656
12154TIP3    H257878   3.416   5.063  16.686  0.5757 -0.0559 -0.1652
12155TIP3   OH257879   2.686   4.413   1.892  0.1473  0.1106 -0.2145
12155TIP3    H157880   2.715   4.504   1.891  0.8449 -0.0833 -3.2075
12155TIP3    H257881   2.594   4.417   1.865 -0.2583  0.0394  1.1330
12156TIP3   OH257882   2.887   0.694   4.365  0.2775 -0.6282  0.5417
12156TIP3    H157883   2.902   0.645   4.284 -0.5264  1.7136 -1.0836
12156TIP3    H257884   2.928   0.779   4.349 -2.4315  0.9090  1.4398
12157TIP3   OH257885   1.660   2.255   0.577  0.6155 -0.8561  0.0099
12157TIP3    H157886   1.751   2.281   0.588  0.7819 -1.4339  0.0188
12157TIP3    H257887   1.623   2.258   0.665  0.2440  0.7582 -0.1855
12158TIP3   OH257888   0.585   3.974   4.600  0.4533  0.4067  0.6029
12158TIP3    H157889   0.591   3.959   4.694  2.6923 -0.2867  0.3965
12158TIP3    H257890   0.595   4.069   4.589 -0.1473  0.5219  1.0926
12159TIP3   OH257891   5.681   2.268  15.136 -0.3944  0.2428 -0.2898
12159TIP3    H157892   5.648   2.320  15.063 -1.5839  0.6491  0.5163
12159TIP3    H257893   5.649   2.179  15.118  0.6116  0.0327 -1.0473
12160TIP3   OH257894   5.621   0.616   1.397 -0.2636  0.2090 -0.4306
12160TIP3    H157895   5.544   0.597   1.344 -0.4336  1.0258 -0.4786
12160TIP3    H257896   5.608   0.567   1.478 -1.5408  1.5128  0.1627
12161TIP3   OH257897   4.390   3.217   4.099  0.0587 -0.0652 -0.0560
12161TIP3    H157898   4.452   3.276   4.142 -0.6166  0.9750 -0.4674
12161TIP3    H257899   4.339   3.274   4.041 -0.3880 -1.1141 -0.7213
12162TIP3   OH257900   3.816   2.493   5.725  0.2852  0.1628  0.1617
12162TIP3    H157901   3.897   2.543   5.717 -0.2881  1.0559 -0.2130
12162TIP3    H257902   3.762   2.545   5.785 -0.6688  0.4966 -0.9559
12163TIP3   OH257903   5.180   4.861   0.516 -0.0334 -0.2189 -0.2901
12163TIP3    H157904   5.174   4.793   0.448  0.6114 -2.3714  1.7597
12163TIP3    H257905   5.089   4.884   0.534 -0.3294 -1.7114  0.1510
12164TIP3   OH257906   3.018   1.285  14.297  0.3529  0.0871 -0.0633
12164TIP3    H157907   3.040   1.318  14.383  2.3497  1.1274 -0.9451
12164TIP3    H257908   3.089   1.315  14.240 -2.6241  2.4076 -2.7791
12165TIP3   OH257909   6.458   4.798   5.356  0.2364 -0.2251  0.0802
12165TIP3    H157910   6.443   4.893   5.358  0.3687 -0.2234  2.2597
12165TIP3    H257911   6.379   4.762   5.315 -0.4813  0.7106  0.6155
12166TIP3   OH257912   2.217   1.303  15.217 -0.0814  0.2987  0.5822
12166TIP3    H157913   2.249   1.274  15.302 -0.4043 -0.9742  0.2923
12166TIP3    H257914   2.229   1.227  15.160  0.6573  1.3123 -0.6592
12167TIP3   OH257915   2.355   6.262   3.304 -0.5119  0.1834 -0.7734
12167TIP3    H157916   2.261   6.274   3.301 -0.3699  1.4635 -0.5523
12167TIP3    H257917   2.381   6.296   3.390 -0.0813 -2.0018 -0.0006
12168TIP3   OH257918   3.318   6.491  16.217 -0.1380  0.3980 -0.0799
12168TIP3    H157919   3.390   6.515  16.275 -1.5481 -0.1151  1.9429
12168TIP3    H257920   3.245   6.545  16.247 -1.1393 -0.5733 -0.7760
12169TIP3   OH257921   0.254   2.705   3.708  0.6500  0.3521  0.0282
12169TIP3    H157922   0.334   2.753   3.729  1.7820 -0.9821 -1.1881
12169TIP3    H257923   0.232   2.659   3.789 -0.0094  2.2328  0.9744
12170TIP3   OH257924   6.378   3.388   5.604  0.2065  0.0973 -0.4788
12170TIP3    H157925   6.415   3.375   5.691  1.3926 -0.0184 -0.9862
12170TIP3    H257926   6.378   3.300   5.565 -1.6141 -0.0842 -0.0994
12171TIP3   OH257927   6.676   3.746   0.158 -0.3890 -0.4037 -0.0558
12171TIP3    H157928   6.770   3.762   0.159 -0.3798 -0.5128  0.8341
12171TIP3    H257929   6.667   3.653   0.135 -0.2652 -0.4676  0.1517
12172TIP3   OH257930   5.424   2.677  12.906  0.0730 -0.1614  0.0035
12172TIP3    H157931   5.453   2.736  12.976 -1.2945  0.2380  0.2492
12172TIP3    H257932   5.407   2.594  12.950  3.5797 -1.2968 -0.5906
12173TIP3   OH257933   4.411   6.561  12.898  0.3403  0.2234  0.3878
12173TIP3    H157934   4.344   6.504  12.937  1.0571 -0.6726  0.3409
12173TIP3    H257935   4.367   6.603  12.824 -1.3659  2.7783  2.7521
12174TIP3   OH257936   1.693   5.501  13.024  0.2144  0.6632 -0.8336
12174TIP3    H157937   1.726   5.429  13.078  2.5047  0.8620 -1.9099
12174TIP3    H257938   1.652   5.560  13.087 -0.9221 -1.1305  0.1736
12175TIP3   OH257939   5.162   3.305   1.472  0.3968  0.6183 -0.1475
12175TIP3    H157940   5.085   3.344   1.513  0.3363  0.8947 -0.5186
12175TIP3    H257941   5.138   3.213   1.460  0.0194  0.7560 -0.4919
12176TIP3   OH257942   3.424   6.350  11.062  0.4450 -0.0221  0.3809
12176TIP3    H157943   3.462   6.438  11.059  0.3117  0.0399  0.5121
12176TIP3    H257944   3.350   6.354  11.002 -0.4902  0.3978  1.5495
12177TIP3   OH257945   0.589   4.185  17.124 -0.8490 -0.4999 -0.1646
12177TIP3    H157946   0.645   4.146  17.191  0.2472  0.4371 -0.5271
12177TIP3    H257947   0.636   4.263  17.095 -1.0572 -1.1719 -2.4160
12178TIP3   OH257948   5.296   2.810   1.731 -0.5114  0.0196 -0.2719
12178TIP3    H157949   5.276   2.892   1.685 -0.4746 -1.2617 -2.6344
12178TIP3    H257950   5.210   2.776   1.757 -0.6580 -0.0740 -0.8700
12179TIP3   OH257951   3.579   6.059  10.929 -0.1640  0.5383 -0.4208
12179TIP3    H157952   3.653   6.103  10.971 -0.8315  1.6100 -0.3421
12179TIP3    H257953   3.602   6.056  10.836  0.6052 -0.4127 -0.2090
12180TIP3   OH257954   6.059   4.104  12.715  0.0160 -0.6245  0.4301
12180TIP3    H157955   6.037   4.196  12.728 -0.6422 -0.9324  1.6069
12180TIP3    H257956   6.143   4.093  12.758  0.0911 -0.5674  0.2965
12181TIP3   OH257957   1.584   3.987  15.700 -0.6677  0.0639 -0.2705
12181TIP3    H157958   1.649   3.961  15.635  0.2401  0.3219  0.5184
12181TIP3    H257959   1.561   4.077  15.676 -0.4966  0.0815 -0.3657
12182TIP3   OH257960   2.685   0.621  15.688  0.5744  0.3173 -0.3050
12182TIP3    H157961   2.776   0.649  15.675  0.2024  1.3900 -0.7043
12182TIP3    H257962   2.673   0.549  15.626  1.2972 -0.1532  0.0983
12183TIP3   OH257963   0.007   0.103   4.310 -0.5266 -0.3206  0.0286
12183TIP3    H157964  -0.029   0.062   4.232  1.1259 -2.2592  0.2611
12183TIP3    H257965  -0.045   0.066   4.382 -1.6992  1.0677 -0.0788
12184TIP3   OH257966   5.940   3.945   0.521  0.1603 -0.3488 -0.0450
12184TIP3    H157967   6.001   3.986   0.459 -0.5938 -0.9378 -1.1822
12184TIP3    H257968   5.988   3.870   0.555  1.0689  0.7195  1.0896
12185TIP3   OH257969   1.195   3.986   3.345 -0.1663  0.2271 -0.7807
12185TIP3    H157970   1.176   3.905   3.297  1.4521 -0.5135 -0.2301
12185TIP3    H257971   1.159   3.970   3.433 -1.2586  0.7431 -1.1321
12186TIP3   OH257972   0.735   6.560   2.469  0.0629  0.0763  0.3960
12186TIP3    H157973   0.683   6.580   2.391  0.4510 -1.1518 -0.1863
12186TIP3    H257974   0.768   6.472   2.454  0.4263 -0.0385  1.8053
12187TIP3   OH257975   1.951   5.648   5.265  0.3829  0.5071  0.5979
12187TIP3    H157976   1.867   5.604   5.279  0.3830 -0.9061 -3.3307
12187TIP3    H257977   1.928   5.740   5.249 -0.4309  0.1335 -0.4389
12188TIP3   OH257978   6.749   5.395   3.008 -0.9190 -0.2796  0.2533
12188TIP3    H157979   6.822   5.347   2.967 -0.3833  1.1227 -0.4479
12188TIP3    H257980   6.777   5.406   3.099 -1.4957 -2.1683  0.6934
12189TIP3   OH257981   1.133   5.899  13.493  0.1282  0.5369 -0.5399
12189TIP3    H157982   1.066   5.831  13.486 -0.6410  1.0546  1.3539
12189TIP3    H257983   1.083   5.981  13.501  0.9907  0.9613  0.5539
12190TIP3   OH257984   6.162   3.610   3.409  0.4582  0.1061 -0.5708
12190TIP3    H157985   6.151   3.516   3.391  3.6997 -0.2365 -0.9303
12190TIP3    H257986   6.128   3.653   3.331 -0.9910 -0.7424 -0.4347
12191TIP3   OH257987   3.944   5.254   4.713 -0.0473 -0.2769 -0.0185
12191TIP3    H157988   3.866   5.209   4.681 -1.2063  0.3686  1.8065
12191TIP3    H257989   3.910   5.320   4.774  1.9695 -0.6883  1.6000
12192TIP3   OH257990   3.446   0.372   5.540 -0.0965 -0.4573 -0.2366
12192TIP3    H157991   3.406   0.407   5.461 -1.6914  0.1390  0.8190
12192TIP3    H257992   3.535   0.408   5.539 -0.1867 -0.2469 -1.6188
12193TIP3   OH257993   4.972   5.001  11.772 -0.3492 -0.0147 -0.3075
12193TIP3    H157994   5.060   4.982  11.804  0.5948  1.9234 -1.6132
12193TIP3    H257995   4.918   5.011  11.850  0.9440  0.3316  0.5426
12194TIP3   OH257996   6.302   1.836   4.141  0.2938  0.3573 -0.3670
12194TIP3    H157997   6.257   1.887   4.073  0.1279  0.8862  0.1377
12194TIP3    H257998   6.232   1.799   4.194  0.4349  2.1697  1.1527
12195TIP3   OH257999   2.592   6.087   3.264 -0.1529  0.1361 -0.1601
12195TIP3    H158000   2.512   6.140   3.261 -0.7546 -0.7113  0.7687
12195TIP3    H258001   2.566   6.003   3.226  0.5971  0.2228 -0.8936
12196TIP3   OH258002   1.172   1.523   4.678 -0.0780  0.3093  0.4425
12196TIP3    H158003   1.196   1.517   4.586 -2.7129  2.7766 -0.4834
12196TIP3    H258004   1.081   1.494   4.681 -0.2415  0.9585  2.1450
12197TIP3   OH258005   6.455   2.270  13.486  0.2629  0.2788  0.6149
12197TIP3    H158006   6.524   2.207  13.508 -0.3236 -0.4294  0.4332
12197TIP3    H258007   6.400   2.224  13.423 -1.5838  0.0734  2.3290
12198TIP3   OH258008   1.703   3.593   3.062  0.2594 -0.6695  0.1570
12198TIP3    H158009   1.622   3.634   3.090 -0.4657 -1.7774 -0.2825
12198TIP3    H258010   1.706   3.607   2.967  1.2180  0.4700  0.3464
12199TIP3   OH258011   0.179   3.257  16.829 -0.3806  0.8561 -0.2186
12199TIP3    H158012   0.212   3.264  16.919 -1.6894 -1.7452  0.5187
12199TIP3    H258013   0.256   3.274  16.774  0.4882  2.2566  1.3868
12200TIP3   OH258014   0.124   1.458  13.912 -0.2987  0.0655 -0.0762
12200TIP3    H158015   0.156   1.518  13.980  1.2301 -0.8172  0.0004
12200TIP3    H258016   0.170   1.485  13.832  0.1215 -0.7573 -0.1200
12201TIP3   OH258017   6.279   3.082   5.188  0.3149 -0.0285 -0.0084
12201TIP3    H158018   6.259   3.044   5.102 -2.9415 -1.2288  1.1902
12201TIP3    H258019   6.345   3.023   5.225 -0.6450 -1.3603 -0.3963
12202TIP3   OH258020   1.193   0.153  11.437 -0.2792  0.0340  0.5586
12202TIP3    H158021   1.241   0.131  11.358 -0.7084  1.6285 -0.1742
12202TIP3    H258022   1.127   0.084  11.445 -0.1288 -0.2294 -0.3896
12203TIP3   OH258023   1.635   5.277   2.912  0.2316 -0.3260 -0.2744
12203TIP3    H158024   1.689   5.345   2.871 -2.4586  2.1723  0.1670
12203TIP3    H258025   1.569   5.255   2.845  0.3336 -1.6531  0.0364
12204TIP3   OH258026   2.888   0.713  12.789  0.5297  0.2057  0.0206
12204TIP3    H158027   2.929   0.727  12.703 -0.0466  0.7445 -0.1748
12204TIP3    H258028   2.843   0.629  12.780 -0.6319  0.8839 -0.6501
12205TIP3   OH258029   4.421   2.999  16.430 -0.0429  0.2444  0.3261
12205TIP3    H158030   4.339   2.995  16.381 -0.9606 -0.2479  1.8936
12205TIP3    H258031   4.428   3.091  16.457  1.0313  0.7858 -1.6137
12206TIP3   OH258032   1.073   2.056  13.753 -0.1624  0.3617 -0.0734
12206TIP3    H158033   0.999   2.086  13.701 -0.9751  1.2304  1.5186
12206TIP3    H258034   1.043   1.973  13.791 -0.6859  1.1347  1.2566
12207TIP3   OH258035   2.643   0.017   5.876  0.0980  0.2868  0.2767
12207TIP3    H158036   2.703  -0.025   5.937  0.6944 -1.6544 -1.5869
12207TIP3    H258037   2.560   0.020   5.924  0.6487 -0.8195  1.3444
12208TIP3   OH258038   5.063   2.956   1.926  0.4949 -0.0591  0.3609
12208TIP3    H158039   5.080   2.913   1.842  0.8183 -0.2051  0.5002
12208TIP3    H258040   4.969   2.973   1.926  0.4661 -0.2262  0.0471
12209TIP3   OH258041   4.515   4.635   4.805 -0.2283  0.0623 -0.5801
12209TIP3    H158042   4.554   4.721   4.819 -2.4042  1.1535 -0.9793
12209TIP3    H258043   4.491   4.605   4.893 -2.3937  1.3114 -0.7216
12210TIP3   OH258044   5.096   2.699  10.487  0.1161  0.1566  0.3421
12210TIP3    H158045   5.171   2.648  10.456 -0.5047 -0.0605 -0.8742
12210TIP3    H258046   5.030   2.689  10.417 -0.7772  0.9192  1.0554
12211TIP3   OH258047   2.264   3.327  16.153  0.4899  0.0649  0.4493
12211TIP3    H158048   2.246   3.412  16.193 -0.6437 -0.5652  1.2945
12211TIP3    H258049   2.299   3.349  16.066  2.9098  1.4435  1.6921
12212TIP3   OH258050   4.038   5.638  15.274 -0.0168 -0.1708  0.1261
12212TIP3    H158051   3.972   5.686  15.223  0.8164 -0.8841 -1.6260
12212TIP3    H258052   3.992   5.615  15.355 -1.0816  1.7250  0.0896
12213TIP3   OH258053   0.878   4.964  14.204 -0.2371  0.1162  0.1683
12213TIP3    H158054   0.952   4.910  14.232 -0.6147 -0.6360 -0.2802
12213TIP3    H258055   0.818   4.964  14.279 -0.9371 -1.3459 -0.3706
12214TIP3   OH258056   4.078   5.035  16.518  0.1626  0.1839 -0.3485
12214TIP3    H158057   4.154   4.976  16.512  0.8270  1.1183 -1.3910
12214TIP3    H258058   4.006   4.984  16.481  0.8032  0.1299 -1.5423
12215TIP3   OH258059   1.711   3.056  11.505  0.3534  0.1609  0.0351
12215TIP3    H158060   1.784   3.098  11.460 -0.6097  0.7113 -1.0249
12215TIP3    H258061   1.634   3.108  11.481 -0.4576 -0.6449  0.8201
12216TIP3   OH258062   3.381   5.212   1.614 -0.2155  0.3565 -0.5196
12216TIP3    H158063   3.324   5.264   1.670 -0.2804  0.7761 -0.9748
12216TIP3    H258064   3.325   5.142   1.581 -0.3227  0.4466 -0.5252
12217TIP3   OH258065   0.448   2.143   3.170 -0.6905  0.5614 -0.0702
12217TIP3    H158066   0.384   2.081   3.205 -2.1577  1.6552 -0.7670
12217TIP3    H258067   0.529   2.121   3.215 -2.0947  0.7538  2.6882
12218TIP3   OH258068   1.009   4.078  10.893 -0.2851  0.2380  0.2313
12218TIP3    H158069   0.914   4.080  10.881 -0.4320  0.5901  1.4580
12218TIP3    H258070   1.040   4.157  10.848 -0.6651  0.6249  0.6436
12219TIP3   OH258071   1.026   1.292   0.800  0.1161 -0.4839  0.3336
12219TIP3    H158072   1.098   1.341   0.838  1.0742 -1.6811  0.0996
12219TIP3    H258073   1.008   1.336   0.717 -2.1680  2.3093  2.2267
12220TIP3   OH258074   2.549   6.658  11.435  0.0658 -0.7340 -0.0935
12220TIP3    H158075   2.467   6.703  11.415  0.8064  2.2182  3.0208
12220TIP3    H258076   2.614   6.699  11.377 -0.2240 -1.3335 -0.8327
12221TIP3   OH258077   5.081   6.131  17.187 -1.2572 -0.4792 -0.0101
12221TIP3    H158078   5.168   6.094  17.206 -1.4579 -2.1569 -2.1795
12221TIP3    H258079   5.028   6.108  17.263 -0.1873 -0.7706  0.6626
12222TIP3   OH258080   6.031   2.186  16.324  0.4223 -0.5776 -0.2038
12222TIP3    H158081   6.052   2.111  16.269 -0.1501 -0.7839 -0.1417
12222TIP3    H258082   5.939   2.205  16.305  0.7511  0.5609 -0.7624
12223TIP3   OH258083   2.866   4.640  10.699  0.3950  0.2365 -0.5078
12223TIP3    H158084   2.960   4.641  10.713  0.5317  0.3715 -1.4226
12223TIP3    H258085   2.832   4.576  10.762  0.9051  1.4249  1.0011
12224TIP3   OH258086   5.069   4.429   2.518  0.4632  0.5256  0.3947
12224TIP3    H158087   5.140   4.402   2.576 -0.2594 -2.2976  0.0616
12224TIP3    H258088   4.989   4.405   2.566 -0.2079  1.1302 -0.3961
12225TIP3   OH258089   2.710   5.742   3.725  0.3263 -0.1523  0.0812
12225TIP3    H158090   2.714   5.809   3.657 -1.2360 -0.0308  0.0794
12225TIP3    H258091   2.649   5.676   3.691  0.4064 -0.6450  0.8695
12226TIP3   OH258092   2.920   3.827  16.060  0.5558 -0.2014 -0.2026
12226TIP3    H158093   2.857   3.871  16.003  1.7463  0.0164 -1.3667
12226TIP3    H258094   2.914   3.875  16.143 -0.4492  0.1254 -0.4599
12227TIP3   OH258095   0.336   0.849  13.895 -0.1999 -0.6123  0.1548
12227TIP3    H158096   0.416   0.839  13.843  0.5390 -0.7921  1.3052
12227TIP3    H258097   0.303   0.936  13.872  0.5370 -0.3834 -0.0407
12228TIP3   OH258098   0.310   3.841   2.315  0.7770  0.2026  0.3614
12228TIP3    H158099   0.301   3.749   2.343 -2.3617  0.4184  0.2346
12228TIP3    H258100   0.300   3.839   2.220 -1.6806  0.8763  0.5619
12229TIP3   OH258101   2.768   5.174  15.515  0.3076  0.3315 -0.5835
12229TIP3    H158102   2.783   5.084  15.486 -0.5382 -0.0495  0.1513
12229TIP3    H258103   2.827   5.185  15.590 -0.0706  0.1805 -0.2668
12230TIP3   OH258104   5.010   0.799   2.787  0.2214  0.1745  0.0834
12230TIP3    H158105   4.936   0.748   2.754 -0.7554  2.6860 -1.7709
12230TIP3    H258106   5.019   0.871   2.724  1.6749  2.1652  2.4961
12231TIP3   OH258107   4.013   5.945  13.095 -0.3631  0.1636  0.3770
12231TIP3    H158108   4.002   6.026  13.143 -0.0330 -0.6478  1.8308
12231TIP3    H258109   4.105   5.944  13.068 -0.2001 -0.0556  0.9459
12232TIP3   OH258110   0.345   6.155   3.383  0.3537  0.1624  0.2844
12232TIP3    H158111   0.389   6.199   3.310  0.9653  0.8821  1.0648
12232TIP3    H258112   0.378   6.065   3.380 -0.9705 -0.3020 -1.3790
12233TIP3   OH258113   1.653   3.089   2.029  0.4591  0.4669  0.0471
12233TIP3    H158114   1.711   3.053   2.097  0.3459 -2.3882 -1.2928
12233TIP3    H258115   1.566   3.089   2.069  0.3945 -1.1961 -0.0453
12234TIP3   OH258116   6.656   4.925  12.643  0.3014 -0.2590  0.0010
12234TIP3    H158117   6.614   4.878  12.716  1.5668  0.6187  1.3315
12234TIP3    H258118   6.613   5.011  12.643 -0.3400 -0.5712 -0.9005
12235TIP3   OH258119   5.482   5.063  16.997  0.0571  0.0619  0.1387
12235TIP3    H158120   5.403   5.022  16.963  0.3106  1.0273 -1.6467
12235TIP3    H258121   5.449   5.137  17.049 -0.1994  1.0161 -1.3561
12236TIP3   OH258122   3.919   1.074  15.662  0.2146 -0.1097  0.3282
12236TIP3    H158123   3.875   1.127  15.596  1.4432  1.3747  0.6784
12236TIP3    H258124   3.988   1.028  15.613  1.1271  0.9923  0.5673
12237TIP3   OH258125   4.901   0.047   0.585  0.4614 -0.0889 -0.1185
12237TIP3    H158126   4.985   0.002   0.593  0.5185  0.1764  0.8330
12237TIP3    H258127   4.863   0.041   0.673  0.2652  1.3160 -0.1013
12238TIP3   OH258128   3.651   3.791   3.569 -0.0254  0.3309  0.2347
12238TIP3    H158129   3.651   3.697   3.587  0.2898  0.4894  1.1069
12238TIP3    H258130   3.586   3.826   3.630 -0.2549  0.6569 -0.1999
12239TIP3   OH258131   0.307   5.580  15.569  0.0214  0.4928 -0.4765
12239TIP3    H158132   0.320   5.668  15.605 -0.1802  1.1573 -1.9616
12239TIP3    H258133   0.386   5.563  15.518 -0.4892  0.3723 -1.2535
12240TIP3   OH258134   2.234   6.701  13.226 -0.4283  1.3478 -0.3924
12240TIP3    H158135   2.316   6.748  13.245 -0.6651  2.0164 -1.0200
12240TIP3    H258136   2.259   6.636  13.160 -0.4447  1.7022 -0.7530
12241TIP3   OH258137   6.465   2.659  15.415  0.4883  0.1777  0.7786
12241TIP3    H158138   6.530   2.675  15.483  0.5797  0.8000  0.5443
12241TIP3    H258139   6.414   2.585  15.448  1.8775 -0.8853  0.5526
12242TIP3   OH258140   3.229   2.687  12.813  0.0397 -0.0107 -0.2502
12242TIP3    H158141   3.260   2.774  12.837  1.4813  0.1935 -2.7624
12242TIP3    H258142   3.303   2.629  12.830 -0.8827 -0.7658  1.3190
12243TIP3   OH258143   2.486   2.561   0.769 -0.5679 -0.2056  0.2303
12243TIP3    H158144   2.498   2.596   0.857 -3.4330 -2.1851  1.4909
12243TIP3    H258145   2.397   2.587   0.745  0.2632  0.5260 -2.2000
12244TIP3   OH258146   5.274   3.691  12.248 -0.2274  0.2157 -0.0467
12244TIP3    H158147   5.297   3.783  12.259  1.6754 -0.0564 -1.5707
12244TIP3    H258148   5.345   3.654  12.195 -0.5070 -2.3326  1.2783
12245TIP3   OH258149   0.477   4.280   3.116  0.1721 -0.4435  0.0011
12245TIP3    H158150   0.469   4.340   3.190 -0.7467  1.0959 -1.3231
12245TIP3    H258151   0.551   4.315   3.065 -0.5555 -0.2470 -0.9321
12246TIP3   OH258152   5.579   0.433   3.971  0.0118  0.0103 -0.2295
12246TIP3    H158153   5.565   0.471   3.884  0.5789  0.6308 -0.0516
12246TIP3    H258154   5.656   0.478   4.005 -1.2599  1.0838  1.3194
12247TIP3   OH258155   5.324   2.049  11.987 -0.1486  0.1252  0.0153
12247TIP3    H158156   5.282   1.995  12.054  1.3322  0.6781  1.4141
12247TIP3    H258157   5.417   2.028  11.994 -0.0497 -0.3716 -2.4046
12248TIP3   OH258158   6.183   2.560   0.521 -0.3271  0.4927 -0.4936
12248TIP3    H158159   6.096   2.521   0.518 -0.5470  0.8696  0.6072
12248TIP3    H258160   6.187   2.603   0.607  1.4043 -0.5901 -0.0075
12249TIP3   OH258161   6.164   1.633  13.601  0.5364 -0.0506 -0.0500
12249TIP3    H158162   6.137   1.612  13.690  0.8163 -0.3652 -0.0395
12249TIP3    H258163   6.083   1.627  13.550  0.2772  0.6343  0.2679
12250TIP3   OH258164   5.917   0.005  12.937  0.3346  0.1464 -0.3652
12250TIP3    H158165   5.863   0.078  12.966 -1.6085 -0.6221 -1.9630
12250TIP3    H258166   5.950  -0.034  13.018 -0.6090  1.2965  0.5890
12251TIP3   OH258167   5.433   6.649   5.146 -0.3290  0.3137  0.0835
12251TIP3    H158168   5.432   6.601   5.064 -0.2411  1.1792 -0.4270
12251TIP3    H258169   5.501   6.605   5.198 -0.8269 -0.6276 -0.0603
12252TIP3   OH258170   1.266   5.770  17.075 -0.1310 -0.7953  0.5682
12252TIP3    H158171   1.268   5.859  17.038  1.1894 -0.5174  1.2661
12252TIP3    H258172   1.193   5.771  17.137  0.5049  0.1340  1.3249
12253TIP3   OH258173   6.120   6.582  12.381 -0.3486 -0.2154  0.3258
12253TIP3    H158174   6.124   6.538  12.296 -0.3506 -0.4875  0.4673
12253TIP3    H258175   6.031   6.618  12.385 -0.3167 -0.1188  0.1741
12254TIP3   OH258176   0.764   4.202   1.309  0.0375 -0.4676  0.4835
12254TIP3    H158177   0.795   4.246   1.230 -0.7768 -1.6699 -0.5392
12254TIP3    H258178   0.678   4.240   1.326  0.6208  0.4783  1.3668
12255TIP3   OH258179   1.039   0.825  11.948 -0.7938  0.5743  0.3650
12255TIP3    H158180   1.065   0.893  11.886 -0.8036  0.3097  0.0662
12255TIP3    H258181   0.949   0.846  11.972 -1.1922  0.0153 -0.6180
12256TIP3   OH258182   4.368   0.127   2.496 -0.3722 -0.0076  0.8397
12256TIP3    H158183   4.314   0.062   2.452 -1.5784  0.4434  1.5943
12256TIP3    H258184   4.392   0.086   2.580  1.4971 -0.6750  0.0038
12257TIP3   OH258185   5.874   5.029  16.642 -0.0391 -0.9518 -0.2267
12257TIP3    H158186   5.871   4.945  16.595 -0.7327 -1.0277 -0.0409
12257TIP3    H258187   5.824   5.014  16.722 -0.7055 -0.1826 -0.4894
12258TIP3   OH258188   4.491   4.818  16.178  0.0930 -0.5830  1.0241
12258TIP3    H158189   4.579   4.847  16.203 -0.4108  0.6994  1.3579
12258TIP3    H258190   4.483   4.844  16.086 -0.2575  0.0890  1.2421
12259TIP3   OH258191   1.837   1.544  11.676 -0.0942 -0.3569  0.4365
12259TIP3    H158192   1.834   1.520  11.768 -0.4665  0.0512  0.5354
12259TIP3    H258193   1.930   1.555  11.657 -0.0342 -0.1186  0.8533
12260TIP3   OH258194   6.268   4.458   3.991 -0.1389 -0.8956 -0.0238
12260TIP3    H158195   6.246   4.369   3.961  0.6551 -1.8317  2.0580
12260TIP3    H258196   6.225   4.466   4.076  2.3947 -0.4857  1.2805
12261TIP3   OH258197   5.458   5.563  16.621  0.4222  0.3334 -0.0221
12261TIP3    H158198   5.423   5.643  16.659 -0.6217  0.0379 -0.3419
12261TIP3    H258199   5.492   5.590  16.536  3.8198  1.2230  1.5371
12262TIP3   OH258200   2.808   2.329  15.715  0.2530  0.1014 -0.0008
12262TIP3    H158201   2.848   2.401  15.763 -0.1320  1.2898 -1.4305
12262TIP3    H258202   2.879   2.293  15.661 -0.4544  1.9207 -2.1972
12263TIP3   OH258203   1.237   1.932   3.457  0.2462 -0.3569 -0.0091
12263TIP3    H158204   1.327   1.912   3.483 -0.2125 -0.7111  1.3720
12263TIP3    H258205   1.197   1.846   3.442  0.4164 -0.1648 -1.6383
12264TIP3   OH258206   1.060   4.510  15.410 -0.3263 -0.4931  0.4181
12264TIP3    H158207   1.086   4.432  15.460 -1.4987 -1.5241 -0.5358
12264TIP3    H258208   0.965   4.517  15.424 -0.7743 -1.0663 -1.9479
12265TIP3   OH258209   2.617   5.175  14.508  0.3884  0.0930 -0.4916
12265TIP3    H158210   2.583   5.260  14.536 -0.8554 -0.4230 -0.4157
12265TIP3    H258211   2.571   5.156  14.426  2.0354  0.3467 -1.4936
12266TIP3   OH258212   3.361   3.161   0.804 -0.3179  0.6374  0.0449
12266TIP3    H158213   3.323   3.194   0.885  0.7670 -0.3216  0.9515
12266TIP3    H258214   3.454   3.153   0.823  0.1024  1.3385 -1.6103
12267TIP3   OH258215   2.771   6.452   0.856 -0.3618  0.3985 -0.5162
12267TIP3    H158216   2.689   6.407   0.835 -0.7554  2.1715 -3.0409
12267TIP3    H258217   2.750   6.507   0.931 -0.7909 -1.0532  0.4425
12268TIP3   OH258218   3.939   6.439   1.722 -0.0046  0.1368 -0.5694
12268TIP3    H158219   3.872   6.477   1.780 -0.2742  1.0144 -1.4519
12268TIP3    H258220   4.007   6.506   1.717 -0.5718  0.6068 -2.2861
12269TIP3   OH258221   2.179   1.767   3.077  0.4996 -0.0014 -1.0137
12269TIP3    H158222   2.233   1.843   3.056 -0.3605  0.8804 -0.0446
12269TIP3    H258223   2.182   1.761   3.173 -0.5093 -0.3985 -1.0072
12270TIP3   OH258224   3.543   5.810   0.061 -0.5042 -0.0662  0.5009
12270TIP3    H158225   3.571   5.900   0.076 -1.6966  0.4093 -0.1151
12270TIP3    H258226   3.534   5.773   0.149 -0.5042  0.5667  0.7668
12271TIP3   OH258227   3.398   1.874   2.631  0.0784  0.0787  0.4639
12271TIP3    H158228   3.305   1.881   2.609  0.6930  0.2124 -2.3669
12271TIP3    H258229   3.410   1.781   2.653 -0.7826  0.1366  1.2181
12272TIP3   OH258230   6.695   0.549   0.703 -0.1033 -0.8428  0.5101
12272TIP3    H158231   6.754   0.623   0.720 -0.3205 -0.4952 -0.2108
12272TIP3    H258232   6.624   0.560   0.766 -0.7210  0.2261 -0.3566
12273TIP3   OH258233   1.145   0.208  16.239  0.0983 -0.0941 -0.0674
12273TIP3    H158234   1.185   0.284  16.283 -1.7726  0.7766  0.1623
12273TIP3    H258235   1.196   0.133  16.270  3.2075  1.2234 -1.7074
12274TIP3   OH258236   2.688   3.038  13.685  0.5311 -0.6061  0.4488
12274TIP3    H158237   2.662   3.129  13.696  1.6904 -0.0828 -1.1003
12274TIP3    H258238   2.613   2.988  13.718 -1.1232  0.8960 -0.9496
12275TIP3   OH258239   3.158   5.243  15.362  0.6348 -0.6967  0.1279
12275TIP3    H158240   3.092   5.199  15.307 -0.1430 -0.4189  0.8317
12275TIP3    H258241   3.156   5.334  15.333  1.1742 -0.8157 -0.2935
12276TIP3   OH258242   3.988   3.597  10.754 -0.3690 -0.2405  0.4946
12276TIP3    H158243   4.014   3.545  10.678 -0.6168 -0.3690  0.4955
12276TIP3    H258244   3.922   3.658  10.720  0.8953  0.9862  0.2181
12277TIP3   OH258245   1.430   0.697   3.505 -0.6206 -0.0668 -0.2758
12277TIP3    H158246   1.504   0.756   3.488  1.7556 -3.0796 -0.7115
12277TIP3    H258247   1.359   0.733   3.452  1.1945  1.5737 -1.6909
12278TIP3   OH258248   3.740   6.369  16.961 -0.2122 -0.6301 -0.4544
12278TIP3    H158249   3.664   6.350  17.015 -0.4392  1.2594 -0.0600
12278TIP3    H258250   3.770   6.455  16.991  0.8091 -0.4008 -2.0421
12279TIP3   OH258251   3.267   4.887  14.685  0.1582 -0.3852 -0.3068
12279TIP3    H158252   3.177   4.853  14.692 -0.2109  0.6080 -0.1739
12279TIP3    H258253   3.258   4.981  14.701  1.2387 -0.2990 -0.2116
12280TIP3   OH258254   5.814   1.378  16.820 -0.2328  0.7260 -0.2691
12280TIP3    H158255   5.818   1.378  16.916  0.0886 -2.7523 -0.2201
12280TIP3    H258256   5.900   1.346  16.793 -2.0775 -3.5183 -1.4989
12281TIP3   OH258257   2.176   1.510   6.528  0.0177  0.5927  0.0344
12281TIP3    H158258   2.123   1.571   6.579 -0.5983  1.4163 -1.5578
12281TIP3    H258259   2.122   1.431   6.523  0.6833  0.0029  1.8342
12282TIP3   OH258260   1.312   5.417   5.727  0.0980  0.3998  0.1191
12282TIP3    H158261   1.308   5.507   5.760 -0.9981 -0.1746  1.5924
12282TIP3    H258262   1.301   5.426   5.632 -2.9616  1.6223  0.5496
12283TIP3   OH258263   5.035   6.712   5.359 -0.4075 -0.0802  0.4096
12283TIP3    H158264   5.078   6.628   5.372 -0.1127  0.2485  1.6339
12283TIP3    H258265   5.090   6.758   5.296 -0.4131 -0.6852 -0.0383
12284TIP3   OH258266   5.268   5.905   3.436 -0.5585 -0.3425 -0.1483
12284TIP3    H158267   5.263   5.976   3.501 -0.6537  3.4044 -4.0488
12284TIP3    H258268   5.355   5.916   3.396 -2.0941  0.1403 -3.5105
12285TIP3   OH258269   5.506   0.175   4.764  0.0850  0.1125 -0.0823
12285TIP3    H158270   5.559   0.131   4.830  1.1206 -1.0471 -1.6508
12285TIP3    H258271   5.524   0.269   4.777  1.0779 -0.1679  0.6033
12286TIP3   OH258272   2.434   0.355  11.450 -0.4502  0.3485 -0.1236
12286TIP3    H158273   2.503   0.293  11.472  0.5756  1.5381  0.0727
12286TIP3    H258274   2.397   0.322  11.368  1.4939  0.6247 -1.1459
12287TIP3   OH258275   2.074   3.785  12.185  0.1128  0.2859 -0.6880
12287TIP3    H158276   2.160   3.756  12.156  0.1266  0.8231 -1.1917
12287TIP3    H258277   2.013   3.731  12.134  0.1498 -0.1183 -0.3058
12288TIP3   OH258278   3.886   4.865   3.324 -0.6179 -0.0995 -0.7022
12288TIP3    H158279   3.948   4.803   3.363  0.4782  0.7643 -1.0432
12288TIP3    H258280   3.897   4.854   3.230 -2.2293 -1.1552 -0.7947
12289TIP3   OH258281   4.262   4.666  13.150 -0.2067  0.3534 -0.0747
12289TIP3    H158282   4.282   4.759  13.163  1.1578 -0.0520  0.7519
12289TIP3    H258283   4.298   4.645  13.064  1.1449  0.1327  0.5380
12290TIP3   OH258284   1.403   0.571   5.846  0.3594  0.3530  0.0783
12290TIP3    H158285   1.469   0.507   5.821  0.4348  0.2163  0.6090
12290TIP3    H258286   1.323   0.542   5.801 -0.1926 -1.4835  2.1491
12291TIP3   OH258287   3.849   3.535   3.994  0.2595 -0.2864  0.0747
12291TIP3    H158288   3.792   3.461   4.016  1.4847 -0.9461  1.1008
12291TIP3    H258289   3.926   3.495   3.953  1.1652  0.3517  1.1167
12292TIP3   OH258290   0.962   0.364  12.707 -0.1944 -0.0782  0.1152
12292TIP3    H158291   0.953   0.436  12.645  2.4130  0.6196  0.4861
12292TIP3    H258292   1.013   0.298  12.660 -0.5448 -0.7063  0.6028
12293TIP3   OH258293   0.159   6.295  12.904  0.2557 -0.2090 -0.0126
12293TIP3    H158294   0.224   6.247  12.854  1.0965 -0.1275  0.9795
12293TIP3    H258295   0.084   6.236  12.909  0.4314 -0.4977 -0.7474
12294TIP3   OH258296   3.670   5.621   2.276  0.1482 -0.3637  0.3505
12294TIP3    H158297   3.598   5.636   2.215 -0.6499 -0.8356  1.1641
12294TIP3    H258298   3.698   5.709   2.302  0.5701 -0.1531 -0.7641
12295TIP3   OH258299   0.897   1.721  13.729  0.7146 -0.5082 -0.5036
12295TIP3    H158300   0.892   1.626  13.734 -0.3395 -0.4467 -0.4061
12295TIP3    H258301   0.960   1.746  13.797  0.6462 -1.0986 -0.2251
12296TIP3   OH258302   1.462   0.759  13.316  0.0091 -0.1868  0.1130
12296TIP3    H158303   1.428   0.770  13.405 -0.5142 -2.0625  0.1652
12296TIP3    H258304   1.411   0.686  13.280  0.9515 -0.1322 -1.3600
12297TIP3   OH258305   2.378   1.438   3.863  0.1890  0.2223  0.2276
12297TIP3    H158306   2.363   1.527   3.895  2.2146  0.5156  0.4434
12297TIP3    H258307   2.435   1.449   3.787 -0.4148 -0.8209 -0.3901
12298TIP3   OH258308   2.602   6.515  16.453 -0.0111 -0.0170 -0.5091
12298TIP3    H158309   2.604   6.469  16.537 -2.8426  0.2693 -0.2429
12298TIP3    H258310   2.603   6.608  16.475 -1.4545  0.0614 -0.7603
12299TIP3   OH258311   4.862   6.167   4.117 -0.0198 -0.6330  0.3674
12299TIP3    H158312   4.921   6.215   4.058 -0.1560 -1.6415 -0.5931
12299TIP3    H258313   4.872   6.212   4.201  1.4152 -0.1905 -0.0121
12300TIP3   OH258314   1.576   0.385   2.357  0.2192 -0.2924  0.1311
12300TIP3    H158315   1.629   0.383   2.278  0.5961  1.4289  0.3316
12300TIP3    H258316   1.496   0.432   2.332  0.5295  0.6565  0.8780
12301TIP3   OH258317   0.954   4.993  11.824 -0.0931  0.2015 -0.6498
12301TIP3    H158318   1.049   4.986  11.829 -0.2756 -1.8961  0.2654
12301TIP3    H258319   0.938   5.063  11.761  2.0192 -2.4484 -4.2796
12302TIP3   OH258320   0.012   2.719  17.182  0.4383  0.5220  0.6597
12302TIP3    H158321   0.028   2.627  17.202  1.9689  0.5668 -0.2876
12302TIP3    H258322   0.004   2.723  17.087 -0.7093  1.2245  0.7641
12303TIP3   OH258323   0.573   5.998   5.324  0.3609 -0.2444  0.1146
12303TIP3    H158324   0.655   5.956   5.351  0.7761 -0.9791 -2.1513
12303TIP3    H258325   0.593   6.091   5.324  1.1559 -0.4039 -0.1974
12304TIP3   OH258326   1.315   0.275  16.670 -0.1018  0.1793  0.3365
12304TIP3    H158327   1.377   0.261  16.742 -0.9487 -1.8863  0.7070
12304TIP3    H258328   1.245   0.327  16.708 -0.7621 -1.2802  1.1458
12305TIP3   OH258329   1.436   4.018   1.256  0.0435  0.2445  0.6603
12305TIP3    H158330   1.429   4.069   1.337 -1.2427 -0.0681  0.7470
12305TIP3    H258331   1.393   4.072   1.190 -2.2883 -1.1747  0.9717
12306TIP3   OH258332   3.719   4.530  11.831 -0.3278  0.8462  0.9767
12306TIP3    H158333   3.783   4.458  11.835 -0.0979  1.0597  1.1661
12306TIP3    H258334   3.757   4.598  11.886 -0.7812  0.9268  1.1870
12307TIP3   OH258335   5.260   0.523   3.916 -0.4627 -0.1568 -0.2739
12307TIP3    H158336   5.238   0.431   3.897  0.2918  0.2247 -3.3203
12307TIP3    H258337   5.347   0.535   3.879 -0.9329  2.0231 -0.7648
12308TIP3   OH258338   0.432   6.315  11.844 -0.3844 -0.1703  0.0986
12308TIP3    H158339   0.358   6.314  11.905 -1.8108  2.9877 -1.5005
12308TIP3    H258340   0.443   6.223  11.820 -3.4635 -0.7959  0.7598
12309TIP3   OH258341   5.161   6.588   2.869  0.0952 -0.3973 -0.0216
12309TIP3    H158342   5.096   6.656   2.849  0.2867 -0.1636  0.1365
12309TIP3    H258343   5.143   6.565   2.960  1.5039  1.1038  0.6710
12310TIP3   OH258344   5.467   4.561  15.226  0.3244  0.5405  0.3657
12310TIP3    H158345   5.469   4.533  15.135  0.6627 -1.3508  0.9390
12310TIP3    H258346   5.549   4.528  15.263 -0.7192 -0.4172  1.8478
12311TIP3   OH258347   4.989   0.895  13.312  0.4865  0.0690 -0.8840
12311TIP3    H158348   4.978   0.948  13.234 -0.3405  1.8783  0.4434
12311TIP3    H258349   4.926   0.930  13.375  0.5385 -1.9003  0.3266
12312TIP3   OH258350   4.663   1.335  12.675  0.4806 -0.4248 -0.0593
12312TIP3    H158351   4.628   1.281  12.746  0.7538  1.6532  1.7033
12312TIP3    H258352   4.758   1.333  12.688  0.4398  1.4631  0.8325
12313TIP3   OH258353   0.439   1.378   0.965  0.3633 -0.3921  0.4612
12313TIP3    H158354   0.459   1.468   0.939 -1.4322  0.0033  0.4174
12313TIP3    H258355   0.424   1.331   0.883  1.9829 -0.9114  0.4479
12314TIP3   OH258356   5.593   6.544   4.267 -0.2330 -0.4451  0.0912
12314TIP3    H158357   5.538   6.616   4.237  1.1046  1.4712  2.1289
12314TIP3    H258358   5.681   6.565   4.235  0.3191 -0.7520  1.3632
12315TIP3   OH258359   1.228   2.901   3.331  0.1647  0.2034  0.3879
12315TIP3    H158360   1.157   2.873   3.274  0.0927  0.7258  0.2162
12315TIP3    H258361   1.257   2.985   3.294 -0.7293  1.1927  1.8566
12316TIP3   OH258362   0.410   3.644  10.519 -0.3213 -0.1965  0.6208
12316TIP3    H158363   0.422   3.680  10.432 -0.1860 -0.6130  0.4638
12316TIP3    H258364   0.495   3.606  10.541 -0.6636 -1.0602  0.4831
12317TIP3   OH258365   5.014   4.749  12.503  0.1148 -0.0005 -0.2588
12317TIP3    H158366   4.970   4.827  12.535 -0.0704 -0.4623  0.6232
12317TIP3    H258367   4.946   4.701  12.455  0.1316  0.1936 -0.4763
12318TIP3   OH258368   3.881   3.462   0.223 -0.3226 -0.2468  0.1516
12318TIP3    H158369   3.889   3.542   0.171  2.8365  0.0364  0.9701
12318TIP3    H258370   3.828   3.487   0.299 -0.6214  0.6689 -0.3529
12319TIP3   OH258371   2.591   5.169   0.144 -0.5097  0.2170 -0.0226
12319TIP3    H158372   2.678   5.185   0.108 -0.7826  0.1843 -0.6951
12319TIP3    H258373   2.608   5.148   0.236 -0.0639  3.1834  0.6166
12320TIP3   OH258374   0.396   6.450  13.956 -0.7049  0.2113  0.1700
12320TIP3    H158375   0.391   6.513  14.028 -0.5558  2.4141 -1.6934
12320TIP3    H258376   0.313   6.460  13.910  0.6524  1.4594 -2.0723
12321TIP3   OH258377   0.376   1.539   1.977 -0.1859 -0.2114 -0.1439
12321TIP3    H158378   0.458   1.568   1.937  0.3409 -0.5685  0.6744
12321TIP3    H258379   0.365   1.448   1.947  0.2870 -0.5299  0.6352
12322TIP3   OH258380   0.730   2.685  14.301  0.1663  0.2846  0.7591
12322TIP3    H158381   0.653   2.633  14.323  0.2881 -0.1301  0.2048
12322TIP3    H258382   0.700   2.776  14.307 -0.2379  0.1354  1.0156
12323TIP3   OH258383   6.749   6.224   0.652  0.0431  0.5024 -0.1538
12323TIP3    H158384   6.776   6.314   0.631 -1.5393  0.8394 -0.7931
12323TIP3    H258385   6.828   6.183   0.687  0.9034  2.0079 -0.2948
12324TIP3   OH258386   2.483   1.866  14.991  0.0170 -0.0354 -0.1682
12324TIP3    H158387   2.523   1.890  14.908 -0.7568 -0.9394 -0.8081
12324TIP3    H258388   2.535   1.912  15.057  0.7584  0.5200 -1.1340
12325TIP3   OH258389   0.796   1.184   5.220 -0.0666 -0.0357  0.1067
12325TIP3    H158390   0.709   1.184   5.179 -0.1883  0.4508  0.3611
12325TIP3    H258391   0.825   1.093   5.215 -0.5736 -0.1920 -0.0160
12326TIP3   OH258392   0.498   2.549   5.259  0.2805  0.1006  0.1410
12326TIP3    H158393   0.424   2.491   5.279 -0.4467  0.5670 -1.1155
12326TIP3    H258394   0.513   2.538   5.166  0.3137  1.7131 -0.0725
12327TIP3   OH258395   4.714   2.597  12.700  0.1351  0.4102 -0.0413
12327TIP3    H158396   4.656   2.639  12.636 -0.7954  1.5973  1.5241
12327TIP3    H258397   4.657   2.581  12.775  0.6627 -3.0254 -0.3111
12328TIP3   OH258398   0.760   0.561   0.370 -0.1504 -0.1656  0.0733
12328TIP3    H158399   0.750   0.647   0.331  0.7061  0.2478  0.7470
12328TIP3    H258400   0.671   0.532   0.389 -0.3900  1.1051  0.9714
12329TIP3   OH258401   4.180   5.747   5.532  0.1528 -0.5903  0.1822
12329TIP3    H158402   4.162   5.822   5.589  1.3716 -0.0551 -0.1104
12329TIP3    H258403   4.224   5.684   5.588  1.2315 -0.1178 -0.1028
12330TIP3   OH258404   4.265   1.302  14.223  0.2535  0.0767 -0.0319
12330TIP3    H158405   4.272   1.310  14.128 -1.4041  2.0579 -0.0280
12330TIP3    H258406   4.346   1.340  14.257 -0.1288  1.4304 -0.6060
12331TIP3   OH258407   4.881   6.328  15.665 -0.2322 -0.1356  0.1558
12331TIP3    H158408   4.968   6.312  15.628 -0.1615  0.8691 -0.1288
12331TIP3    H258409   4.894   6.324  15.760 -0.1688 -1.4662  0.0972
12332TIP3   OH258410   1.299   5.057   3.601  0.0597  0.7423  0.1118
12332TIP3    H158411   1.348   4.975   3.604 -0.5162  0.3467 -1.0060
12332TIP3    H258412   1.343   5.113   3.665  2.2507  0.5545 -1.1875
12333TIP3   OH258413   0.058   5.286  15.382 -0.2674  0.2189 -0.1946
12333TIP3    H158414  -0.006   5.267  15.450 -3.3581 -2.5690 -3.6625
12333TIP3    H258415   0.032   5.371  15.347  0.9117  1.3344  1.5652
12334TIP3   OH258416   0.861   6.729   0.756 -0.1549  0.2184 -0.2997
12334TIP3    H158417   0.948   6.765   0.769  0.1833 -0.4545 -0.6879
12334TIP3    H258418   0.868   6.637   0.783 -0.8641  0.2848  0.1410
12335TIP3   OH258419   5.356   3.406   6.124  0.0874  0.0439  0.0835
12335TIP3    H158420   5.276   3.368   6.087 -0.4654 -1.2754  2.5409
12335TIP3    H258421   5.334   3.498   6.139 -0.2963  0.1559 -1.0663
12336TIP3   OH258422   3.466   2.858   1.173 -0.0368  0.1584  0.1582
12336TIP3    H158423   3.478   2.793   1.104 -1.8142 -0.5195  0.4619
12336TIP3    H258424   3.505   2.819   1.251  0.5313  0.2454 -0.0774
12337TIP3   OH258425   3.923   4.883  15.797 -0.2068 -0.0416 -0.3497
12337TIP3    H158426   4.013   4.861  15.775 -0.7824 -1.2531 -1.5524
12337TIP3    H258427   3.878   4.887  15.712 -1.3213  0.3709  0.2514
12338TIP3   OH258428   4.368   0.069   1.371 -0.5003 -0.8685  0.1588
12338TIP3    H158429   4.382   0.164   1.376 -0.9327 -0.7573 -0.7677
12338TIP3    H258430   4.418   0.034   1.445 -2.3783  0.2939  2.0579
12339TIP3   OH258431   3.002   5.055  16.927  0.4109  0.1767  0.2773
12339TIP3    H158432   3.082   5.005  16.946  1.1886  0.4693 -2.0596
12339TIP3    H258433   2.940   4.990  16.893  0.0069  0.1305  1.0869
12340TIP3   OH258434   1.544   4.799  14.852  0.1319  0.0173  0.0546
12340TIP3    H158435   1.468   4.771  14.902 -1.3282  1.0377 -1.5267
12340TIP3    H258436   1.509   4.824  14.766  2.0658  1.7319 -0.2898
12341TIP3   OH258437   6.601   3.301   1.770  0.3668 -0.1984  0.1237
12341TIP3    H158438   6.633   3.296   1.680  2.5026 -0.0932  0.8361
12341TIP3    H258439   6.680   3.315   1.823 -1.0426  1.8131  1.8185
12342TIP3   OH258440   5.972   6.073   4.499 -0.5644  0.1721 -0.2324
12342TIP3    H158441   5.904   6.121   4.546 -0.1251  1.5619 -0.9921
12342TIP3    H258442   6.002   6.007   4.562 -1.6041  0.4876  0.6074
12343TIP3   OH258443   0.259   1.763   5.535 -0.2978 -0.3438 -0.0906
12343TIP3    H158444   0.216   1.762   5.450 -2.0128  0.8568  0.7410
12343TIP3    H258445   0.223   1.839   5.580  3.0605  0.9721  0.4838
12344TIP3   OH258446   5.235   0.582  12.014 -0.3090  0.1058 -0.1727
12344TIP3    H158447   5.257   0.675  12.023  2.0728 -0.6476  2.1580
12344TIP3    H258448   5.148   0.574  12.054 -0.1861  1.1613  0.3146
12345TIP3   OH258449   2.478   5.166   4.029 -0.0154  0.3765 -0.1273
12345TIP3    H158450   2.474   5.093   4.091  0.9184  1.5787  1.3620
12345TIP3    H258451   2.427   5.135   3.954 -1.7286 -0.8588  1.4825
12346TIP3   OH258452   0.873   4.794   4.402  0.1254 -0.0036  0.6530
12346TIP3    H158453   0.778   4.794   4.415  0.1508 -0.0699  0.8456
12346TIP3    H258454   0.886   4.848   4.324 -0.2639 -2.0242 -0.8646
12347TIP3   OH258455   3.125   0.461  12.775  0.0142 -0.0651  0.0472
12347TIP3    H158456   3.206   0.416  12.749 -1.2031 -1.5995 -1.2487
12347TIP3    H258457   3.063   0.437  12.706 -1.7113  0.5578  1.3873
12348TIP3   OH258458   2.956   0.289   3.283 -0.5439 -0.0210  0.4149
12348TIP3    H158459   2.947   0.318   3.192 -2.2309  1.4442  1.0282
12348TIP3    H258460   3.000   0.361   3.327  2.6012 -1.7725  0.2607
12349TIP3   OH258461   4.263   3.043   6.130 -0.6979  0.1069  0.5888
12349TIP3    H158462   4.187   3.096   6.107 -0.3149  0.2438 -0.3570
12349TIP3    H258463   4.329   3.107   6.158  0.3806  0.2845 -2.2671
12350TIP3   OH258464   4.829   3.839  13.465 -0.2393 -0.5824  0.0264
12350TIP3    H158465   4.746   3.806  13.498 -0.9642  0.4338 -0.7334
12350TIP3    H258466   4.873   3.874  13.543 -0.1541 -1.8416  0.5648
12351TIP3   OH258467   4.582   0.892   6.470 -0.3149  0.7888  0.0916
12351TIP3    H158468   4.664   0.937   6.450  0.4038 -0.0937  1.0116
12351TIP3    H258469   4.597   0.801   6.444 -1.5378  0.9316 -1.1620
12352TIP3   OH258470   3.096   6.618  13.692  0.2412  0.4492  0.4703
12352TIP3    H158471   3.058   6.591  13.608 -1.7354  1.5247  0.9804
12352TIP3    H258472   3.080   6.543  13.750 -0.4139  0.5815  0.4669
12353TIP3   OH258473   5.903   5.508  13.595  0.5064 -0.4551 -0.5591
12353TIP3    H158474   5.885   5.474  13.508  1.8291 -0.1873 -0.9582
12353TIP3    H258475   5.993   5.539  13.590  1.3985 -2.5015  1.5214
12354TIP3   OH258476   0.794   2.285  16.417  0.2144  0.3289 -0.3418
12354TIP3    H158477   0.716   2.236  16.442  1.4085 -0.1919  2.5923
12354TIP3    H258478   0.835   2.232  16.349 -0.9429 -0.3970 -0.4891
12355TIP3   OH258479   6.213   0.138   2.305  0.6924  0.1924  0.0948
12355TIP3    H158480   6.278   0.137   2.375  0.2930 -2.4813  0.4985
12355TIP3    H258481   6.176   0.226   2.308  0.1529 -0.0454  3.8125
12356TIP3   OH258482   0.094   5.297  12.163 -0.4174  0.2229  0.2537
12356TIP3    H158483   0.085   5.300  12.258  0.6382  0.1581  0.3654
12356TIP3    H258484   0.131   5.211  12.145  0.7502  0.7813 -0.0834
12357TIP3   OH258485   6.176   3.354  12.341  0.3400  0.1516  0.0784
12357TIP3    H158486   6.147   3.298  12.412 -1.8581  1.9255  0.6022
12357TIP3    H258487   6.272   3.357  12.351  0.3697 -2.2321  0.9279
12358TIP3   OH258488   5.431   1.057  12.609  0.3618 -0.4878  0.0718
12358TIP3    H158489   5.437   1.066  12.514 -1.2001  0.9454  0.0736
12358TIP3    H258490   5.353   1.002  12.623 -0.9065  1.3796  0.5546
12359TIP3   OH258491   1.890   6.606   1.941  0.0633  0.1348  0.5535
12359TIP3    H158492   1.866   6.568   2.025  1.2668 -1.6749  0.0930
12359TIP3    H258493   1.936   6.536   1.895  0.6248  1.5390 -1.0658
12360TIP3   OH258494   2.857   3.679  14.464  0.1472  0.5261 -0.3053
12360TIP3    H158495   2.848   3.612  14.532 -0.4948 -0.3223 -1.2171
12360TIP3    H258496   2.900   3.752  14.508 -1.8121  0.6408  1.4611
12361TIP3   OH258497   5.341   2.442  15.684 -0.6667  0.5283 -0.3098
12361TIP3    H158498   5.386   2.396  15.614  0.4756  0.7739  0.2595
12361TIP3    H258499   5.294   2.373  15.732 -0.6258  0.2332 -0.6978
12362TIP3   OH258500   4.706   4.110  13.706 -0.1818  0.3144 -0.0125
12362TIP3    H158501   4.765   4.036  13.687  0.0609  0.3749  0.5177
12362TIP3    H258502   4.622   4.069  13.725  0.1078  0.1401  0.9007
12363TIP3   OH258503   4.970   3.399  12.975 -0.2328 -0.7765  0.1613
12363TIP3    H158504   4.879   3.386  12.949  0.1465 -2.0619 -0.5758
12363TIP3    H258505   4.972   3.488  13.010 -1.7980 -0.7863  0.3288
12364TIP3   OH258506   0.958   0.622   5.398  0.2114 -0.1358 -0.2130
12364TIP3    H158507   0.994   0.565   5.467 -0.2097 -0.4529 -0.2577
12364TIP3    H258508   0.991   0.585   5.316  0.2953 -0.0584 -0.2136
12365TIP3   OH258509   4.519   5.979   3.177  0.4393 -0.0264 -0.2282
12365TIP3    H158510   4.558   5.904   3.221 -0.4806  1.2847  2.9335
12365TIP3    H258511   4.586   6.048   3.183 -0.3303  0.6595  0.6150
12366TIP3   OH258512   1.970   6.489   3.691  0.0858 -0.6886  0.2585
12366TIP3    H158513   1.898   6.459   3.637 -1.7566  1.5964  1.3352
12366TIP3    H258514   1.946   6.463   3.780  0.4412  0.3224  0.6603
12367TIP3   OH258515   2.098   6.171   3.643 -0.2819 -0.2115 -0.1283
12367TIP3    H158516   2.047   6.207   3.570  1.7222  0.7781 -1.0826
12367TIP3    H258517   2.126   6.248   3.693 -0.4787 -0.8014  0.9089
12368TIP3   OH258518   1.096   2.673   4.015  0.9852 -0.1210 -0.9325
12368TIP3    H158519   1.131   2.762   4.004  0.7011  0.2076  0.6783
12368TIP3    H258520   1.170   2.622   4.048  0.8388 -0.2165 -0.7518
12369TIP3   OH258521   5.279   1.971  13.966 -0.9377  0.4025 -0.0513
12369TIP3    H158522   5.313   2.058  13.942  0.2801  0.3943  1.5535
12369TIP3    H258523   5.225   1.945  13.891  0.8699  1.3702 -1.7484
12370TIP3   OH258524   3.946   4.525   1.468 -0.1858  0.6120  0.1890
12370TIP3    H158525   3.969   4.559   1.554 -0.3168  1.0020  0.0746
12370TIP3    H258526   4.019   4.551   1.411 -1.4887  3.0384 -0.4641
12371TIP3   OH258527   1.432   5.637  11.974 -0.1018 -0.0274 -0.3119
12371TIP3    H158528   1.436   5.548  12.009  0.4106  0.6692  1.4266
12371TIP3    H258529   1.511   5.679  12.009 -0.1008  0.9783 -1.5128
12372TIP3   OH258530   5.302   2.519   0.637  0.5882  0.2208 -0.2831
12372TIP3    H158531   5.267   2.595   0.684 -1.5488  0.2029 -1.7468
12372TIP3    H258532   5.249   2.445   0.667  0.8436 -0.1972 -0.8461
12373TIP3   OH258533   2.515   1.630  11.401  0.5130  0.2871 -0.5372
12373TIP3    H158534   2.515   1.642  11.306 -2.8653 -1.8019 -0.8900
12373TIP3    H258535   2.494   1.716  11.436  0.6876  0.8303 -1.7188
12374TIP3   OH258536   1.126   5.126  11.288 -0.4639 -0.3581  0.1706
12374TIP3    H158537   1.074   5.137  11.208 -2.3619 -1.8168  1.1656
12374TIP3    H258538   1.217   5.123  11.257 -1.0215  0.9503 -1.7328
12375TIP3   OH258539   4.736   3.512  14.723 -0.0910 -0.3546  0.5968
12375TIP3    H158540   4.751   3.448  14.792  0.3536 -0.7686  0.1184
12375TIP3    H258541   4.815   3.509  14.670 -0.0103  0.6878  0.6463
12376TIP3   OH258542   6.489   5.785  12.328  0.3019  0.0895 -0.0178
12376TIP3    H158543   6.520   5.743  12.409  1.2413  1.0154  0.1066
12376TIP3    H258544   6.482   5.713  12.265 -0.0715 -0.5796  0.7726
12377TIP3   OH258545   2.579   0.740   3.152 -0.0678 -0.0893  0.2769
12377TIP3    H158546   2.509   0.714   3.211 -0.3691 -2.3177 -0.9916
12377TIP3    H258547   2.657   0.699   3.188 -0.0474 -0.4783 -0.2007
12378TIP3   OH258548   2.981   3.048   4.240  0.2297 -0.2571  0.1701
12378TIP3    H158549   2.885   3.051   4.237  0.2279  1.7689  0.9726
12378TIP3    H258550   3.009   3.117   4.180  1.1093  0.8260  1.7623
12379TIP3   OH258551   0.718   1.755  16.210  0.2695  0.0680  0.5738
12379TIP3    H158552   0.631   1.764  16.172 -0.3962 -2.0339  1.5280
12379TIP3    H258553   0.766   1.832  16.179 -1.7798  1.0182 -0.3268
12380TIP3   OH258554   4.797   4.216   2.263 -0.0580  0.0636 -0.1147
12380TIP3    H158555   4.854   4.280   2.306  1.1923 -1.4397  0.5452
12380TIP3    H258556   4.853   4.139   2.251 -1.5304 -0.9081 -0.8680
12381TIP3   OH258557   4.870   3.503  11.501  0.0688 -0.4841  0.1068
12381TIP3    H158558   4.942   3.559  11.472  0.1645 -0.8300 -0.3250
12381TIP3    H258559   4.913   3.425  11.537 -0.0789 -0.5644  0.1120
12382TIP3   OH258560   4.702   3.531  15.990 -0.1186  0.3396  0.6615
12382TIP3    H158561   4.645   3.569  16.057 -0.0774 -0.2224  1.0193
12382TIP3    H258562   4.784   3.581  15.997 -0.7676  1.5681 -0.2771
12383TIP3   OH258563   6.231   3.992   1.351  0.1712  0.0665 -0.4823
12383TIP3    H158564   6.148   4.008   1.305  0.9638  2.3546 -1.1749
12383TIP3    H258565   6.291   3.963   1.282  0.0443 -1.3741 -0.0167
12384TIP3   OH258566   3.289   5.209   2.274 -0.4252 -0.3725  0.2186
12384TIP3    H158567   3.309   5.282   2.217  1.8109 -0.5721  0.6853
12384TIP3    H258568   3.282   5.247   2.361 -1.3055 -0.4414  0.1902
12385TIP3   OH258569   0.184   5.665  14.313 -0.1050  0.0481 -0.5126
12385TIP3    H158570   0.232   5.729  14.260  0.6560  0.1125  0.2466
12385TIP3    H258571   0.094   5.669  14.280 -0.2124  1.9792 -0.0622
12386TIP3   OH258572   4.438   6.316  15.557  0.3960  0.1938  0.3478
12386TIP3    H158573   4.385   6.246  15.596  0.5021 -0.4518 -0.6450
12386TIP3    H258574   4.382   6.394  15.561 -0.7039 -0.5252 -0.8409
12387TIP3   OH258575   2.750   4.461   3.467 -0.1702  0.0822  0.0549
12387TIP3    H158576   2.674   4.413   3.498 -0.6214  0.9144  0.2605
12387TIP3    H258577   2.803   4.475   3.546 -0.2969  0.3731  0.0901
12388TIP3   OH258578   5.039   2.614  10.756  0.1382  0.2748  0.0365
12388TIP3    H158579   5.014   2.524  10.737 -1.3583  0.6866 -0.0859
12388TIP3    H258580   5.077   2.646  10.674 -1.4870  0.4537 -0.6675
12389TIP3   OH258581   0.946   6.655   2.967  0.4381 -0.3556  0.0883
12389TIP3    H158582   0.878   6.717   2.995  0.4602  0.2569 -1.1808
12389TIP3    H258583   0.924   6.635   2.876  1.8560 -0.2938 -0.2740
12390TIP3   OH258584   3.691   6.330   4.388  0.6051  0.2480  0.0255
12390TIP3    H158585   3.778   6.310   4.353  1.1146  2.3209  0.0344
12390TIP3    H258586   3.706   6.398   4.454 -0.8374 -0.5713  1.2375
12391TIP3   OH258587   3.689   5.028  12.876 -0.2770 -0.0529 -0.4320
12391TIP3    H158588   3.733   5.000  12.956 -0.5793 -0.0444 -0.2608
12391TIP3    H258589   3.679   4.947  12.825  0.1687 -0.0130 -0.5909
12392TIP3   OH258590   4.186   3.133   5.832  0.0332 -0.3498 -0.2864
12392TIP3    H158591   4.280   3.140   5.815  0.0538  1.7351  0.6208
12392TIP3    H258592   4.153   3.222   5.827 -1.6351 -0.8654  0.9401
12393TIP3   OH258593   4.922   4.671  13.342 -0.0234  0.2822  0.0189
12393TIP3    H158594   4.846   4.670  13.401  0.0998  0.3673  0.1784
12393TIP3    H258595   4.885   4.655  13.256 -0.2574  0.6030  0.0583
12394TIP3   OH258596   6.633   6.491   1.080 -0.1038 -0.2805 -0.3911
12394TIP3    H158597   6.648   6.557   1.148  0.7881  0.6683 -1.4967
12394TIP3    H258598   6.595   6.417   1.128  1.2356  0.0638  1.2806
12395TIP3   OH258599   4.657   5.595   4.761 -0.0410 -0.2714 -0.0699
12395TIP3    H158600   4.642   5.658   4.831  1.1279  0.4944 -0.5015
12395TIP3    H258601   4.728   5.540   4.794  2.0111  1.4427 -1.5175
12396TIP3   OH258602   0.385   6.383   6.008 -0.0063  0.1233  0.0080
12396TIP3    H158603   0.345   6.297   6.000 -0.4138  0.3863 -0.7874
12396TIP3    H258604   0.377   6.422   5.921  0.0149  1.0348  0.4047
12397TIP3   OH258605   0.014   5.893  17.107 -0.1011  0.7311 -0.3253
12397TIP3    H158606   0.045   5.910  17.018  0.9387 -0.4320 -0.2020
12397TIP3    H258607   0.086   5.921  17.164  0.7683 -1.8909 -0.0318
12398TIP3   OH258608   3.512   3.159   0.227 -0.0444 -0.1730 -0.6185
12398TIP3    H158609   3.455   3.101   0.177  2.0876 -1.8723 -1.1337
12398TIP3    H258610   3.522   3.117   0.312  0.7286 -0.0678 -0.6536
12399TIP3   OH258611   1.846   6.708   3.909 -0.0624  0.0701 -0.2430
12399TIP3    H158612   1.938   6.725   3.929 -0.0472 -0.6427  0.3064
12399TIP3    H258613   1.846   6.624   3.865 -0.3450  0.5750 -1.2242
12400TIP3   OH258614   3.755   6.581   3.049  0.3406 -0.3715  0.0037
12400TIP3    H158615   3.766   6.600   2.956 -0.3150 -0.0526 -0.0125
12400TIP3    H258616   3.682   6.519   3.052 -0.0947  0.1560  0.3594
12401TIP3   OH258617   3.350   5.769  14.128  0.0393  0.4602  0.2323
12401TIP3    H158618   3.374   5.858  14.102  0.7476  0.2211  0.0699
12401TIP3    H258619   3.428   5.716  14.109 -1.0498 -0.5496 -1.5641
12402TIP3   OH258620   4.224   3.246   0.825 -0.2543 -0.5483 -0.2691
12402TIP3    H158621   4.239   3.306   0.898 -0.3264  0.7476 -1.2861
12402TIP3    H258622   4.204   3.304   0.751  0.0591 -1.8283 -1.3677
12403TIP3   OH258623   0.098   1.476   6.220  0.1435  0.3683 -0.3913
12403TIP3    H158624   0.026   1.539   6.222  0.4577  0.6765  1.6543
12403TIP3    H258625   0.055   1.391   6.207 -0.5783  0.5702  0.6029
12404TIP3   OH258626   4.536   4.329   4.068  0.2523  0.4238  0.4047
12404TIP3    H158627   4.631   4.325   4.057  0.2057  1.3210 -0.4123
12404TIP3    H258628   4.522   4.320   4.162  1.2829  2.4039  0.7730
12405TIP3   OH258629   5.042   1.320  14.847  0.7613  0.4182  0.7139
12405TIP3    H158630   5.002   1.315  14.760 -0.6568  0.5460  1.3550
12405TIP3    H258631   5.068   1.231  14.867  0.6696  0.3112  0.3579
12406TIP3   OH258632   2.391   6.701  17.076  0.2744 -0.3169  0.4259
12406TIP3    H158633   2.365   6.617  17.039  0.7549  0.1383 -1.0155
12406TIP3    H258634   2.471   6.683  17.125 -0.7006 -1.0475  1.7468
12407TIP3   OH258635   3.064   5.938   6.325 -0.2338  0.2900 -0.3202
12407TIP3    H158636   2.990   5.883   6.300 -1.0368 -0.1495  2.8266
12407TIP3    H258637   3.059   5.943   6.420  4.0246 -0.0752  0.0091
12408TIP3   OH258638   3.683   6.023   3.621  0.1878 -0.2235  0.1169
12408TIP3    H158639   3.706   6.005   3.713 -0.8948  0.4743  0.5331
12408TIP3    H258640   3.735   5.960   3.571  2.3268  0.7111  1.0745
12409TIP3   OH258641   4.682   1.696  16.513 -0.3532 -0.4837  0.3476
12409TIP3    H158642   4.669   1.784  16.548  1.4679 -0.0024 -0.1553
12409TIP3    H258643   4.594   1.663  16.497 -1.1048  0.6035  2.1362
12410TIP3   OH258644   0.083   4.528  11.452 -0.0765 -0.1079 -0.1697
12410TIP3    H158645   0.059   4.438  11.473 -1.5528  0.2515 -0.2890
12410TIP3    H258646   0.102   4.568  11.538  0.7274 -0.5582 -0.1303
12411TIP3   OH258647   2.822   0.370   3.672  0.2695  0.4825 -0.1353
12411TIP3    H158648   2.740   0.339   3.712  0.0469  0.2968 -0.7219
12411TIP3    H258649   2.827   0.321   3.590  0.2137  1.5920 -0.8056
12412TIP3   OH258650   0.267   4.134  15.105  0.5930 -0.2389 -0.0703
12412TIP3    H158651   0.344   4.180  15.071  0.0352  0.7269 -0.0450
12412TIP3    H258652   0.221   4.200  15.157 -0.3119 -0.7779 -0.1846
12413TIP3   OH258653   4.144   2.514  17.204 -0.2907  0.4163  0.3684
12413TIP3    H158654   4.057   2.551  17.194 -0.0521  0.6852 -0.8171
12413TIP3    H258655   4.193   2.547  17.128  0.1562 -1.6361 -0.2782
12414TIP3   OH258656   2.494   6.191  10.977  0.3323  0.1960  0.0263
12414TIP3    H158657   2.545   6.113  10.955 -1.8352 -1.3936  0.3618
12414TIP3    H258658   2.412   6.179  10.929 -0.9913  1.0273  2.0249
12415TIP3   OH258659   6.474   5.014  14.620  0.0038  0.6134  0.3207
12415TIP3    H158660   6.557   4.994  14.664 -0.7464 -0.4751  1.2638
12415TIP3    H258661   6.423   5.061  14.686 -0.0430  1.5166 -0.3458
12416TIP3   OH258662   2.875   4.698   0.612  0.0778 -0.0614 -0.1853
12416TIP3    H158663   2.939   4.653   0.558  0.6784  1.1258 -0.4680
12416TIP3    H258664   2.805   4.722   0.551  0.5190  0.8305 -0.3381
12417TIP3   OH258665   1.936   3.168  11.388  0.1892  0.5134 -0.1495
12417TIP3    H158666   1.984   3.131  11.314  2.2692  1.4286  0.7126
12417TIP3    H258667   1.901   3.251  11.354  0.0511  0.3218 -0.4837
12418TIP3   OH258668   6.532   5.462   2.655  0.2488 -0.0418 -0.1621
12418TIP3    H158669   6.480   5.499   2.584  0.8554 -2.1680 -1.7598
12418TIP3    H258670   6.489   5.380   2.678  2.0410 -1.1207 -0.5303
12419TIP3   OH258671   1.191   1.842   4.320 -0.0510  0.2793  0.5620
12419TIP3    H158672   1.152   1.905   4.379  0.5338  0.0264  1.2237
12419TIP3    H258673   1.196   1.887   4.236  2.0918  1.7980  1.4512
12420TIP3   OH258674   0.469   5.121   0.918 -0.1294  0.6842  0.9653
12420TIP3    H158675   0.526   5.079   0.984  0.0841  0.9548  0.9554
12420TIP3    H258676   0.382   5.118   0.957 -0.4464 -1.5069  0.1287
12421TIP3   OH258677   0.132   2.908   4.217 -0.0186  0.2859  0.1108
12421TIP3    H158678   0.200   2.961   4.259 -0.2260  0.1727  0.5964
12421TIP3    H258679   0.149   2.819   4.247 -0.5434  0.2964  0.4513
12422TIP3   OH258680   3.178   0.424  15.780 -0.0565  0.1017  0.3716
12422TIP3    H158681   3.243   0.354  15.768  0.2303  0.1593  1.5701
12422TIP3    H258682   3.094   0.380  15.766  0.1772 -0.1992 -0.1405
12423TIP3   OH258683   1.728   3.350  16.989 -0.1419 -0.2810 -0.2672
12423TIP3    H158684   1.653   3.349  16.930  0.1468 -0.7567 -0.6319
12423TIP3    H258685   1.765   3.262  16.983  0.0600 -0.2464  0.4024
12424TIP3   OH258686   4.207   5.535   0.454 -0.0013  0.0869  0.2808
12424TIP3    H158687   4.248   5.516   0.370 -0.3308  0.9944 -0.0925
12424TIP3    H258688   4.278   5.526   0.518  0.2910 -0.4097 -0.1071
12425TIP3   OH258689   1.647   5.724   0.378 -0.6421 -0.2023 -0.7115
12425TIP3    H158690   1.707   5.757   0.311  0.0131 -3.1054 -1.6298
12425TIP3    H258691   1.566   5.773   0.363  0.1434  0.6651 -2.2859
12426TIP3   OH258692   5.268   5.402  16.316  0.6294 -0.1710 -0.6414
12426TIP3    H158693   5.303   5.489  16.338  1.7532 -1.2022  1.9021
12426TIP3    H258694   5.331   5.341  16.354 -1.5271 -2.1063 -0.0659
12427TIP3   OH258695   3.151   0.124  11.746 -0.5312  0.3601 -0.0856
12427TIP3    H158696   3.201   0.057  11.793 -2.9048 -1.6103 -0.2648
12427TIP3    H258697   3.159   0.100  11.654 -0.7791  0.7748 -0.2175
12428TIP3   OH258698   2.873   5.632  16.594  0.3622  0.6388  0.5599
12428TIP3    H158699   2.942   5.568  16.613 -0.3860 -0.1765  0.5867
12428TIP3    H258700   2.869   5.636  16.498 -2.4424 -2.5800  0.4172
12429TIP3   OH258701   1.921   6.524  12.130 -0.7008 -0.1042  0.1840
12429TIP3    H158702   1.950   6.442  12.091  0.4791  0.6749 -0.6280
12429TIP3    H258703   1.885   6.499  12.214 -2.3642 -1.7110 -0.9677
12430TIP3   OH258704   2.233   1.456   4.901  0.5560 -0.6986 -0.3314
12430TIP3    H158705   2.143   1.434   4.879  0.7446 -1.6628 -0.1454
12430TIP3    H258706   2.246   1.420   4.988  0.8762  0.1383 -0.0275
12431TIP3   OH258707   0.171   3.308  11.429 -0.5517  0.1169  0.3738
12431TIP3    H158708   0.195   3.342  11.342 -0.5891  0.7880  0.6224
12431TIP3    H258709   0.253   3.310  11.478 -0.6041  0.0760  0.4623
12432TIP3   OH258710   0.300   0.182  16.261  0.2809  0.2468 -0.2247
12432TIP3    H158711   0.250   0.118  16.312  1.0308  0.1365  0.3831
12432TIP3    H258712   0.337   0.242  16.326 -1.5184  2.1238 -0.8740
12433TIP3   OH258713   2.242   1.311   0.078 -0.5567  0.2225 -0.2604
12433TIP3    H158714   2.203   1.254   0.012  1.3477 -0.4459 -0.8394
12433TIP3    H258715   2.320   1.263   0.108  0.0431  1.6984  0.5817
12434TIP3   OH258716   5.030   5.496   3.559  0.5619 -0.1107 -0.0095
12434TIP3    H158717   4.995   5.443   3.630  1.7326  0.9043  1.3487
12434TIP3    H258718   4.971   5.480   3.485 -0.1832 -1.8203  0.9282
12435TIP3   OH258719   6.236   6.319   2.906 -0.1782  0.3752 -0.7568
12435TIP3    H158720   6.245   6.268   2.825 -0.9821  1.3352 -1.4557
12435TIP3    H258721   6.180   6.265   2.961 -2.5052  1.2588 -2.1717
12436TIP3   OH258722   6.098   4.949  11.763 -0.4944 -0.4968  0.4288
12436TIP3    H158723   6.140   4.863  11.775  1.6617  0.3259 -1.0473
12436TIP3    H258724   6.039   4.956  11.838 -0.6258 -3.2117  0.6586
12437TIP3   OH258725   4.018   0.311   2.227  0.3598  0.4118  0.0733
12437TIP3    H158726   3.988   0.324   2.317  2.1063 -0.9927  0.8768
12437TIP3    H258727   3.941   0.331   2.174 -1.3036 -0.7264  1.9715
12438TIP3   OH258728   6.427   1.978  13.680  0.2333 -0.3500  0.3844
12438TIP3    H158729   6.415   1.919  13.606 -0.8782  0.1366  0.1754
12438TIP3    H258730   6.488   1.931  13.738  0.2367 -1.2101 -0.3043
12439TIP3   OH258731   6.243   6.065  14.452  0.0011  0.4060 -0.2495
12439TIP3    H158732   6.242   6.150  14.406  1.1851  0.2702 -0.5360
12439TIP3    H258733   6.309   6.014  14.406  0.6943  0.0078  1.1651
12440TIP3   OH258734   1.622   5.737   3.296  0.0219 -0.2249 -0.5200
12440TIP3    H158735   1.630   5.803   3.227 -0.9260 -1.4273 -1.7935
12440TIP3    H258736   1.587   5.785   3.371  2.7816  1.5002 -0.2409
12441TIP3   OH258737   4.937   6.780  12.522 -0.6295 -1.0381  0.4066
12441TIP3    H158738   4.853   6.734  12.524 -1.9252  1.2588  0.4258
12441TIP3    H258739   4.927   6.844  12.451  0.6815  0.0662  1.2046
12442TIP3   OH258740   1.222   3.179   1.540 -0.6513  0.3108  0.0626
12442TIP3    H158741   1.150   3.235   1.512 -0.8371 -0.2129 -0.5109
12442TIP3    H258742   1.301   3.231   1.523 -0.9117  1.0702  1.1332
12443TIP3   OH258743   4.009   4.130  10.876  0.2348 -0.4993  0.1759
12443TIP3    H158744   4.058   4.205  10.843  0.6188 -0.6976  0.2990
12443TIP3    H258745   4.001   4.146  10.970  2.2527 -1.7119  0.5798
12444TIP3   OH258746   0.815   0.404  13.991 -0.2004 -0.2260 -0.0107
12444TIP3    H158747   0.838   0.365  14.075 -2.5822 -0.3109  0.6568
12444TIP3    H258748   0.771   0.334  13.943  1.6409 -0.3436 -1.5865
12445TIP3   OH258749   5.251   1.351  13.998 -0.1826  0.4831 -0.0395
12445TIP3    H158750   5.342   1.369  14.020 -0.2134  0.4074  0.1511
12445TIP3    H258751   5.209   1.332  14.082 -0.2703  0.0602 -0.1777
12446TIP3   OH258752   3.890   2.097  13.343  0.2364 -1.2987  0.0448
12446TIP3    H158753   3.950   2.094  13.418  1.1561 -0.0332 -0.6169
12446TIP3    H258754   3.884   2.006  13.313  1.2532 -1.5458  0.5757
12447TIP3   OH258755   5.167   1.040  15.413  0.0819 -0.4502 -1.1649
12447TIP3    H158756   5.120   1.119  15.388  1.0422  0.7195  0.6382
12447TIP3    H258757   5.259   1.060  15.395  0.1522 -1.8347 -2.4166
12448TIP3   OH258758   3.333   5.628   1.727  0.0799  0.3630 -0.1384
12448TIP3    H158759   3.291   5.709   1.754  1.2138  0.3632  1.7071
12448TIP3    H258760   3.281   5.597   1.652 -1.9071  1.4231  0.7810
12449TIP3   OH258761   2.374   0.370   4.310  0.6609 -0.2980  0.2316
12449TIP3    H158762   2.429   0.385   4.234  1.1596 -0.3317  0.5797
12449TIP3    H258763   2.424   0.405   4.384 -0.6089  1.4141  0.3212
12450TIP3   OH258764   4.156   0.602  14.696 -0.1693  0.1741  0.0409
12450TIP3    H158765   4.184   0.526  14.746  0.7898  0.4646 -0.0514
12450TIP3    H258766   4.237   0.646  14.671 -0.6819  0.6523 -0.8058
12451TIP3   OH258767   0.563   0.870   2.986  0.4297  0.1539 -0.0418
12451TIP3    H158768   0.549   0.959   2.954 -0.6561 -0.8138 -2.4606
12451TIP3    H258769   0.497   0.858   3.054  1.5486  1.6495  1.3602
12452TIP3   OH258770   2.295   2.429   1.430 -0.2459  0.4295 -0.0147
12452TIP3    H158771   2.383   2.464   1.446 -0.0508 -0.1991  0.2956
12452TIP3    H258772   2.303   2.382   1.346  0.3860 -1.8414  1.2654
12453TIP3   OH258773   1.867   5.380  17.005  0.2258 -0.5539 -0.7715
12453TIP3    H158774   1.845   5.379  16.912  1.0482  0.1366 -0.9795
12453TIP3    H258775   1.962   5.386  17.007  0.2801 -1.5264  0.1228
12454TIP3   OH258776   1.657   1.305  13.235  0.2773 -0.0448  0.2808
12454TIP3    H158777   1.587   1.321  13.172 -0.1110 -0.4995  0.5906
12454TIP3    H258778   1.621   1.239  13.295  0.8403 -0.0211  0.6514
12455TIP3   OH258779   6.252   5.753   2.525 -0.6038  0.1445  0.4157
12455TIP3    H158780   6.189   5.783   2.459  0.7112  1.2548 -0.3511
12455TIP3    H258781   6.286   5.671   2.490 -0.6022  0.2551  0.1519
12456TIP3   OH258782   0.630   0.622   0.822  0.2269  0.3900  0.3214
12456TIP3    H158783   0.620   0.539   0.870 -1.0781  0.3337 -0.0307
12456TIP3    H258784   0.548   0.632   0.773  0.9101  1.2366 -0.6764
12457TIP3   OH258785   0.588   5.809  15.337 -0.0112 -0.2248 -0.2566
12457TIP3    H158786   0.630   5.895  15.337 -0.2622 -0.0954 -0.8554
12457TIP3    H258787   0.645   5.754  15.391 -0.0205  0.3970  0.3937
12458TIP3   OH258788   4.155   0.844  12.285 -1.0003 -0.2565  0.0899
12458TIP3    H158789   4.223   0.905  12.255 -0.6687 -0.6406  0.0489
12458TIP3    H258790   4.115   0.888  12.360 -1.1202  0.2418 -0.2640
12459TIP3   OH258791   2.018   6.003   0.115  0.3253 -0.4802 -0.3955
12459TIP3    H158792   2.057   6.064   0.178  1.7722 -0.5691 -1.1943
12459TIP3    H258793   2.089   5.942   0.094 -0.2057 -0.5754 -1.9575
12460TIP3   OH258794   5.092   3.150  17.111  0.0115  0.1207 -0.3443
12460TIP3    H158795   5.082   3.199  17.030 -1.3233 -0.3357 -0.4617
12460TIP3    H258796   5.005   3.147  17.149  0.8020  1.1561  1.6010
12461TIP3   OH258797   3.533   3.993  10.671  0.2984 -0.2821 -0.1818
12461TIP3    H158798   3.459   3.934  10.687  0.4930 -0.6042 -0.4716
12461TIP3    H258799   3.590   3.945  10.612  0.1228  0.4812 -0.9808
12462TIP3   OH258800   2.675   2.355   3.289 -0.2299  0.3854  0.4090
12462TIP3    H158801   2.703   2.268   3.317  0.7177 -0.1425 -2.0667
12462TIP3    H258802   2.746   2.413   3.319  0.6972 -0.1492 -0.7163
12463TIP3   OH258803   2.259   4.164  11.458 -0.2641  0.6798  0.3036
12463TIP3    H158804   2.311   4.235  11.421  0.0533  0.0611 -0.4558
12463TIP3    H258805   2.173   4.172  11.417 -0.0416  0.2558 -0.2563
12464TIP3   OH258806   1.214   0.191  15.962 -0.2009  0.1191 -0.1686
12464TIP3    H158807   1.226   0.184  16.057 -0.4599  0.3773 -0.1133
12464TIP3    H258808   1.141   0.253  15.952  0.0790  0.3938 -0.5438
12465TIP3   OH258809   6.382   0.309  15.134  0.1717 -0.8647  0.5450
12465TIP3    H158810   6.463   0.344  15.097 -0.3680 -0.7944 -0.6090
12465TIP3    H258811   6.349   0.379  15.190  0.9959 -0.9625  1.1573
12466TIP3   OH258812   1.119   6.513  15.399 -0.0777  0.6502  0.3475
12466TIP3    H158813   1.195   6.513  15.341  0.3206 -0.6929  0.8308
12466TIP3    H258814   1.151   6.550  15.481  0.1894 -0.2888  0.6838
12467TIP3   OH258815   0.618   6.380   1.023 -0.2642  0.3875  0.0837
12467TIP3    H158816   0.627   6.290   1.055  2.4980 -0.1353 -1.9303
12467TIP3    H258817   0.551   6.375   0.955 -0.6030 -0.0374  0.4475
12468TIP3   OH258818   6.554   4.222   0.760  0.0832 -0.0305 -0.2308
12468TIP3    H158819   6.599   4.244   0.678  0.1118  1.0821  0.0734
12468TIP3    H258820   6.522   4.133   0.747 -1.7762  0.9027 -2.2751
12469TIP3   OH258821   3.812   2.618  14.393  0.6851  0.0054  0.2123
12469TIP3    H158822   3.832   2.603  14.301  0.8806 -0.7411  0.3685
12469TIP3    H258823   3.773   2.705  14.396  0.7214  0.0498 -0.5679
12470TIP3   OH258824   0.280   1.978  15.979 -0.3693 -0.5039  0.6151
12470TIP3    H158825   0.213   2.040  16.008  0.6830 -0.0344  2.0902
12470TIP3    H258826   0.240   1.933  15.905 -2.2727 -0.1581  1.4056
12471TIP3   OH258827   4.643   5.946   6.842 -0.3456  0.4693 -0.1738
12471TIP3    H158828   4.711   5.950   6.774 -0.2031 -2.5035 -0.2900
12471TIP3    H258829   4.614   5.854   6.841 -3.0468  1.2541  1.1731
12472TIP3   OH258830   5.799   4.018   3.204  0.5689 -0.3079 -0.1365
12472TIP3    H158831   5.704   4.010   3.198  0.6696 -1.5183 -0.2007
12472TIP3    H258832   5.818   4.010   3.298  0.6090 -0.0496 -0.1215
12473TIP3   OH258833   1.349   3.854  13.151 -0.0146  0.0389 -0.0902
12473TIP3    H158834   1.297   3.869  13.230 -0.6486 -0.7186 -0.3519
12473TIP3    H258835   1.384   3.765  13.162 -0.6130 -0.3036 -0.9408
12474TIP3   OH258836   5.539   6.188   1.892 -0.2000  0.0857  0.1856
12474TIP3    H158837   5.459   6.206   1.842  0.1011  0.3306 -0.2067
12474TIP3    H258838   5.528   6.239   1.973  0.1529  1.1680 -0.4437
12475TIP3   OH258839   2.815   3.532   2.584  0.0332  0.4440 -0.4508
12475TIP3    H158840   2.846   3.442   2.573  2.0963  1.0311  0.3271
12475TIP3    H258841   2.724   3.522   2.614  0.1642 -1.3689 -0.5661
12476TIP3   OH258842   5.418   1.968  12.471 -0.4603 -0.1279  0.4573
12476TIP3    H158843   5.429   1.877  12.445  0.7876 -0.1293  0.9832
12476TIP3    H258844   5.323   1.982  12.468 -0.5390 -0.8860 -1.4801
12477TIP3   OH258845   0.516   3.189  13.225  0.4155 -0.0679 -0.5395
12477TIP3    H158846   0.452   3.243  13.178 -0.2556  0.0035  0.4389
12477TIP3    H258847   0.499   3.100  13.193 -0.6557 -0.1486  0.2397
12478TIP3   OH258848   3.486   1.929   4.482 -0.2144  0.3352 -0.1892
12478TIP3    H158849   3.503   1.929   4.388  0.3640 -2.4904 -0.1185
12478TIP3    H258850   3.391   1.933   4.490 -0.2574  0.7933 -0.8653
12479TIP3   OH258851   0.783   1.064  14.818  0.0167  0.2108  0.0719
12479TIP3    H158852   0.770   1.136  14.880 -0.6403  0.5577 -0.4559
12479TIP3    H258853   0.871   1.079  14.782  0.3102  0.1314  0.7597
12480TIP3   OH258854   4.460   3.965   4.923 -0.0691  0.1708 -0.3282
12480TIP3    H158855   4.533   3.913   4.889 -0.7250 -1.3898  0.5782
12480TIP3    H258856   4.495   4.053   4.931  1.1014 -0.1388 -1.8515
12481TIP3   OH258857   1.442   2.417  14.639  0.0267 -0.4346  0.7630
12481TIP3    H158858   1.371   2.481  14.636 -0.7197 -1.2837 -0.5177
12481TIP3    H258859   1.398   2.332  14.644  0.8519 -1.1026 -2.1110
12482TIP3   OH258860   3.442   0.683  13.078 -0.0581 -0.5899 -0.0503
12482TIP3    H158861   3.369   0.713  13.024 -0.0570 -1.4474 -0.5418
12482TIP3    H258862   3.422   0.591  13.096  1.6011 -1.2460 -1.3843
12483TIP3   OH258863   1.417   2.672  17.062 -0.8187 -0.1295 -0.0225
12483TIP3    H158864   1.376   2.599  17.016 -0.1729 -0.7667  0.4064
12483TIP3    H258865   1.433   2.639  17.151  2.2795 -0.5465 -0.6556
12484TIP3   OH258866   5.185   5.744   3.726 -0.5642  0.3052  0.4377
12484TIP3    H158867   5.136   5.700   3.795  1.4617 -1.6103  0.7275
12484TIP3    H258868   5.164   5.694   3.647  1.1641 -0.7608  0.6308
12485TIP3   OH258869   2.196   2.804  12.703 -0.3460  0.1421  0.1439
12485TIP3    H158870   2.100   2.801  12.697 -0.4313 -2.8537  2.0454
12485TIP3    H258871   2.226   2.728  12.654  0.9848  0.3659  0.5755
12486TIP3   OH258872   2.625   1.194  15.790  0.2644 -0.0132  0.0608
12486TIP3    H158873   2.645   1.103  15.770  1.3130 -0.5785  3.4166
12486TIP3    H258874   2.530   1.195  15.805  0.0257 -0.2384 -1.3429
12487TIP3   OH258875   0.811   3.507   1.459 -0.3744  0.1059 -0.2665
12487TIP3    H158876   0.894   3.555   1.463 -0.3430  0.1133 -0.9437
12487TIP3    H258877   0.802   3.468   1.546 -0.5867  1.6221  0.3912
12488TIP3   OH258878   2.724   6.452   0.095  0.1174  0.0394  0.3396
12488TIP3    H158879   2.768   6.417   0.018 -0.7328 -0.2437 -0.0179
12488TIP3    H258880   2.649   6.394   0.109 -0.1604  0.5288  0.9258
12489TIP3   OH258881   2.284   6.372  13.509  0.0963  0.1067 -0.2043
12489TIP3    H158882   2.346   6.411  13.448  0.3852 -2.4520 -1.6239
12489TIP3    H258883   2.217   6.439  13.522  1.4982  1.7177 -1.1241
12490TIP3   OH258884   2.133   2.578   5.808 -0.0083 -0.9431 -0.1725
12490TIP3    H158885   2.143   2.581   5.713 -1.6347  0.3738 -0.3390
12490TIP3    H258886   2.222   2.587   5.842  0.5504 -1.0497 -1.5643
12491TIP3   OH258887   0.463   5.282   5.619  0.4720 -0.2863 -0.0136
12491TIP3    H158888   0.515   5.221   5.671 -0.0192 -1.5260 -0.9566
12491TIP3    H258889   0.514   5.295   5.539 -0.3456 -0.9897 -0.6527
12492TIP3   OH258890   0.292   4.023   2.856  0.3259  0.0831 -0.7829
12492TIP3    H158891   0.351   3.997   2.927  0.9907  0.9421 -1.0124
12492TIP3    H258892   0.321   4.111   2.831 -1.3912  0.7298 -0.5563
12493TIP3   OH258893   0.313   6.233   4.382  0.5022  0.2290 -0.1776
12493TIP3    H158894   0.266   6.150   4.394  0.7167 -0.0830 -1.4800
12493TIP3    H258895   0.405   6.209   4.384  0.5457  0.2284 -2.0004
12494TIP3   OH258896   0.588   5.257  12.678 -0.5235 -0.4393 -0.2014
12494TIP3    H158897   0.679   5.250  12.708 -0.6134 -1.3237 -0.1125
12494TIP3    H258898   0.596   5.283  12.586 -0.2420  1.6955  0.3994
12495TIP3   OH258899   0.068   6.661  14.887 -0.2929 -0.2312  0.0636
12495TIP3    H158900   0.142   6.628  14.938 -1.2705  0.7031  2.1401
12495TIP3    H258901   0.067   6.756  14.904 -0.7993  0.0561 -1.4892
12496TIP3   OH258902   5.358   0.672  16.330 -0.1564 -0.2664 -0.4559
12496TIP3    H158903   5.300   0.647  16.402  1.0402 -0.9093  0.2910
12496TIP3    H258904   5.345   0.766  16.320  0.0282 -0.0858  0.9161
12497TIP3   OH258905   4.688   5.784   0.390 -0.4895 -0.4322 -0.3365
12497TIP3    H158906   4.750   5.851   0.359 -0.0551 -0.7993 -0.2678
12497TIP3    H258907   4.743   5.708   0.409 -1.2036 -1.4061 -2.1295
12498TIP3   OH258908   6.558   3.107   4.249 -0.2713  0.4922  0.2653
12498TIP3    H158909   6.614   3.132   4.322  0.5544 -2.6568  0.7738
12498TIP3    H258910   6.469   3.122   4.281  0.1589  2.2401  0.6988
12499TIP3   OH258911   3.994   5.371  16.580  0.3105 -0.6407  0.2117
12499TIP3    H158912   3.936   5.368  16.655 -1.8004 -0.3528 -1.3584
12499TIP3    H258913   3.955   5.312  16.516  2.2427 -1.1432 -0.5640
12500TIP3   OH258914   0.457   3.898  13.345 -0.4060  0.7774 -0.1874
12500TIP3    H158915   0.362   3.909  13.350 -0.0984  2.5529  2.6476
12500TIP3    H258916   0.491   3.987  13.340  1.1161  0.1388 -1.7621
12501TIP3   OH258917   1.438   0.223   2.162 -0.0449  0.4425 -0.8092
12501TIP3    H158918   1.418   0.282   2.090  0.2147  1.0034 -0.4251
12501TIP3    H258919   1.521   0.182   2.137  0.9267  1.8907 -0.0707
12502TIP3   OH258920   3.130   3.557   5.753 -0.5809  0.0204  0.0969
12502TIP3    H158921   3.141   3.474   5.708 -0.0488 -1.1306  2.2741
12502TIP3    H258922   3.097   3.534   5.840  0.1564  2.0059  0.9503
12503TIP3   OH258923   5.960   5.019  15.308 -0.2222  0.2070  0.1703
12503TIP3    H158924   5.962   4.936  15.260 -1.2044  0.8199 -0.9235
12503TIP3    H258925   5.932   4.994  15.396 -1.4616 -0.5048 -0.4107
12504TIP3   OH258926   0.211   2.134  11.631  0.0463  0.3789 -0.6680
12504TIP3    H158927   0.197   2.039  11.639 -1.0383  0.4666 -1.4769
12504TIP3    H258928   0.281   2.142  11.566  0.1121  0.1291 -0.6289
12505TIP3   OH258929   5.660   3.600   4.482  0.6001  0.7872  0.3050
12505TIP3    H158930   5.579   3.551   4.492  1.7893 -1.5504 -1.0961
12505TIP3    H258931   5.632   3.688   4.457 -1.5380  0.5914  1.8448
12506TIP3   OH258932   3.594   3.461   2.079 -0.4945  0.0611 -0.2101
12506TIP3    H158933   3.579   3.516   2.156  2.1359 -0.7289  0.9208
12506TIP3    H258934   3.507   3.453   2.038 -1.8935  0.7375  2.4942
12507TIP3   OH258935   1.834   5.702   4.430 -0.0239 -0.3936  0.0396
12507TIP3    H158936   1.756   5.751   4.403 -0.9186 -1.4026  0.7126
12507TIP3    H258937   1.877   5.677   4.348 -0.5287  0.0042 -0.3443
12508TIP3   OH258938   6.754   5.649   5.967  0.4368 -0.0602  0.1759
12508TIP3    H158939   6.730   5.741   5.961 -0.0317 -0.0318  2.0024
12508TIP3    H258940   6.684   5.603   5.921  0.6939  0.4903 -0.7800
12509TIP3   OH258941   4.531   1.107   2.727 -0.5060 -0.3842  0.5514
12509TIP3    H158942   4.531   1.064   2.641 -0.1661 -1.5493  1.1191
12509TIP3    H258943   4.594   1.178   2.719 -0.3856 -0.5639 -0.1283
12510TIP3   OH258944   2.304   5.685   0.960 -0.1765 -0.1745  0.6272
12510TIP3    H158945   2.333   5.776   0.966 -1.4173  0.2413  0.4524
12510TIP3    H258946   2.230   5.687   0.900 -0.5096 -1.2353  0.9903
12511TIP3   OH258947   0.887   1.146   1.133 -0.0096  0.3134 -0.0468
12511TIP3    H158948   0.843   1.136   1.217 -3.3193 -3.4601 -2.0780
12511TIP3    H258949   0.962   1.087   1.138 -0.0667  0.2768  0.3450
12512TIP3   OH258950   0.068   4.963   6.070 -0.8732  0.2238  0.4695
12512TIP3    H158951   0.030   4.910   6.000 -1.9340 -1.4176  2.2354
12512TIP3    H258952   0.152   4.992   6.036 -2.2329  1.1269 -2.2427
12513TIP3   OH258953   2.999   1.515  13.296 -0.4654  0.0773 -0.1072
12513TIP3    H158954   2.919   1.470  13.322  1.3502 -1.1112  3.7883
12513TIP3    H258955   3.063   1.445  13.284  0.5806  1.1515 -0.9283
12514TIP3   OH258956   2.067   2.040   1.514 -0.6227  0.2349  0.4940
12514TIP3    H158957   2.130   2.109   1.496 -0.2897  0.2019  1.4851
12514TIP3    H258958   2.007   2.041   1.439  0.4738  0.3469 -0.3807
12515TIP3   OH258959   4.668   0.420  13.612 -0.4514 -0.1261  0.2800
12515TIP3    H158960   4.734   0.429  13.682 -0.0321  0.5453 -0.1892
12515TIP3    H258961   4.642   0.510  13.593  1.8709  0.0180 -2.7107
12516TIP3   OH258962   0.401   2.855   5.253 -0.1824 -0.3259 -0.3117
12516TIP3    H158963   0.429   2.785   5.193 -2.1208 -1.7729  0.4010
12516TIP3    H258964   0.405   2.815   5.340  0.5423  1.0861  0.3250
12517TIP3   OH258965   6.045   3.008   4.335 -0.7791  0.0765 -0.2797
12517TIP3    H158966   6.070   2.923   4.299 -0.0677  0.6414 -1.1623
12517TIP3    H258967   5.978   3.041   4.275  0.7093  1.2103 -1.3718
12518TIP3   OH258968   4.921   1.670   3.953  0.0419  0.7157  0.4061
12518TIP3    H158969   4.889   1.736   3.891  0.0777  1.5870  1.2964
12518TIP3    H258970   4.860   1.675   4.026 -0.6440 -1.0760 -0.0175
12519TIP3   OH258971   5.524   3.693  15.811 -0.1490  0.5544 -0.3722
12519TIP3    H158972   5.487   3.636  15.879  0.0769 -0.0246 -0.7220
12519TIP3    H258973   5.589   3.746  15.856  0.8564 -0.6713 -0.3524
12520TIP3   OH258974   1.533   3.596   2.704  0.1161  0.0950  0.2950
12520TIP3    H158975   1.476   3.661   2.663  0.4441  1.9760  2.7407
12520TIP3    H258976   1.474   3.541   2.754  0.1670  0.4597  0.7587
12521TIP3   OH258977   4.225   4.137   5.090  0.0754  0.1037  0.0441
12521TIP3    H158978   4.318   4.152   5.111 -0.3479  1.7253  0.8571
12521TIP3    H258979   4.186   4.108   5.172 -0.6803  2.0898  0.4046
12522TIP3   OH258980   1.575   2.455  14.903  0.0837 -0.3043 -0.1175
12522TIP3    H158981   1.574   2.362  14.929 -0.4401 -0.3892 -0.4427
12522TIP3    H258982   1.531   2.456  14.819 -0.1998  0.2919  0.0404
12523TIP3   OH258983   1.150   1.622  16.497  0.3579  0.1380 -0.1932
12523TIP3    H158984   1.207   1.554  16.532  3.0425  2.4524  0.1417
12523TIP3    H258985   1.104   1.656  16.574 -0.2344 -0.5888 -0.2166
12524TIP3   OH258986   3.502   1.147   1.638  0.6596 -0.2622  0.3917
12524TIP3    H158987   3.459   1.228   1.664 -2.0367 -0.8615 -1.8594
12524TIP3    H258988   3.538   1.166   1.551  0.0789 -1.4412 -0.1176
12525TIP3   OH258989   2.347   3.010   6.339 -0.2262 -0.0561 -0.3142
12525TIP3    H158990   2.434   3.042   6.363  0.5507 -2.4014  0.1631
12525TIP3    H258991   2.352   2.915   6.353 -2.0760 -0.5475 -2.6682
12526TIP3   OH258992   3.615   0.906   4.341  0.2692  0.2247 -0.1499
12526TIP3    H158993   3.652   0.830   4.296  1.5299  0.8077 -0.1197
12526TIP3    H258994   3.677   0.977   4.323 -0.8253  1.2127 -0.0571
12527TIP3   OH258995   1.967   2.665  13.444  0.2912  0.5335 -0.1664
12527TIP3    H158996   1.915   2.742  13.467  1.1063  0.7413  0.9744
12527TIP3    H258997   2.051   2.701  13.416 -0.2157  0.2088 -2.2235
12528TIP3   OH258998   3.946   5.291   5.640 -0.5861 -0.2139  0.4541
12528TIP3    H158999   3.958   5.220   5.703  0.2591 -0.7742 -0.3170
12528TIP3    H259000   3.882   5.350   5.681 -1.0012 -1.2191  1.2674
12529TIP3   OH259001   5.342   0.514   5.099  0.1602 -0.7656  0.5663
12529TIP3    H159002   5.373   0.586   5.044  0.8566 -1.8806 -0.5491
12529TIP3    H259003   5.375   0.534   5.186  0.4968  0.1680  0.2290
12530TIP3   OH259004   5.707   4.993   1.496 -0.1902 -0.7749 -0.3789
12530TIP3    H159005   5.752   5.075   1.476  0.2092 -0.5493  1.3255
12530TIP3    H259006   5.774   4.926   1.487 -0.2365 -0.7802 -0.6778
12531TIP3   OH259007   0.734   6.393  15.369 -0.8115 -0.0452  0.0385
12531TIP3    H159008   0.753   6.461  15.434 -0.2741 -0.3028  0.1488
12531TIP3    H259009   0.665   6.432  15.314  0.2122  0.9983 -0.5408
12532TIP3   OH259010   0.979   0.229   1.775 -0.1164  0.1215  0.1895
12532TIP3    H159011   0.936   0.216   1.860 -2.1085  0.2037 -0.7834
12532TIP3    H259012   0.954   0.151   1.724  1.9752 -0.4657  0.0377
12533TIP3   OH259013   2.476   2.021  13.494 -0.0511  0.2322 -0.2576
12533TIP3    H159014   2.512   2.027  13.406  0.0709 -0.7637 -0.2856
12533TIP3    H259015   2.413   2.092  13.499 -2.3749 -1.5979 -2.2487
12534TIP3   OH259016   0.164   0.056  16.466  0.0286  0.3756  0.2407
12534TIP3    H159017   0.070   0.052  16.452 -0.0638  1.1338  0.6395
12534TIP3    H259018   0.175   0.028  16.557  0.4489 -2.5679 -0.6641
12535TIP3   OH259019   4.269   1.140   1.547 -0.0996  0.6995  0.6220
12535TIP3    H159020   4.275   1.232   1.574  0.6824  1.0234 -0.6339
12535TIP3    H259021   4.360   1.111   1.541 -0.3553 -0.4414  1.9264
12536TIP3   OH259022   5.849   1.525   4.358  0.3322  0.2967  0.0262
12536TIP3    H159023   5.811   1.598   4.309  1.2004  0.5027 -0.3359
12536TIP3    H259024   5.785   1.454   4.349 -0.4235  0.9377  0.2159
12537TIP3   OH259025   2.073   2.472   3.260 -0.1844 -0.2369  0.5221
12537TIP3    H159026   2.022   2.395   3.235 -1.4819 -0.2435  3.1578
12537TIP3    H259027   2.012   2.545   3.253  0.1946  0.1308  1.0371
12538TIP3   OH259028   1.903   4.706   1.315 -0.1888 -0.4112 -0.0368
12538TIP3    H159029   1.882   4.698   1.222 -0.4515  0.4533 -0.0562
12538TIP3    H259030   1.833   4.759   1.352  0.6880  0.4968  0.3635
12539TIP3   OH259031   6.659   5.332  13.088 -0.0775 -0.2532  0.4060
12539TIP3    H159032   6.679   5.380  13.168  1.5490  0.4585 -0.3898
12539TIP3    H259033   6.703   5.382  13.019 -0.1731 -1.6877 -0.7241
12540TIP3   OH259034   4.717   4.520   0.006 -0.2363  0.0968 -0.3323
12540TIP3    H159035   4.748   4.448  -0.050 -0.4806 -1.6603  1.7176
12540TIP3    H259036   4.794   4.549   0.054 -0.7230 -0.9247  1.1174
12541TIP3   OH259037   2.405   5.335   5.420  0.4320  0.4742  0.3756
12541TIP3    H159038   2.318   5.340   5.381  0.1732 -0.7188  0.7958
12541TIP3    H259039   2.399   5.387   5.500  0.2224  0.7216  0.1995
12542TIP3   OH259040   1.483   4.785  11.694  0.3950 -0.1995 -0.1810
12542TIP3    H159041   1.573   4.753  11.700  0.7228  0.4927 -1.2766
12542TIP3    H259042   1.453   4.757  11.608  0.0572  0.8136 -0.4044
12543TIP3   OH259043   1.206   2.027   2.090  0.0705  0.2083  0.0356
12543TIP3    H159044   1.281   1.978   2.056  0.8734  0.8382  0.8782
12543TIP3    H259045   1.217   2.025   2.185 -0.8792  0.4652  0.1490
12544TIP3   OH259046   1.823   4.169   1.468  0.6490  0.0892  0.0953
12544TIP3    H159047   1.827   4.225   1.391  0.8254  2.6329  1.8691
12544TIP3    H259048   1.830   4.230   1.542 -0.3187 -2.1830  2.1342
12545TIP3   OH259049   1.527   3.045  15.004 -0.2884  0.3256  0.5477
12545TIP3    H159050   1.526   3.121  14.946  0.7577 -0.5053 -0.5668
12545TIP3    H259051   1.619   3.023  15.014 -0.6164 -1.1552  0.4017
12546TIP3   OH259052   4.823   0.151   0.136 -0.3799  0.3933  0.2852
12546TIP3    H159053   4.882   0.204   0.191 -0.4448 -1.5031  2.2674
12546TIP3    H259054   4.736   0.164   0.175 -0.7598  0.6264 -0.6301
12547TIP3   OH259055   3.008   5.398   4.442 -0.0426  0.4891  0.7874
12547TIP3    H159056   3.097   5.392   4.476  0.5633  0.7935 -0.6971
12547TIP3    H259057   2.966   5.316   4.468  0.0813  1.1471  3.1193
12548TIP3   OH259058   4.976   5.300   0.788  0.3830  0.0012  0.4111
12548TIP3    H159059   5.050   5.244   0.765 -0.0732 -0.3048 -0.3113
12548TIP3    H259060   4.903   5.267   0.736 -0.4200 -0.0832  1.5781
12549TIP3   OH259061   2.673   3.638  12.225 -0.4126 -0.1675 -0.3006
12549TIP3    H159062   2.767   3.625  12.238 -0.6472 -0.4676  1.2263
12549TIP3    H259063   2.665   3.728  12.192  0.4529 -0.3863 -1.1160
12550TIP3   OH259064   3.332   1.747   4.737  0.6307 -0.2135 -0.3603
12550TIP3    H159065   3.256   1.696   4.710  0.4469  0.9800 -2.2686
12550TIP3    H259066   3.310   1.780   4.824 -1.1345  0.2787 -0.9704
12551TIP3   OH259067   6.119   0.330   5.147 -0.4805 -0.3815 -0.0352
12551TIP3    H159068   6.054   0.391   5.112 -0.1966  0.3709  0.7201
12551TIP3    H259069   6.102   0.330   5.242 -2.8549 -4.2173 -0.3198
12552TIP3   OH259070   1.529   6.719  11.904  0.2964 -0.4814 -0.1413
12552TIP3    H159071   1.449   6.670  11.886 -0.3272  0.4290  0.1670
12552TIP3    H259072   1.520   6.800  11.854  0.4793  0.1680  0.8712
12553TIP3   OH259073   4.118   1.735  13.138 -0.1649  0.4543  0.4668
12553TIP3    H159074   4.200   1.784  13.141  1.0507 -1.3512 -1.9740
12553TIP3    H259075   4.140   1.648  13.170 -0.3021 -1.0322 -3.2378
12554TIP3   OH259076   5.278   3.548  15.989  0.5066 -0.4152 -0.2799
12554TIP3    H159077   5.261   3.469  15.938  0.6291 -0.8476  0.3463
12554TIP3    H259078   5.324   3.517  16.067 -0.3728  0.1361  0.4715
12555TIP3   OH259079   2.623   2.263   0.357 -0.0875 -0.3505  0.2041
12555TIP3    H159080   2.544   2.212   0.338 -0.9358  0.9222  0.2057
12555TIP3    H259081   2.617   2.280   0.451  0.3224 -0.4772  0.2511
12556TIP3   OH259082   0.453   2.354  11.985  0.2171 -0.3600 -0.2614
12556TIP3    H159083   0.427   2.262  11.977 -1.4592  0.2467 -2.3638
12556TIP3    H259084   0.480   2.379  11.896 -0.2275  1.4245  0.0829
12557TIP3   OH259085   1.602   5.990   3.477 -0.0385  0.0188 -0.2018
12557TIP3    H159086   1.677   6.002   3.418  1.1713  1.5980  1.5798
12557TIP3    H259087   1.632   5.925   3.541 -0.1301  0.7077  0.5602
12558TIP3   OH259088   5.936   6.355  12.951 -0.2424 -0.3423 -0.0152
12558TIP3    H159089   5.976   6.403  13.024  0.4891 -0.0708 -0.5841
12558TIP3    H259090   5.872   6.416  12.914 -0.0826 -0.2060 -0.0677
12559TIP3   OH259091   0.413   0.852   5.796 -0.0827  0.0186  0.0976
12559TIP3    H159092   0.391   0.887   5.710  1.4216 -1.6565 -1.0040
12559TIP3    H259093   0.356   0.775   5.806 -1.6270  1.2971  1.4501
12560TIP3   OH259094   6.488   5.091  13.954  0.1340 -0.2327 -0.1687
12560TIP3    H159095   6.453   5.158  14.012  2.1862 -0.4738  1.3925
12560TIP3    H259096   6.557   5.135  13.904  1.6653 -1.1930  1.0437
12561TIP3   OH259097   4.839   2.600  17.020 -0.0900 -0.8631  0.5837
12561TIP3    H159098   4.764   2.542  17.030  0.9921 -2.6761 -1.4072
12561TIP3    H259099   4.907   2.564  17.077 -0.3075  0.0785  1.4618
12562TIP3   OH259100   1.727   4.868   4.843  0.3771  0.4250  0.5377
12562TIP3    H159101   1.720   4.833   4.754  1.5035  2.9798 -0.6202
12562TIP3    H259102   1.796   4.816   4.884  0.7129  0.0431 -0.4976
12563TIP3   OH259103   4.101   6.237   3.429 -0.0283 -0.5585 -0.5611
12563TIP3    H159104   4.185   6.262   3.390 -0.7858  1.6566 -0.8556
12563TIP3    H259105   4.051   6.319   3.434 -1.2605 -1.4043  1.8838
12564TIP3   OH259106   2.027   4.792   5.627  0.2926  0.5712  0.3773
12564TIP3    H159107   2.026   4.886   5.646  1.7273  0.4054  1.3596
12564TIP3    H259108   2.095   4.757   5.684  0.2483 -0.9640 -0.4913
12565TIP3   OH259109   1.960   2.569  14.717  0.5706 -0.1624 -0.1805
12565TIP3    H159110   1.989   2.520  14.794 -0.6248  0.5181  0.7150
12565TIP3    H259111   1.878   2.610  14.744  1.3950  2.1099 -1.0039
12566TIP3   OH259112   5.803   3.362  16.624  0.0670  0.5002 -0.2265
12566TIP3    H159113   5.763   3.352  16.710 -1.0105  1.5244 -0.5938
12566TIP3    H259114   5.853   3.281  16.610 -0.4156 -0.0098  1.0020
12567TIP3   OH259115   2.490   2.281   3.896  0.5711 -0.4408 -0.1058
12567TIP3    H159116   2.519   2.216   3.832 -1.1235 -1.8904  0.5672
12567TIP3    H259117   2.481   2.232   3.978  3.0024  1.4414  1.3804
12568TIP3   OH259118   6.597   2.692  13.827  0.3519  0.3219 -0.1921
12568TIP3    H159119   6.580   2.603  13.857 -0.1232  0.5053  0.1093
12568TIP3    H259120   6.685   2.713  13.859 -0.5585  0.8975  2.0585
12569TIP3   OH259121   5.240   2.088   2.763 -0.4299 -0.8468  0.1138
12569TIP3    H159122   5.154   2.109   2.799 -0.1605 -1.0317  0.8915
12569TIP3    H259123   5.265   2.165   2.713 -1.4476 -1.1651 -0.8851
12570TIP3   OH259124   4.087   0.504   0.125 -0.1062 -0.5959 -0.5336
12570TIP3    H159125   4.054   0.465   0.044  1.0946  2.1554 -2.4366
12570TIP3    H259126   4.174   0.466   0.137 -0.4336 -1.2847 -0.3085
12571TIP3   OH259127   0.396   1.332   2.607  0.2526 -0.1063 -0.6136
12571TIP3    H159128   0.304   1.307   2.619  0.2827 -0.1338 -0.4335
12571TIP3    H259129   0.434   1.259   2.559 -0.3340  0.9045 -2.6457
12572TIP3   OH259130   4.933   2.336   1.804 -0.4477 -0.5502 -0.1107
12572TIP3    H159131   4.841   2.329   1.778 -1.2216  1.2958  1.9473
12572TIP3    H259132   4.975   2.384   1.733 -1.1471 -1.0664 -0.8828
12573TIP3   OH259133   3.968   4.654   4.137 -0.2419 -0.1981  0.7585
12573TIP3    H159134   3.961   4.737   4.090 -0.6155 -1.3658 -1.3551
12573TIP3    H259135   3.878   4.633   4.163 -0.4055 -0.7598 -0.2295
12574TIP3   OH259136   4.321   5.394  11.920  0.6714 -0.5757  0.0308
12574TIP3    H159137   4.389   5.361  11.978  1.3135  0.5798 -0.0409
12574TIP3    H259138   4.243   5.399  11.975  1.0742 -0.2767  0.5808
12575TIP3   OH259139   2.154   2.415  11.834  0.2357 -0.3006 -0.0687
12575TIP3    H159140   2.177   2.361  11.759  0.9293  1.7642 -1.3858
12575TIP3    H259141   2.221   2.395  11.900  0.4640 -1.0436 -0.5273
12576TIP3   OH259142   4.535   5.728  14.023  0.4618 -0.1376  0.1110
12576TIP3    H159143   4.511   5.787  13.951  0.8511  0.3394  0.3661
12576TIP3    H259144   4.557   5.787  14.095  1.5507 -0.5789  0.1502
12577TIP3   OH259145   6.720   1.442  17.149  0.0775 -0.2034  0.1448
12577TIP3    H159146   6.698   1.357  17.187 -1.3763 -0.4604 -1.2204
12577TIP3    H259147   6.808   1.432  17.114 -0.5466 -1.5373 -1.0903
12578TIP3   OH259148   1.500   6.709  11.026  0.1709 -0.6263  0.4388
12578TIP3    H159149   1.567   6.641  11.025  0.8889  0.0657  1.0006
12578TIP3    H259150   1.531   6.775  10.965  1.5128  1.1102  2.9155
12579TIP3   OH259151   2.581   5.137  11.730  0.4534 -0.1672 -0.0336
12579TIP3    H159152   2.573   5.076  11.656  0.0503  0.1565 -0.2598
12579TIP3    H259153   2.536   5.216  11.700  1.1001  0.2946  0.2021
12580TIP3   OH259154   1.995   0.118  13.563  0.7014 -0.6258 -0.5110
12580TIP3    H159155   1.932   0.047  13.549 -0.1378 -0.0964  0.4495
12580TIP3    H259156   2.038   0.129  13.478 -2.5777  0.9683 -2.0685
12581TIP3   OH259157   1.619   2.145  10.589  0.0339  0.3949 -0.0179
12581TIP3    H159158   1.545   2.205  10.599 -0.7426 -0.3983 -0.8317
12581TIP3    H259159   1.687   2.197  10.546 -0.8574  0.5364 -1.2940
12582TIP3   OH259160   2.675   4.798  11.522  0.3573 -0.2639  0.3221
12582TIP3    H159161   2.699   4.741  11.595  0.3793 -1.3089 -0.4852
12582TIP3    H259162   2.726   4.878  11.537  2.4117 -1.4651  0.0537
12583TIP3   OH259163   2.168   2.936   2.986 -0.2146  0.0907  0.6745
12583TIP3    H159164   2.132   3.020   3.016 -0.7503  0.1627 -0.1412
12583TIP3    H259165   2.091   2.887   2.956  0.4497  0.5963 -1.9612
12584TIP3   OH259166   3.439   5.120  16.428  0.2700 -0.4099 -0.7460
12584TIP3    H159167   3.345   5.122  16.412  0.1644  0.7850 -0.0325
12584TIP3    H259168   3.461   5.211  16.450  1.4024 -0.8804  0.0981
12585TIP3   OH259169   0.652   0.002  13.646  0.0440 -0.1326  0.0464
12585TIP3    H159170   0.662  -0.084  13.686  0.5892  0.1355  0.4955
12585TIP3    H259171   0.583   0.044  13.698 -1.2504 -0.8311 -1.0892
12586TIP3   OH259172   2.155   5.703  11.308 -0.1832  0.4369 -0.3147
12586TIP3    H159173   2.223   5.637  11.323  0.3853  1.4869  1.8306
12586TIP3    H259174   2.193   5.763  11.244  0.2832  0.1209 -0.3316
12587TIP3   OH259175   0.972   4.798   3.854 -0.0514 -0.1521  0.2533
12587TIP3    H159176   0.904   4.731   3.855  0.3907 -0.6732 -1.4870
12587TIP3    H259177   0.928   4.877   3.824 -0.1228 -0.2196  0.1799
12588TIP3   OH259178   4.828   0.580  11.880 -0.0446  0.2945 -0.0278
12588TIP3    H159179   4.921   0.584  11.860 -0.3717  1.5562 -1.3921
12588TIP3    H259180   4.806   0.487  11.876  1.0518  0.0329 -0.1664
12589TIP3   OH259181   4.986   1.837  16.333 -0.1238  0.1974  0.1681
12589TIP3    H159182   4.983   1.881  16.418 -0.9977  0.8873 -0.2099
12589TIP3    H259183   4.981   1.908  16.269 -1.2077 -0.4123 -0.4523
12590TIP3   OH259184   3.530   2.015  12.053 -0.5496 -0.1633 -0.5734
12590TIP3    H159185   3.526   1.967  12.136  1.5563  1.5144  0.5618
12590TIP3    H259186   3.441   2.047  12.039 -1.2749 -1.7496  0.2397
12591TIP3   OH259187   1.615   1.557  15.535  0.5484  0.4670 -0.9180
12591TIP3    H159188   1.524   1.529  15.531  0.6642  0.0251 -0.5461
12591TIP3    H259189   1.614   1.647  15.504 -0.2313  0.9476  0.4527
12592TIP3   OH259190   0.236   3.105  14.002 -0.5610 -0.1830 -0.1231
12592TIP3    H159191   0.322   3.070  14.021 -0.6397  0.7951  2.3043
12592TIP3    H259192   0.251   3.173  13.937  0.4318 -0.4136 -0.1380
12593TIP3   OH259193   2.974   0.857   5.022 -0.7546 -0.1699  0.2648
12593TIP3    H159194   3.062   0.842   5.056 -1.0451 -0.7035  0.8040
12593TIP3    H259195   2.986   0.912   4.945  0.0497 -0.2392  0.3418
12594TIP3   OH259196   0.427   1.720   5.759  0.3114  0.5206  0.4765
12594TIP3    H159197   0.376   1.700   5.680  1.4869 -0.0647 -0.1420
12594TIP3    H259198   0.478   1.798   5.736  1.1886 -0.0674  0.4140
12595TIP3   OH259199   4.583   3.999  16.691  0.3798 -0.0735 -0.1996
12595TIP3    H159200   4.536   3.986  16.774 -1.3379 -0.2790 -1.1759
12595TIP3    H259201   4.612   3.911  16.666 -0.4515 -0.2495 -0.5741
12596TIP3   OH259202   0.046   2.560  15.210  0.6572  0.2945  0.5140
12596TIP3    H159203  -0.031   2.567  15.266 -2.1908 -1.1972 -2.9548
12596TIP3    H259204   0.058   2.647  15.174  0.6127  0.5482  1.1172
12597TIP3   OH259205   0.432   1.569  14.868  0.4373 -0.1311 -0.1914
12597TIP3    H159206   0.430   1.506  14.796 -1.2790  0.0063 -0.2828
12597TIP3    H259207   0.483   1.643  14.833  2.2783 -1.3346 -0.1484
12598TIP3   OH259208   6.075   2.334   0.818 -0.1680  0.1180 -0.1420
12598TIP3    H159209   5.980   2.333   0.826 -0.3959 -0.9989 -2.3619
12598TIP3    H259210   6.097   2.426   0.801 -0.7531  0.5179  1.2293
12599TIP3   OH259211   2.390   4.019  14.542  0.0041 -0.0437  0.1978
12599TIP3    H159212   2.451   3.945  14.541 -0.7232 -0.6933  1.6929
12599TIP3    H259213   2.383   4.046  14.450  0.5938 -1.5783 -0.3175
12600TIP3   OH259214   0.026   3.524   1.965  0.0538 -0.6692 -0.6055
12600TIP3    H159215   0.020   3.460   2.035  0.4461  0.5363  0.5542
12600TIP3    H259216   0.084   3.592   1.999 -1.6886  1.1499 -1.1232
12601TIP3   OH259217   6.584   0.930   2.131 -0.6604  0.3892 -0.0143
12601TIP3    H159218   6.640   0.971   2.196  0.4901 -1.0940 -0.0451
12601TIP3    H259219   6.524   0.875   2.182 -1.5902  1.3759 -0.0328
12602TIP3   OH259220   4.630   5.629  15.146  0.0894 -0.3222 -0.3650
12602TIP3    H159221   4.644   5.596  15.235 -0.7963  0.7454  0.1729
12602TIP3    H259222   4.712   5.610  15.100  0.2103 -1.7206  0.4146
12603TIP3   OH259223   5.842   4.554  15.946 -0.4479 -0.2755 -0.1725
12603TIP3    H159224   5.860   4.580  16.036 -4.1172  0.0324  0.5562
12603TIP3    H259225   5.815   4.462  15.952 -0.8081 -0.2231 -0.9092
12604TIP3   OH259226   3.799   0.236  15.845  0.0433  0.0432 -0.1552
12604TIP3    H159227   3.886   0.263  15.816  0.1261 -0.6016 -0.5173
12604TIP3    H259228   3.770   0.173  15.779  0.0638 -1.1334  0.9316
12605TIP3   OH259229   6.074   5.811  12.909 -0.4376 -0.4261  0.3437
12605TIP3    H159230   5.980   5.825  12.918 -0.7214 -1.8334 -0.4289
12605TIP3    H259231   6.099   5.868  12.836 -0.4807  0.7381  1.2069
12606TIP3   OH259232   0.416   5.830  15.705 -0.0435 -0.2259 -0.3615
12606TIP3    H159233   0.450   5.803  15.790 -0.2364  4.0380  1.1630
12606TIP3    H259234   0.494   5.845  15.652  0.1364 -0.2488 -0.1036
12607TIP3   OH259235   5.687   6.525   1.121  0.0337 -0.5399  0.0255
12607TIP3    H159236   5.687   6.596   1.057 -0.6442  0.0165  0.6261
12607TIP3    H259237   5.693   6.445   1.069  1.0407 -0.0333 -0.6489
12608TIP3   OH259238   1.385   4.771   0.453  0.0712  1.0821  0.2983
12608TIP3    H159239   1.445   4.834   0.491  1.3199 -0.0190  0.1653
12608TIP3    H259240   1.441   4.702   0.418 -1.1239  1.2206 -1.9878
12609TIP3   OH259241   4.561   2.510   2.314 -0.2996  0.3992 -0.1819
12609TIP3    H159242   4.564   2.605   2.325 -1.8547  0.6751 -1.9237
12609TIP3    H259243   4.526   2.478   2.397 -3.1831  1.6708 -0.8436
12610TIP3   OH259244   2.048   3.122   5.739 -0.3205  0.0243 -0.0140
12610TIP3    H159245   2.015   3.117   5.829 -0.5018 -0.2547 -0.0974
12610TIP3    H259246   2.045   3.032   5.707  0.5734 -0.0147  0.0008
12611TIP3   OH259247   3.980   2.990   4.479 -0.0182  0.0742  0.1255
12611TIP3    H159248   3.980   3.041   4.559 -0.1731 -1.9634  1.4671
12611TIP3    H259249   3.937   3.046   4.414 -0.2837  1.5654  1.5658
12612TIP3   OH259250   6.108   2.080  15.921 -0.3876  0.1483  0.1393
12612TIP3    H159251   6.167   2.012  15.954  0.5535  0.5059 -0.7882
12612TIP3    H259252   6.134   2.159  15.967 -0.7651  0.1136  0.4159
12613TIP3   OH259253   1.988   0.770  12.803  0.0203 -0.0445  0.0050
12613TIP3    H159254   1.948   0.754  12.888 -1.6028 -0.5807 -0.8514
12613TIP3    H259255   1.915   0.797  12.747  0.8836 -0.9081 -1.5428
12614TIP3   OH259256   1.972   1.802  17.164  0.2619 -0.2071  0.5065
12614TIP3    H159257   1.893   1.799  17.110  0.5851 -2.0257  0.1299
12614TIP3    H259258   2.044   1.794  17.102  0.7948  2.2618  0.7684
12615TIP3   OH259259   4.518   1.464  13.991  0.6763 -0.1772  0.5751
12615TIP3    H159260   4.525   1.424  13.905  0.8199  1.4468 -0.1944
12615TIP3    H259261   4.591   1.527  13.993 -1.9085  2.9337  0.1530
12616TIP3   OH259262   1.599   3.953   0.186 -0.0667  0.0699  0.1489
12616TIP3    H159263   1.523   3.994   0.228  0.9550  2.3589 -0.1643
12616TIP3    H259264   1.616   4.008   0.109  0.7695 -1.5389 -0.8489
12617TIP3   OH259265   3.872   3.082   5.630 -0.1846 -0.3670 -0.4337
12617TIP3    H159266   3.877   3.167   5.673  1.4845 -1.5261  1.7502
12617TIP3    H259267   3.923   3.093   5.549  0.2908  0.6083 -0.0009
12618TIP3   OH259268   1.352   6.595  16.915 -0.1529 -0.7097  0.0709
12618TIP3    H159269   1.401   6.613  16.836  0.9749  1.1480  1.1664
12618TIP3    H259270   1.418   6.591  16.984 -1.4068  0.7202  1.3939
12619TIP3   OH259271   4.984   5.103  15.357  0.1147 -0.3021 -0.7437
12619TIP3    H159272   5.002   5.019  15.400  0.4674 -0.4643 -1.2004
12619TIP3    H259273   4.888   5.111  15.359 -0.0921 -1.8377 -2.7768
12620TIP3   OH259274   1.671   1.096  12.010  0.4815  0.3152 -0.5153
12620TIP3    H159275   1.688   1.173  12.065 -1.2764 -0.0687  0.6186
12620TIP3    H259276   1.576   1.095  12.000  0.6605 -0.6073 -2.1613
12621TIP3   OH259277   2.289   1.739  16.208  0.1910  0.1516  0.6179
12621TIP3    H159278   2.221   1.683  16.170  0.5860  0.0380  0.0649
12621TIP3    H259279   2.360   1.737  16.143 -0.5099  2.7601 -0.2879
12622TIP3   OH259280   2.572   6.140   0.316  0.2589  0.8028 -0.6722
12622TIP3    H159281   2.628   6.194   0.260  1.5625  0.6985  0.4859
12622TIP3    H259282   2.593   6.050   0.292 -0.7843  0.7735 -1.5221
12623TIP3   OH259283   1.565   0.662   4.173 -0.6757  0.1934 -0.0458
12623TIP3    H159284   1.533   0.736   4.121 -1.7018 -2.0647 -2.7683
12623TIP3    H259285   1.490   0.634   4.225 -0.5270  0.5471  0.3580
12624TIP3   OH259286   4.746   5.652  10.739 -0.1773  0.3561  0.5213
12624TIP3    H159287   4.660   5.660  10.780  0.0775  2.4006  0.6882
12624TIP3    H259288   4.736   5.578  10.678 -2.7411  2.0209 -1.1744
12625TIP3   OH259289   0.261   6.555  15.364  0.1776 -0.0867  0.2307
12625TIP3    H159290   0.323   6.620  15.398  0.2291 -0.9452  1.8364
12625TIP3    H259291   0.181   6.570  15.415  0.0211 -0.9368  0.2304
12626TIP3   OH259292   4.833   4.319   2.595  0.3985 -0.2701  0.5032
12626TIP3    H159293   4.782   4.311   2.676 -0.2423 -2.6828 -0.1142
12626TIP3    H259294   4.866   4.231   2.578  2.2420  0.6394 -0.7747
12627TIP3   OH259295   1.285   5.231  17.059 -0.1947  1.1110  0.2733
12627TIP3    H159296   1.275   5.139  17.035  0.4770  1.0529  0.2028
12627TIP3    H259297   1.321   5.272  16.981  3.0497  0.7115  1.4737
12628TIP3   OH259298   2.569   6.441  14.987 -0.7968  0.4336  0.2886
12628TIP3    H159299   2.526   6.403  14.910 -1.3054 -0.7978  1.1591
12628TIP3    H259300   2.662   6.419  14.976 -1.1044 -1.2367  0.8567
12629TIP3   OH259301   1.047   2.244  11.509  0.1859  0.0854 -0.2600
12629TIP3    H159302   1.039   2.259  11.414 -0.4246 -2.7359 -0.7017
12629TIP3    H259303   1.141   2.254  11.526  0.2396  1.1020 -1.0506
12630TIP3   OH259304   4.096   3.690   2.415  0.1793 -0.0602  0.1147
12630TIP3    H159305   4.124   3.781   2.427 -0.6134  0.2398 -0.2761
12630TIP3    H259306   4.063   3.686   2.326  0.5730 -0.8377 -0.0038
12631TIP3   OH259307   1.736   3.842   5.258 -0.7938  0.0609 -0.0495
12631TIP3    H159308   1.645   3.825   5.283 -1.1900 -0.3243 -1.6953
12631TIP3    H259309   1.739   3.937   5.242 -0.5184  0.3198  1.5162
12632TIP3   OH259310   5.338   2.949   0.497 -0.0675 -0.1055 -0.8446
12632TIP3    H159311   5.384   2.887   0.440 -1.4997 -1.1064 -0.9446
12632TIP3    H259312   5.255   2.906   0.517 -0.6904  1.3860 -0.1368
12633TIP3   OH259313   4.608   4.985  15.320  0.0481  0.4543  0.0844
12633TIP3    H159314   4.636   5.038  15.394  0.3104 -0.1252  0.4024
12633TIP3    H259315   4.633   4.896  15.344  0.2862  0.2883 -0.7719
12634TIP3   OH259316   1.930   2.027   0.393  0.3931 -0.0131 -0.5760
12634TIP3    H159317   1.952   1.974   0.316  1.6378 -1.6877  0.8755
12634TIP3    H259318   1.962   1.975   0.467 -0.7226  1.5919  1.0701
12635TIP3   OH259319   2.383   5.510   5.652 -0.8303 -0.3376 -0.9216
12635TIP3    H159320   2.402   5.547   5.738  1.8693  1.6209 -2.3299
12635TIP3    H259321   2.313   5.565   5.617  0.9713  1.5342 -1.6792
12636TIP3   OH259322   1.750   5.598   1.274  0.4242 -0.1118  0.3001
12636TIP3    H159323   1.721   5.547   1.349  1.3529  1.2916  1.6363
12636TIP3    H259324   1.834   5.635   1.301 -0.1790  2.0195 -0.6881
12637TIP3   OH259325   5.889   6.518   1.627  0.0583  0.3567  0.0237
12637TIP3    H159326   5.979   6.535   1.654 -0.0855  2.3076 -0.6737
12637TIP3    H259327   5.882   6.557   1.540 -0.7829 -1.9004 -0.9720
12638TIP3   OH259328   4.825   6.779  10.592 -0.4733  0.4439  0.2957
12638TIP3    H159329   4.817   6.684  10.601  0.0403  0.2953 -0.6752
12638TIP3    H259330   4.735   6.810  10.584 -0.5887 -0.1093 -0.6562
12639TIP3   OH259331   4.990   3.387  14.199  0.6561 -0.4126 -0.3579
12639TIP3    H159332   5.070   3.387  14.253 -2.2156 -0.5910  4.2151
12639TIP3    H259333   4.999   3.311  14.143  2.5606 -2.0220  2.0107
12640TIP3   OH259334   4.914   2.231   2.432 -0.1141  0.0327 -0.1526
12640TIP3    H159335   4.829   2.235   2.390 -0.1792  0.1911 -0.0061
12640TIP3    H259336   4.900   2.270   2.518 -0.4989 -2.2574  0.8797
12641TIP3   OH259337   0.305   6.306  16.943 -0.2721 -0.5164  0.2164
12641TIP3    H159338   0.302   6.402  16.935 -0.4774 -0.4835  0.6512
12641TIP3    H259339   0.213   6.280  16.945 -0.2125 -0.7729 -0.4715
12642TIP3   OH259340   0.716   4.441  16.130 -0.5836 -0.6198  0.3244
12642TIP3    H159341   0.694   4.387  16.054 -2.0037  0.3464  0.0231
12642TIP3    H259342   0.653   4.513  16.127  2.0671  1.8078 -0.0682
12643TIP3   OH259343   2.504   5.692  16.309  0.6567  0.2503 -0.1920
12643TIP3    H159344   2.510   5.663  16.400  0.9327  1.0448  0.0463
12643TIP3    H259345   2.583   5.744  16.295 -0.1281  1.4209 -0.4123
12644TIP3   OH259346   6.454   5.146  12.976  0.4048 -0.6193  0.0293
12644TIP3    H159347   6.403   5.124  12.899 -0.8899  1.6267  0.1886
12644TIP3    H259348   6.537   5.178  12.942  0.5375 -1.3747 -0.3591
12645TIP3   OH259349   0.248   6.723   3.953  0.4225 -0.4115 -0.3276
12645TIP3    H159350   0.321   6.684   4.002 -0.3722 -0.1382  1.0785
12645TIP3    H259351   0.170   6.680   3.987 -0.3328  1.3026  0.1553
12646TIP3   OH259352   2.336   0.108  13.544 -0.2340 -0.2635  0.1247
12646TIP3    H159353   2.286   0.096  13.624  1.3132  0.6956  1.2718
12646TIP3    H259354   2.271   0.134  13.479 -1.3410  0.1742  1.3755
12647TIP3   OH259355   3.327   4.125   4.291  0.1530 -0.0670  0.1142
12647TIP3    H159356   3.241   4.126   4.333  0.4869  0.9277  0.7990
12647TIP3    H259357   3.336   4.212   4.252  0.0683 -0.7990 -1.6106
12648TIP3   OH259358   5.658   4.373   5.218 -0.3137 -0.2080 -0.0307
12648TIP3    H159359   5.695   4.298   5.171  0.3123  1.1802 -1.7569
12648TIP3    H259360   5.724   4.442   5.210 -0.9815  0.6133  1.3642
12649TIP3   OH259361   2.875   4.140   0.690  0.3089  0.0264 -0.2723
12649TIP3    H159362   2.845   4.089   0.615  2.1255 -1.2975 -0.1202
12649TIP3    H259363   2.919   4.076   0.746  3.0360  1.8369 -0.3045
12650TIP3   OH259364   6.291   2.121  13.327 -0.2108 -0.4999 -0.4388
12650TIP3    H159365   6.216   2.158  13.280 -1.3414 -1.6269  0.4287
12650TIP3    H259366   6.320   2.048  13.272 -0.5405 -0.8237 -0.1955
12651TIP3   OH259367   5.958   3.949  16.996  0.0606 -0.0858  0.2579
12651TIP3    H159368   5.915   3.874  16.954  0.1180 -0.0589  0.1495
12651TIP3    H259369   6.051   3.928  16.991  0.3533  1.5732 -2.9285
12652TIP3   OH259370   2.093   6.297   5.133  0.2207 -0.0981  0.6817
12652TIP3    H159371   2.131   6.355   5.067 -0.1854  0.2842  0.7798
12652TIP3    H259372   2.158   6.228   5.145  0.3060 -0.1607 -0.1067
12653TIP3   OH259373   1.707   6.492  11.228 -0.3107  0.1983  0.1250
12653TIP3    H159374   1.693   6.498  11.133 -0.5704 -0.3767  0.1274
12653TIP3    H259375   1.800   6.468  11.236  0.3537  2.6207  0.0861
12654TIP3   OH259376   1.146   2.819   5.869  0.5197  0.2659 -0.0899
12654TIP3    H159377   1.199   2.851   5.795  0.5748  2.5187  0.8812
12654TIP3    H259378   1.058   2.852   5.851  0.5790  0.9973  0.9464
12655TIP3   OH259379   1.080   3.766   1.911 -0.4411 -0.2590 -0.7658
12655TIP3    H159380   1.134   3.843   1.893 -0.0888 -0.3648 -0.1841
12655TIP3    H259381   1.039   3.785   1.996  2.5471 -2.2624  1.2275
12656TIP3   OH259382   3.839   3.365   1.267 -0.2042 -0.5659 -0.5493
12656TIP3    H159383   3.846   3.283   1.316  1.1523  0.3736  0.9039
12656TIP3    H259384   3.826   3.432   1.334  0.0742  0.5655 -1.6061
12657TIP3   OH259385   3.790   5.367  16.809 -0.5218  0.7775  0.3141
12657TIP3    H159386   3.790   5.397  16.900 -0.2810  1.1298  0.2009
12657TIP3    H259387   3.809   5.274  16.815  0.7907  1.0468  0.5489
12658TIP3   OH259388   0.547   3.189  14.516 -0.1313  0.3985 -0.2220
12658TIP3    H159389   0.536   3.250  14.589 -1.2947 -0.5077  0.3949
12658TIP3    H259390   0.642   3.178  14.508 -0.0004 -0.6477  2.1663
12659TIP3   OH259391   4.390   3.115  17.008 -0.0521  0.7070  0.2903
12659TIP3    H159392   4.458   3.140  17.070 -0.9295  0.7726  1.2563
12659TIP3    H259393   4.398   3.021  16.999  1.3448  0.9323 -1.0376
12660TIP3   OH259394   1.629   5.473  14.317 -0.5552  0.3757  0.0904
12660TIP3    H159395   1.650   5.566  14.311 -2.9838  0.8347 -2.2859
12660TIP3    H259396   1.698   5.437  14.373 -0.1865  3.7664  1.9930
12661TIP3   OH259397   2.988   5.615   0.644  0.1311 -0.1574 -0.7934
12661TIP3    H159398   2.934   5.538   0.631  0.4667 -0.6503  0.6183
12661TIP3    H259399   3.077   5.588   0.619  0.3461 -0.4025  0.2039
12662TIP3   OH259400   5.887   0.375   4.775  0.3227 -0.1556 -0.0126
12662TIP3    H159401   5.973   0.345   4.805  0.1628 -1.3339 -0.6942
12662TIP3    H259402   5.864   0.314   4.705 -0.6302  0.7572 -0.4957
12663TIP3   OH259403   3.632   1.230   1.052 -0.2190 -0.1178 -0.1829
12663TIP3    H159404   3.631   1.316   1.094 -1.0338 -1.0448  1.7649
12663TIP3    H259405   3.722   1.200   1.061 -0.4651 -0.4526  1.2274
12664TIP3   OH259406   2.633   3.497  14.565 -0.2606  0.0098  0.2716
12664TIP3    H159407   2.644   3.534  14.652 -0.1482 -3.1344  1.6450
12664TIP3    H259408   2.544   3.464  14.564 -0.0490 -0.5528 -0.5690
12665TIP3   OH259409   1.075   0.811  12.436  0.0006 -0.1167 -0.4036
12665TIP3    H159410   1.166   0.827  12.463  0.4076 -0.6314 -1.4277
12665TIP3    H259411   1.079   0.805  12.340 -1.1432  0.0178 -0.4681
12666TIP3   OH259412   0.852   6.215  10.967  0.1411 -0.1516  0.7058
12666TIP3    H159413   0.815   6.259  11.043 -0.7121 -2.7034  1.8194
12666TIP3    H259414   0.776   6.188  10.916  0.6116 -1.2993  0.6101
12667TIP3   OH259415   5.869   4.635   2.680  0.0197  0.2706 -0.1627
12667TIP3    H159416   5.897   4.720   2.716 -0.7758  0.2665  0.4919
12667TIP3    H259417   5.858   4.580   2.757  1.5968 -0.7681 -0.6609
12668TIP3   OH259418   2.489   3.147   5.172 -1.0842 -0.3288 -0.4644
12668TIP3    H159419   2.535   3.207   5.114  0.6951 -0.6859  0.5538
12668TIP3    H259420   2.550   3.131   5.244 -1.7543 -2.9052 -0.4258
12669TIP3   OH259421   2.785   5.967   4.605 -0.1204  0.3165  0.1079
12669TIP3    H159422   2.690   5.976   4.600  0.2219  3.9029 -1.3604
12669TIP3    H259423   2.815   5.979   4.515  1.7583 -0.2294  0.6447
12670TIP3   OH259424   5.465   6.047   3.088 -0.0128  0.1521  0.2515
12670TIP3    H159425   5.549   6.082   3.059 -0.5919  0.1086 -1.5029
12670TIP3    H259426   5.482   6.017   3.177  1.4125  1.6154  0.5022
12671TIP3   OH259427   6.382   5.784  16.371 -0.2964  0.3244  0.2858
12671TIP3    H159428   6.440   5.734  16.428 -1.8384 -0.6155  1.0643
12671TIP3    H259429   6.343   5.850  16.427  0.2510  1.1636 -0.3106
12672TIP3   OH259430   1.334   1.957  12.623 -0.4728  0.0614 -0.1042
12672TIP3    H159431   1.407   2.013  12.598 -0.3706  0.3516  0.8027
12672TIP3    H259432   1.256   2.008  12.599 -0.3777 -0.5982 -1.8111
12673TIP3   OH259433   1.316   0.332   5.673  0.3342 -0.0265 -0.1071
12673TIP3    H159434   1.378   0.318   5.744  0.8460 -2.8154 -1.0050
12673TIP3    H259435   1.370   0.362   5.600  0.1248  0.8380  0.0977
12674TIP3   OH259436   3.263   5.209  14.720 -0.2561 -0.2860 -0.4889
12674TIP3    H159437   3.172   5.241  14.721  0.1438  0.9026 -0.6122
12674TIP3    H259438   3.307   5.267  14.658  0.6618 -0.6648 -0.1927
12675TIP3   OH259439   3.288   3.951  15.767 -0.1147  0.1459 -0.0130
12675TIP3    H159440   3.271   3.870  15.720 -0.6782 -0.1608  0.7102
12675TIP3    H259441   3.242   3.941  15.850 -0.1843  1.2057  0.0855
12676TIP3   OH259442   5.430   5.729  17.213 -0.2469 -0.1534  0.3794
12676TIP3    H159443   5.460   5.638  17.204  3.0193  0.6054  2.5871
12676TIP3    H259444   5.419   5.741  17.307 -0.2851  1.8412  0.1345
12677TIP3   OH259445   5.981   3.757   3.570  0.2675  0.0564 -0.4577
12677TIP3    H159446   6.027   3.836   3.598 -0.4395  0.2592  0.1749
12677TIP3    H259447   6.042   3.713   3.512  2.4556 -1.1914  2.6400
12678TIP3   OH259448   2.924   0.211   2.209  0.1240  0.0651 -0.2931
12678TIP3    H159449   2.952   0.260   2.287  1.8043 -0.1483 -0.7302
12678TIP3    H259450   2.888   0.277   2.150 -0.8439  0.2744  0.5259
12679TIP3   OH259451   3.578   3.375  10.277  0.4340 -0.5136 -0.1650
12679TIP3    H159452   3.617   3.458  10.306  0.8822 -1.9326  3.6346
12679TIP3    H259453   3.651   3.327  10.237  0.9087 -0.2352  0.3482
12680TIP3   OH259454   3.126   2.557   6.775  0.1858  0.2383  0.5838
12680TIP3    H159455   3.047   2.530   6.823 -0.8237 -1.4173 -1.8843
12680TIP3    H259456   3.092   2.598   6.695  1.8179  3.1187  1.3076
12681TIP3   OH259457   1.743   3.745   1.113 -0.0216  0.4383 -0.1658
12681TIP3    H159458   1.711   3.812   1.053  0.7076 -0.1220 -1.1968
12681TIP3    H259459   1.684   3.750   1.189 -1.4191  0.6317 -1.2580
12682TIP3   OH259460   1.956   4.829   5.017  0.3732 -0.0339  0.4882
12682TIP3    H159461   2.033   4.809   5.070  1.5295 -0.9335 -1.5104
12682TIP3    H259462   1.979   4.803   4.928 -1.3081  2.0696 -0.6184
12683TIP3   OH259463   2.712   2.273   1.940 -0.7633 -0.2631  0.7157
12683TIP3    H159464   2.715   2.330   2.017  0.1617 -0.2463  0.6725
12683TIP3    H259465   2.642   2.310   1.886 -0.1857  0.8186  0.6969
12684TIP3   OH259466   1.299   3.709   5.128  0.4798  0.2858 -0.3687
12684TIP3    H159467   1.372   3.691   5.187 -1.4648 -1.5138  1.5809
12684TIP3    H259468   1.261   3.790   5.160  0.6633  0.4096 -0.4565
12685TIP3   OH259469   4.359   5.773   4.736 -0.5757  0.7119  0.6641
12685TIP3    H159470   4.394   5.766   4.647  0.1892 -0.5823  1.0559
12685TIP3    H259471   4.432   5.804   4.789 -0.9860  1.3331  0.8791
12686TIP3   OH259472   6.352   1.616   2.031  0.0591 -0.6332 -0.4225
12686TIP3    H159473   6.352   1.706   1.996  1.0952 -0.2896  0.4441
12686TIP3    H259474   6.293   1.620   2.105 -1.2945 -1.1063 -1.4557
12687TIP3   OH259475   1.435   6.553   6.163  0.1443  0.0057  0.7846
12687TIP3    H159476   1.469   6.635   6.128 -0.5389 -0.6039 -1.3768
12687TIP3    H259477   1.513   6.499   6.177  0.3828  0.0107 -0.4877
12688TIP3   OH259478   1.268   1.186  15.927  0.4934 -0.5498 -0.6928
12688TIP3    H159479   1.268   1.121  15.857 -0.8431  0.3944 -1.6024
12688TIP3    H259480   1.361   1.201  15.947  0.8028 -3.0699 -0.1152
12689TIP3   OH259481   3.977   1.607  15.965 -0.1465 -0.0122  0.6059
12689TIP3    H159482   3.962   1.699  15.942  0.8700  0.2245  0.9024
12689TIP3    H259483   3.992   1.563  15.881  0.0845  0.2192  0.5291
12690TIP3   OH259484   5.314   4.076  14.444 -0.1456  0.4382  0.1366
12690TIP3    H159485   5.242   4.040  14.495  0.1460 -0.6162 -0.1776
12690TIP3    H259486   5.320   4.019  14.367  2.4782 -0.8957  1.2720
12691TIP3   OH259487   4.935   4.076   4.468  0.1115  0.8774 -0.2261
12691TIP3    H159488   4.936   4.088   4.373  1.4188 -1.2672 -0.5145
12691TIP3    H259489   4.998   4.140   4.501  0.4274  0.9242 -0.9062
12692TIP3   OH259490   1.415   4.221  17.066  0.4762 -0.1789  0.1332
12692TIP3    H159491   1.465   4.285  17.116 -0.0471 -1.9560  3.0498
12692TIP3    H259492   1.473   4.195  16.994  2.1582  0.7437  1.1327
12693TIP3   OH259493   0.650   3.304   3.125 -0.2901 -0.1796 -0.1023
12693TIP3    H159494   0.627   3.217   3.158  1.1205  0.0365  1.5543
12693TIP3    H259495   0.568   3.341   3.095 -1.1756 -1.4716  0.6700
12694TIP3   OH259496   2.656   5.525  14.807  0.4472 -0.1651 -0.7261
12694TIP3    H159497   2.600   5.478  14.745 -1.0414 -0.1018  0.5179
12694TIP3    H259498   2.626   5.615  14.803  0.3393 -0.1634  0.0792
12695TIP3   OH259499   3.962   2.936  11.004  1.0503  0.2465  0.2801
12695TIP3    H159500   3.935   2.886  10.927 -1.3677  2.2296 -0.2378
12695TIP3    H259501   4.038   2.985  10.975 -0.2754  1.5339 -1.1282
12696TIP3   OH259502   2.002   3.666   0.622 -0.7287  0.4435 -0.1113
12696TIP3    H159503   2.069   3.598   0.608 -1.5883 -0.6852  1.1302
12696TIP3    H259504   1.992   3.707   0.536  2.5632  1.5865 -0.0302
12697TIP3   OH259505   2.662   3.248   5.807 -0.1879  0.1355 -0.1694
12697TIP3    H159506   2.755   3.265   5.822 -0.3010  0.2537  0.4218
12697TIP3    H259507   2.647   3.162   5.847 -0.2325 -0.0938 -0.6765
12698TIP3   OH259508   0.417   1.474   3.805  0.1117  0.3340 -0.3317
12698TIP3    H159509   0.346   1.416   3.835 -0.8939  0.6844 -1.9786
12698TIP3    H259510   0.492   1.449   3.859 -0.8570 -1.0880  0.4069
12699TIP3   OH259511   3.564   4.947   2.429 -0.2058 -0.0788 -0.2360
12699TIP3    H159512   3.531   4.949   2.339 -0.3098 -0.3625 -0.2037
12699TIP3    H259513   3.575   5.040   2.452 -0.0754 -0.0106 -0.5767
12700TIP3   OH259514   2.132   1.189   2.571 -0.7019  0.1513  0.4307
12700TIP3    H159515   2.165   1.235   2.648 -0.8169 -0.0410  0.5962
12700TIP3    H259516   2.044   1.160   2.595 -0.7458  0.1032  0.2218
12701TIP3   OH259517   4.046   0.917  11.376 -0.4750 -0.3810 -0.1034
12701TIP3    H159518   4.066   0.840  11.322  1.9397  0.1169  0.0251
12701TIP3    H259519   3.959   0.898  11.413 -1.1852 -1.7200 -2.3777
12702TIP3   OH259520   4.108   4.832  14.276 -0.4424 -0.0213  0.1876
12702TIP3    H159521   4.145   4.747  14.298  1.2464  0.4282 -0.8053
12702TIP3    H259522   4.173   4.872  14.218 -1.8322  1.3959 -0.4325
12703TIP3   OH259523   6.619   5.319   0.039  0.2764  0.3840  0.4544
12703TIP3    H159524   6.701   5.285   0.001  0.1822  0.8703 -0.1972
12703TIP3    H259525   6.636   5.323   0.133  0.5195 -0.8296  0.4745
12704TIP3   OH259526   2.942   4.773   0.867  0.4383 -0.5129  0.8281
12704TIP3    H159527   2.882   4.738   0.802 -1.5694 -0.6122  2.6824
12704TIP3    H259528   3.006   4.704   0.881  0.4974 -0.7387 -0.5609
12705TIP3   OH259529   5.491   0.654   0.459  0.1590 -0.4922 -0.0847
12705TIP3    H159530   5.412   0.678   0.410  0.4936 -1.5922 -1.2044
12705TIP3    H259531   5.478   0.561   0.480  2.3876 -1.4522 -2.7170
12706TIP3   OH259532   1.071   1.874   0.227 -0.6229 -0.0371 -0.2571
12706TIP3    H159533   1.134   1.867   0.155 -0.1286  0.7605  0.0845
12706TIP3    H259534   1.119   1.847   0.305 -0.6013  0.8867  0.0571
12707TIP3   OH259535   5.660   2.191   3.083 -0.3525  0.2651 -0.6473
12707TIP3    H159536   5.699   2.124   3.139  1.1604  0.0743 -1.9026
12707TIP3    H259537   5.573   2.158   3.063  0.0785 -0.9157 -0.5847
12708TIP3   OH259538   2.930   4.733   0.183  0.0797 -0.3576  0.0934
12708TIP3    H159539   2.867   4.712   0.113 -0.0495 -0.0781  0.1265
12708TIP3    H259540   2.930   4.828   0.187  0.1753 -0.3711  0.3983
12709TIP3   OH259541   0.419   5.439   2.440 -0.1390  1.0288  0.8412
12709TIP3    H159542   0.457   5.364   2.394 -3.5667 -1.4239  1.8291
12709TIP3    H259543   0.469   5.445   2.521  0.1942 -0.1657  0.7343
12710TIP3   OH259544   6.132   0.840  16.693  0.4784  0.0008  0.1967
12710TIP3    H159545   6.075   0.915  16.711  1.0808  0.7004 -0.7940
12710TIP3    H259546   6.148   0.844  16.599  1.8034 -0.4705  0.4002
12711TIP3   OH259547   5.721   5.708   1.407  0.1370 -0.5361 -0.7102
12711TIP3    H159548   5.652   5.760   1.448  0.1092 -0.4098 -0.9121
12711TIP3    H259549   5.779   5.683   1.479  0.3276  0.0505 -0.6540
12712TIP3   OH259550   2.107   1.927  10.903  0.5887  0.1300  0.1970
12712TIP3    H159551   2.022   1.969  10.921  1.6928  2.5582 -0.0132
12712TIP3    H259552   2.134   1.891  10.987 -1.2800 -1.8970 -0.0363
12713TIP3   OH259553   4.327   6.157   6.316 -0.0264  0.3941 -0.0385
12713TIP3    H159554   4.358   6.142   6.227 -2.1172 -1.2657 -0.5171
12713TIP3    H259555   4.406   6.149   6.370  1.2267  1.2784 -1.7078
12714TIP3   OH259556   5.134   1.643   5.834  0.2400  0.5498  0.2370
12714TIP3    H159557   5.080   1.693   5.774  1.3225  1.1326 -0.2739
12714TIP3    H259558   5.076   1.622   5.907 -0.8107  0.6895 -0.5442
12715TIP3   OH259559   6.107   5.448   5.202 -0.8473 -0.3081  0.3651
12715TIP3    H159560   6.098   5.542   5.186 -0.7941 -0.4471 -0.5467
12715TIP3    H259561   6.058   5.407   5.130  0.5342 -0.9905 -0.2096
12716TIP3   OH259562   6.735   1.966  15.099 -0.4860  0.0719 -0.6472
12716TIP3    H159563   6.775   2.001  15.178  1.5927 -0.4709 -1.4284
12716TIP3    H259564   6.643   1.992  15.105  0.1448  2.0942  0.7675
12717TIP3   OH259565   6.575   0.273  13.056  0.7770 -0.5001 -0.0029
12717TIP3    H159566   6.589   0.367  13.046  1.7863 -0.3987  2.0336
12717TIP3    H259567   6.536   0.263  13.143 -2.6189 -1.6913 -1.5928
12718TIP3   OH259568   2.186   3.080  16.510 -0.2035 -0.5664  0.1184
12718TIP3    H159569   2.149   3.014  16.568 -0.4325 -0.3815  0.1789
12718TIP3    H259570   2.178   3.042  16.422  1.3777 -1.4374  0.3227
12719TIP3   OH259571   4.351   4.303  16.000 -0.1128 -0.1713 -0.3030
12719TIP3    H159572   4.313   4.303  15.912 -0.7517 -1.1865 -0.0412
12719TIP3    H259573   4.443   4.278  15.986  0.1887  1.1850 -0.8274
12720TIP3   OH259574   6.390   2.866   5.529  0.9171 -0.1430 -0.0014
12720TIP3    H159575   6.387   2.946   5.580  0.1221  0.5511 -1.1185
12720TIP3    H259576   6.430   2.801   5.587 -1.0135  0.3180  1.8785
12721TIP3   OH259577   2.046   4.410   3.241  0.3629 -0.3142 -0.1133
12721TIP3    H159578   2.010   4.356   3.170 -1.4653  2.5112 -1.4265
12721TIP3    H259579   2.133   4.435   3.211 -0.3898  0.8420 -1.4047
12722TIP3   OH259580   1.652   3.555   0.646 -0.6849 -0.1535  0.4991
12722TIP3    H159581   1.616   3.584   0.730 -2.5931 -1.1150  0.0208
12722TIP3    H259582   1.650   3.632   0.591 -0.5453  0.1797  0.9559
12723TIP3   OH259583   1.730   0.834   3.985  0.3283 -0.3159 -0.1656
12723TIP3    H159584   1.702   0.787   3.906 -1.8675  1.1677 -0.3243
12723TIP3    H259585   1.809   0.880   3.959  1.6410 -2.6320 -0.4476
12724TIP3   OH259586   3.696   6.784  12.158  0.3506 -0.6164 -0.3074
12724TIP3    H159587   3.657   6.869  12.174  1.1493 -0.3251  0.1094
12724TIP3    H259588   3.787   6.803  12.134  0.9703 -1.4323  1.3302
12725TIP3   OH259589   2.241   5.576   4.802  0.2445 -0.1134  0.5237
12725TIP3    H159590   2.148   5.597   4.802  0.5276  1.4105 -2.2396
12725TIP3    H259591   2.245   5.484   4.826 -1.9230 -0.0256  1.3389
12726TIP3   OH259592   1.366   3.498  14.023 -0.4995 -0.4640 -0.2314
12726TIP3    H159593   1.322   3.498  13.938 -1.3373  0.9310  0.1937
12726TIP3    H259594   1.454   3.530  14.005 -1.1002  1.1614 -0.3793
12727TIP3   OH259595   0.565   6.093   0.997  0.3661 -0.5389 -0.5012
12727TIP3    H159596   0.583   6.101   0.904 -0.2729  2.2614 -0.4387
12727TIP3    H259597   0.493   6.154   1.013 -0.3241 -1.8474  1.6015
12728TIP3   OH259598   5.310   2.720   0.832  0.0465  0.3524  0.2130
12728TIP3    H159599   5.387   2.773   0.809 -0.5368  1.4945  0.8280
12728TIP3    H259600   5.280   2.757   0.915 -0.8486 -0.4414  0.2470
12729TIP3   OH259601   6.506   6.619  11.830  0.2662  0.1705 -0.0461
12729TIP3    H159602   6.472   6.537  11.867  0.6271 -1.2237 -2.6890
12729TIP3    H259603   6.447   6.639  11.757  0.8683  1.6473 -0.1525
12730TIP3   OH259604   0.988   1.617   4.429 -0.3986 -0.5062 -0.1123
12730TIP3    H159605   1.022   1.531   4.404  0.9766  0.1239 -0.4811
12730TIP3    H259606   1.047   1.680   4.385 -2.4868  0.6248 -1.3555
12731TIP3   OH259607   5.252   5.636  14.687 -0.2573  0.6782  0.1704
12731TIP3    H159608   5.200   5.557  14.699 -0.4553  0.7297 -0.3259
12731TIP3    H259609   5.191   5.699  14.647 -0.1506  1.1333  0.7212
12732TIP3   OH259610   0.310   6.019   0.609  0.6257 -0.2167  0.5503
12732TIP3    H159611   0.278   6.069   0.534 -0.0585 -1.4399 -0.0070
12732TIP3    H259612   0.301   5.927   0.581  2.5232 -0.6267  1.2612
12733TIP3   OH259613   0.972   6.439  14.072 -0.5829  0.1155  0.4779
12733TIP3    H159614   0.958   6.344  14.069  1.5814 -0.1824 -1.6022
12733TIP3    H259615   0.956   6.468  13.982  4.3639  0.8352 -0.2820
12734TIP3   OH259616   1.860   0.014  16.268 -0.0962 -0.4315 -0.0880
12734TIP3    H159617   1.912  -0.048  16.319 -1.8261 -1.2072  0.7772
12734TIP3    H259618   1.922   0.051  16.205  1.7871 -0.4182  1.6970
12735TIP3   OH259619   0.069   0.757  15.574 -0.2841  0.2628  0.4785
12735TIP3    H159620   0.130   0.689  15.601 -1.7173 -0.9136  0.7863
12735TIP3    H259621   0.120   0.838  15.578  1.0042 -0.5906  1.5871
12736TIP3   OH259622   6.071   5.577  12.782 -0.1633  0.1623 -0.2882
12736TIP3    H159623   6.058   5.515  12.853  2.2684 -0.3327 -0.2624
12736TIP3    H259624   6.053   5.663  12.821  1.8571 -0.0431  1.1179
12737TIP3   OH259625   2.742   3.769   1.167  0.0743 -0.5100 -0.0214
12737TIP3    H159626   2.714   3.691   1.213  0.4002  0.2674  1.5251
12737TIP3    H259627   2.741   3.838   1.233  1.3024  0.4602 -0.9848
12738TIP3   OH259628   1.769   4.172  16.520 -0.6218  0.3898 -0.8453
12738TIP3    H159629   1.859   4.149  16.496  0.4123  2.2245  1.0578
12738TIP3    H259630   1.746   4.244  16.460 -1.4426 -1.1384 -2.4017
12739TIP3   OH259631   0.332   6.207  13.782 -0.5395  0.4349  0.1483
12739TIP3    H159632   0.290   6.123  13.762  0.0965  0.5494 -1.7721
12739TIP3    H259633   0.422   6.184  13.805 -0.4546  0.5605 -0.0590
12740TIP3   OH259634   6.429   1.626   4.341  0.4976 -0.2118 -0.0017
12740TIP3    H159635   6.411   1.666   4.256 -0.7784 -1.1543 -0.1832
12740TIP3    H259636   6.369   1.552   4.346  0.2102  0.1396  1.9523
12741TIP3   OH259637   3.440   6.104  12.828 -0.7956  0.0654 -0.3340
12741TIP3    H159638   3.432   6.114  12.923 -0.7384 -0.0855 -0.3126
12741TIP3    H259639   3.377   6.035  12.806 -0.6968 -0.0087 -0.3837
12742TIP3   OH259640   4.558   4.583   5.076 -0.2717  0.1354  0.1342
12742TIP3    H159641   4.578   4.672   5.105 -1.0337  0.9252 -1.6822
12742TIP3    H259642   4.476   4.561   5.120 -1.8561  1.6391 -1.9425
12743TIP3   OH259643   2.508   1.260   0.950  0.0185 -0.0421  0.3440
12743TIP3    H159644   2.576   1.201   0.918  0.6708  0.3958  0.9194
12743TIP3    H259645   2.552   1.346   0.956 -0.6293  0.2772  0.5453
12744TIP3   OH259646   6.667   6.578  12.433 -0.2457 -0.0915 -0.1066
12744TIP3    H159647   6.641   6.670  12.431 -2.1971 -0.5732  1.6518
12744TIP3    H259648   6.614   6.540  12.503 -0.8508 -2.9563 -2.0592
12745TIP3   OH259649   4.489   3.577  16.155  0.5783  0.3404 -0.1586
12745TIP3    H159650   4.472   3.607  16.244 -0.5182 -1.6742  0.3501
12745TIP3    H259651   4.455   3.647  16.099  2.4173  2.2080  0.9718
12746TIP3   OH259652   5.470   0.776   0.753  0.2174  0.4863 -0.0586
12746TIP3    H159653   5.457   0.714   0.825 -2.1173  0.1099 -0.7520
12746TIP3    H259654   5.476   0.862   0.796  3.0865 -0.1379  0.8738
12747TIP3   OH259655   2.089   1.785  16.909 -0.2539  0.1626 -0.1432
12747TIP3    H159656   2.116   1.859  16.855  0.8803 -0.9788 -1.1666
12747TIP3    H259657   1.994   1.778  16.895 -0.6714  2.3853  1.2178
12748TIP3   OH259658   2.852   2.106   3.222 -0.5878 -0.5826  0.0928
12748TIP3    H159659   2.932   2.158   3.226 -0.5303 -0.7069  0.5953
12748TIP3    H259660   2.872   2.028   3.273 -1.3254 -0.2130  0.9643
12749TIP3   OH259661   6.190   5.868   1.113 -0.3090  0.3031  0.6640
12749TIP3    H159662   6.285   5.860   1.109 -0.3751 -0.1185 -0.1516
12749TIP3    H259663   6.158   5.778   1.115 -0.6274  0.4244  3.0696
12750TIP3   OH259664   5.601   4.824  15.724 -0.1575  0.5229 -0.1703
12750TIP3    H159665   5.581   4.733  15.702  0.2336  0.8047 -1.7565
12750TIP3    H259666   5.693   4.822  15.751 -0.3258  0.3607  0.4142
12751TIP3   OH259667   2.457   0.769  14.939  0.0300 -0.4525 -0.1991
12751TIP3    H159668   2.521   0.765  14.868 -0.2143 -2.7634 -0.3242
12751TIP3    H259669   2.492   0.835  14.999  1.6493 -0.4643 -1.1087
12752TIP3   OH259670   6.743   2.040   4.408 -0.4459  0.0032 -0.4973
12752TIP3    H159671   6.683   2.107   4.441  0.6296  1.1065 -0.7509
12752TIP3    H259672   6.729   2.041   4.313  0.8045  1.1209 -0.6968
12753TIP3   OH259673   5.230   5.834  13.354 -0.3293  0.2981 -0.3551
12753TIP3    H159674   5.229   5.758  13.297  1.7458  0.1499 -0.2483
12753TIP3    H259675   5.217   5.909  13.294 -1.2703 -0.0620 -0.6030
12754TIP3   OH259676   2.837   4.170  11.857 -0.1910 -0.3037 -0.4016
12754TIP3    H159677   2.806   4.233  11.792 -0.3049 -1.1665 -1.2060
12754TIP3    H259678   2.761   4.155  11.914  0.0519  0.8123  0.2209
12755TIP3   OH259679   3.842   4.252   0.199  0.1429  0.0170 -0.1433
12755TIP3    H159680   3.792   4.178   0.164  0.1050 -0.1790  0.3206
12755TIP3    H259681   3.776   4.312   0.234  0.2288 -0.3392  0.6599
12756TIP3   OH259682   1.087   1.623   5.560  0.5309 -0.2184 -0.1401
12756TIP3    H159683   1.114   1.550   5.505 -2.2628  0.1306 -2.0601
12756TIP3    H259684   1.117   1.701   5.513  2.4059 -0.0505  1.2845
12757TIP3   OH259685   5.721   5.981   3.017  0.0556  0.0202  0.2166
12757TIP3    H159686   5.810   5.946   3.020  0.0995  0.2907  3.1535
12757TIP3    H259687   5.666   5.905   3.000  0.6896 -0.4861  0.4085
12758TIP3   OH259688   6.423   4.626  13.670  0.3316  0.0924  0.0228
12758TIP3    H159689   6.414   4.713  13.708 -1.4467  0.8446 -2.0928
12758TIP3    H259690   6.493   4.635  13.605 -1.6913  0.6438 -2.1265
12759TIP3   OH259691   2.016   0.958  15.627 -0.0620 -0.4718 -0.1241
12759TIP3    H159692   2.000   1.031  15.567 -3.5954 -1.9264 -1.0206
12759TIP3    H259693   2.077   0.901  15.579  0.6586  0.5589 -0.4641
12760TIP3   OH259694   1.882   0.232  14.697 -0.2881 -0.1436 -0.2545
12760TIP3    H159695   1.908   0.277  14.617  3.6736 -2.8860 -0.6912
12760TIP3    H259696   1.851   0.146  14.668  0.1308 -0.7586  1.0513
12761TIP3   OH259697   0.932   4.165   3.914  0.5525 -0.1351  0.2878
12761TIP3    H159698   0.958   4.257   3.923 -2.3398  0.8693 -0.9645
12761TIP3    H259699   0.954   4.143   3.823 -0.6196 -0.0111 -0.0432
12762TIP3   OH259700   3.211   6.600   1.689  0.4054  0.0145  0.7829
12762TIP3    H159701   3.193   6.665   1.621  0.2878 -0.3722  0.4378
12762TIP3    H259702   3.307   6.590   1.688  0.2670 -1.3565 -0.6295
12763TIP3   OH259703   2.450   3.307  14.620 -0.0856 -0.2347 -0.5107
12763TIP3    H159704   2.541   3.283  14.603  0.0502  1.2466 -2.0995
12763TIP3    H259705   2.399   3.234  14.584  0.4571 -1.0094  0.2747
12764TIP3   OH259706   0.264   5.472  12.458  0.4020 -0.2228  0.5667
12764TIP3    H159707   0.178   5.512  12.447  1.0499  1.4836  1.4546
12764TIP3    H259708   0.266   5.444  12.550  0.2323 -1.6611  0.1443
12765TIP3   OH259709   1.103   6.270  13.666  0.5552  0.2152 -0.3433
12765TIP3    H159710   1.129   6.180  13.685  1.0265  0.5705  0.7313
12765TIP3    H259711   1.017   6.279  13.707  0.5175  0.2693 -0.4344
12766TIP3   OH259712   3.204   2.685  16.289 -0.0684 -0.3459  0.3283
12766TIP3    H159713   3.290   2.724  16.270 -0.0729  0.0984  1.2283
12766TIP3    H259714   3.207   2.600  16.244  0.6505 -0.1227 -0.0655
12767TIP3   OH259715   0.615   3.115  12.842 -0.1674  0.5635 -0.1401
12767TIP3    H159716   0.698   3.084  12.879 -1.3322 -0.8257  1.3296
12767TIP3    H259717   0.580   3.174  12.908 -0.3473  1.1886 -0.7856
12768TIP3   OH259718   0.839   2.258  15.616  0.1997  0.0542  0.5099
12768TIP3    H159719   0.883   2.330  15.662 -0.5277 -0.2363  1.6920
12768TIP3    H259720   0.907   2.193  15.602  1.0436  1.2648 -1.2390
12769TIP3   OH259721   0.004   5.886   4.175  0.0250 -0.1053  0.0673
12769TIP3    H159722  -0.009   5.792   4.193  0.4510  0.2494  2.4505
12769TIP3    H259723  -0.082   5.925   4.188  0.3037  0.1327  1.2654
12770TIP3   OH259724   3.890   3.226  13.241 -0.1294  0.3767  0.4769
12770TIP3    H159725   3.977   3.265  13.241 -0.8853  2.0900 -0.0309
12770TIP3    H259726   3.860   3.233  13.331 -0.2716  1.0073  0.3846
12771TIP3   OH259727   2.491   4.464  16.617  0.1170  0.1726  0.1582
12771TIP3    H159728   2.408   4.468  16.665  0.2944  1.2670  0.3843
12771TIP3    H259729   2.466   4.479  16.526  0.1642  1.4038  0.3394
12772TIP3   OH259730   5.372   1.853  16.596  0.5900 -0.2370  0.1580
12772TIP3    H159731   5.286   1.843  16.635  1.6628 -0.3858  2.6261
12772TIP3    H259732   5.396   1.766  16.565  0.4305 -0.4945  0.7586
12773TIP3   OH259733   2.130   2.101  14.313 -0.2128 -0.1789 -0.0720
12773TIP3    H159734   2.210   2.078  14.360 -0.4794 -2.5374 -0.6937
12773TIP3    H259735   2.150   2.183  14.269  1.7810 -0.6361 -0.0458
12774TIP3   OH259736   5.958   5.552  16.805  0.3231 -0.0684 -0.2326
12774TIP3    H159737   5.937   5.484  16.869  0.7243  0.3390  0.3391
12774TIP3    H259738   5.881   5.608  16.804  1.7364  2.0750  2.6918
12775TIP3   OH259739   0.418   5.992  13.336  0.3554 -0.1442  0.0160
12775TIP3    H159740   0.482   5.976  13.267 -0.5668  0.0485 -0.8946
12775TIP3    H259741   0.364   6.063  13.302 -0.3531 -0.3200  0.7670
12776TIP3   OH259742   3.199   2.188   5.359 -0.6126  0.5553  0.8784
12776TIP3    H159743   3.223   2.256   5.423  2.3808  0.8404 -0.4688
12776TIP3    H259744   3.177   2.237   5.280  1.2562  0.0026 -0.0053
12777TIP3   OH259745   6.552   2.926  16.047  0.4588  0.3397  0.9371
12777TIP3    H159746   6.536   3.008  16.001 -0.5589 -0.0717  0.5373
12777TIP3    H259747   6.586   2.953  16.132 -1.4125  1.2525  1.4285
12778TIP3   OH259748   3.654   3.938  11.390  0.3369 -0.6629 -0.0264
12778TIP3    H159749   3.675   3.901  11.476 -0.0182 -1.2511 -0.1913
12778TIP3    H259750   3.736   3.979  11.360  0.9045 -1.8697 -0.1278
12779TIP3   OH259751   5.076   2.469  11.559  0.5549  0.1433 -0.0282
12779TIP3    H159752   5.017   2.395  11.568 -0.2675  0.7329 -0.5182
12779TIP3    H259753   5.121   2.455  11.476  1.2159 -0.3792  0.4118
12780TIP3   OH259754   6.398   3.013   4.625 -0.0610 -0.0614 -0.2150
12780TIP3    H159755   6.356   3.086   4.670  1.6646  0.5906  0.4081
12780TIP3    H259756   6.488   3.043   4.611  1.3484 -2.8785  2.1243
12781TIP3   OH259757   2.914   2.319   2.973 -0.3203 -0.2571  0.3171
12781TIP3    H159758   2.824   2.352   2.966 -0.7353 -0.8800  2.3668
12781TIP3    H259759   2.956   2.349   2.893 -1.7587  1.9073  0.3163
12782TIP3   OH259760   6.758   6.386  13.841  0.5072 -0.2439  0.4675
12782TIP3    H159761   6.774   6.291  13.843  0.4281 -0.2362  1.7473
12782TIP3    H259762   6.839   6.423  13.807  1.0153 -0.6726  1.2021
12783TIP3   OH259763   6.485   1.255   3.239 -0.1276  0.0296 -0.0495
12783TIP3    H159764   6.474   1.322   3.306 -1.3269 -0.1612 -0.0492
12783TIP3    H259765   6.574   1.221   3.252  0.5740  1.7839 -0.2166
12784TIP3   OH259766   0.777   4.550  16.804  0.5002 -0.3137 -0.0148
12784TIP3    H159767   0.802   4.483  16.741 -0.3650 -0.5414 -0.1134
12784TIP3    H259768   0.734   4.618  16.752 -1.1549 -0.9827  0.4688
12785TIP3   OH259769   6.018   1.924   2.832  0.3590 -0.0423 -0.0073
12785TIP3    H159770   5.930   1.905   2.799  0.3642 -1.9779  0.9634
12785TIP3    H259771   6.044   2.005   2.790 -1.6446  0.1931 -0.8076
12786TIP3   OH259772   5.024   2.330  14.243  0.1353  0.3119  0.0750
12786TIP3    H159773   4.974   2.370  14.172  0.6383  0.0196 -0.4545
12786TIP3    H259774   4.962   2.270  14.285 -0.4881  1.2977  0.5930
12787TIP3   OH259775   6.076   2.675   3.611 -0.4472 -0.0659  0.2978
12787TIP3    H159776   6.097   2.648   3.522 -0.1295  0.6845  0.1350
12787TIP3    H259777   5.989   2.715   3.604 -1.6859 -2.5557  0.8484
12788TIP3   OH259778   3.553   0.891   2.409 -0.0989 -0.0732  0.1463
12788TIP3    H159779   3.614   0.818   2.396  0.2122  0.0835  0.6716
12788TIP3    H259780   3.610   0.967   2.421 -0.3648 -0.0651  1.4923
12789TIP3   OH259781   5.620   1.647  13.701  0.9995  1.0399 -0.3165
12789TIP3    H159782   5.549   1.615  13.645  1.1811 -0.0086  0.0441
12789TIP3    H259783   5.577   1.708  13.761  0.1733 -0.4833  0.6806
12790TIP3   OH259784   4.304   1.476   3.238  0.3404 -0.3164 -0.0768
12790TIP3    H159785   4.231   1.529   3.206  0.4011  0.1984  0.6348
12790TIP3    H259786   4.330   1.517   3.320  1.2586 -0.6606 -0.1869
12791TIP3   OH259787   5.594   1.576  15.273 -0.4705  0.0007  0.6222
12791TIP3    H159788   5.596   1.534  15.359 -2.0671 -0.0606  0.6336
12791TIP3    H259789   5.682   1.562  15.237 -0.0119 -0.5586  1.9586
12792TIP3   OH259790   2.186   4.349   4.235 -0.4459 -0.1979 -0.5555
12792TIP3    H159791   2.184   4.412   4.164 -0.7685  0.6938  0.2319
12792TIP3    H259792   2.097   4.316   4.242 -0.7768  0.8800  0.4506
12793TIP3   OH259793   3.715   4.041   1.549 -0.3468 -0.3147 -0.4478
12793TIP3    H159794   3.778   4.106   1.519 -1.0438  0.0881 -1.0389
12793TIP3    H259795   3.649   4.092   1.597 -1.4663 -0.4365 -1.8232
12794TIP3   OH259796   4.192   5.492  14.877  0.1725  0.0525 -0.0656
12794TIP3    H159797   4.158   5.578  14.851 -1.3563 -0.4293  0.3040
12794TIP3    H259798   4.276   5.511  14.919  0.5085  1.2364 -1.2558
12795TIP3   OH259799   3.512   3.745  10.975 -0.1928  0.3120  0.2049
12795TIP3    H159800   3.484   3.723  11.064 -0.6871  0.4096  0.0788
12795TIP3    H259801   3.430   3.754  10.926  0.0675  0.5348 -0.1938
12796TIP3   OH259802   6.474   5.593   3.829  0.0008 -0.4022 -0.2485
12796TIP3    H159803   6.385   5.563   3.807 -0.4312  1.6252 -1.4229
12796TIP3    H259804   6.517   5.606   3.745  0.6930  0.6721  0.2502
12797TIP3   OH259805   0.163   4.497   0.244 -0.8745 -0.5384  0.6589
12797TIP3    H159806   0.115   4.580   0.242  0.0142 -0.0187  0.8150
12797TIP3    H259807   0.249   4.519   0.280 -0.6513 -1.5369  0.7639
12798TIP3   OH259808   5.086   3.494  11.873 -0.2759 -0.1237 -0.0053
12798TIP3    H159809   5.166   3.502  11.822 -1.5774  0.0432 -2.0988
12798TIP3    H259810   5.099   3.416  11.926 -0.4088 -2.6556 -3.5356
12799TIP3   OH259811   0.080   2.818   0.596  0.2485  0.0633  0.1724
12799TIP3    H159812   0.049   2.746   0.652 -0.0597  0.8865  1.0671
12799TIP3    H259813   0.003   2.872   0.582  0.4972  0.2505 -0.4602
12800TIP3   OH259814   2.399   1.396  16.210 -0.2517  0.0957 -0.2440
12800TIP3    H159815   2.379   1.434  16.125 -1.1680  1.3512  0.5134
12800TIP3    H259816   2.440   1.312  16.190 -0.6885  0.2688 -1.9154
12801TIP3   OH259817   0.062   3.517  11.782  0.4842 -0.2656 -0.0665
12801TIP3    H159818  -0.005   3.582  11.758  1.0048  0.0372 -0.7354
12801TIP3    H259819   0.132   3.569  11.821  1.1340 -0.3646 -1.0956
12802TIP3   OH259820   5.384   5.111   4.100 -0.4538 -0.9022 -0.0010
12802TIP3    H159821   5.348   5.117   4.188 -0.1209 -0.3724  0.1012
12802TIP3    H259822   5.390   5.017   4.082 -2.1068 -1.0033 -0.1118
12803TIP3   OH259823   2.828   6.128  14.043  0.9332 -0.1747  0.3577
12803TIP3    H159824   2.785   6.044  14.032 -2.4189  1.4982 -0.0205
12803TIP3    H259825   2.835   6.140  14.137 -1.7947  0.6060  0.5050
12804TIP3   OH259826   2.556   0.391  13.765 -0.4430 -0.1044  0.0168
12804TIP3    H159827   2.543   0.486  13.770  0.0941 -0.0655  0.7865
12804TIP3    H259828   2.644   0.377  13.800  1.0235 -0.5159 -3.5331
12805TIP3   OH259829   3.379   2.913  16.253 -0.1095  0.1347 -0.0027
12805TIP3    H159830   3.370   2.972  16.179 -0.0034 -1.6320 -1.4533
12805TIP3    H259831   3.311   2.940  16.314 -0.3023  1.4958 -0.8038
12806TIP3   OH259832   4.792   3.294  11.308 -0.4079 -0.4668 -0.3310
12806TIP3    H159833   4.865   3.250  11.266  0.5928  2.0429 -1.3361
12806TIP3    H259834   4.829   3.377  11.339 -2.7142  0.6756 -0.5102
12807TIP3   OH259835   5.730   6.472  12.703 -0.2935 -0.0900 -0.3561
12807TIP3    H159836   5.759   6.557  12.668  0.3536  1.1017  2.9371
12807TIP3    H259837   5.650   6.492  12.751 -0.4060 -1.4386  0.0317
12808TIP3   OH259838   5.789   4.278  14.224 -0.2946  0.0065  0.3207
12808TIP3    H159839   5.804   4.372  14.210 -3.3982  0.5736  0.5345
12808TIP3    H259840   5.851   4.254  14.292 -2.7120  3.0074  3.7553
12809TIP3   OH259841   4.788   5.524   5.858 -0.0166 -0.0723 -0.5060
12809TIP3    H159842   4.877   5.540   5.826  1.7788  1.1703  4.6518
12809TIP3    H259843   4.754   5.611   5.880 -1.5564 -0.7626 -0.0356
12810TIP3   OH259844   0.167   1.127   3.475  0.5018  0.4726 -0.3436
12810TIP3    H159845   0.259   1.101   3.471  0.8395  1.6774 -0.5007
12810TIP3    H259846   0.144   1.147   3.385  0.6808  2.1757 -0.0279
12811TIP3   OH259847   3.738   4.730  15.256 -0.7273  0.4586 -0.1333
12811TIP3    H159848   3.792   4.809  15.266 -0.1362  0.0359  0.0080
12811TIP3    H259849   3.648   4.764  15.252 -0.3523  1.3115 -2.0813
12812TIP3   OH259850   6.313   0.443   5.911 -0.1571 -0.1642 -0.9605
12812TIP3    H159851   6.288   0.496   5.987  0.9435 -0.0251 -0.6770
12812TIP3    H259852   6.235   0.392   5.890 -0.9999  1.0269 -0.7779
12813TIP3   OH259853   0.123   1.796   3.657  1.2795  0.5680 -0.7874
12813TIP3    H159854   0.122   1.712   3.610 -1.9435  0.7157 -1.0617
12813TIP3    H259855   0.069   1.854   3.604  0.9461  1.9365  1.0007
12814TIP3   OH259856   4.061   0.898   3.896 -0.0906 -0.3271  0.5632
12814TIP3    H159857   3.983   0.929   3.941 -0.3651  0.5663 -0.4855
12814TIP3    H259858   4.107   0.844   3.960 -3.0614 -3.3235  0.2843
12815TIP3   OH259859   4.058   5.867   5.947  0.4295  0.2385  0.5158
12815TIP3    H159860   4.094   5.837   5.864  1.7634  2.6484  0.1734
12815TIP3    H259861   4.070   5.962   5.946 -1.5323  0.5625  2.5237
12816TIP3   OH259862   4.349   1.545   0.298  0.3038  0.3780 -0.3884
12816TIP3    H159863   4.411   1.598   0.247  0.6873  0.5814  0.2908
12816TIP3    H259864   4.267   1.552   0.249 -0.0254  2.7651  0.4205
12817TIP3   OH259865   5.113   2.986   2.325  0.6130 -0.0512  0.3311
12817TIP3    H159866   5.166   3.022   2.395  0.0191  1.6131 -0.0566
12817TIP3    H259867   5.176   2.958   2.259  1.1142 -0.3863  0.9491
12818TIP3   OH259868   5.955   2.640  16.398  0.6667  0.2441 -0.1429
12818TIP3    H159869   5.997   2.659  16.482  0.6747  1.6309 -0.4590
12818TIP3    H259870   5.902   2.717  16.380 -0.9743 -0.9162 -0.4080
12819TIP3   OH259871   4.947   4.600   1.670  0.0646  0.1047  0.6780
12819TIP3    H159872   5.037   4.625   1.650 -0.5345  0.8366 -1.1911
12819TIP3    H259873   4.928   4.528   1.610 -0.1156 -1.0202  2.0773
12820TIP3   OH259874   1.229   3.014   2.612 -0.0147  0.5295 -0.1562
12820TIP3    H159875   1.198   2.972   2.532 -0.1292 -0.1435  0.2419
12820TIP3    H259876   1.154   3.011   2.672  1.5325 -3.3387  1.6954
12821TIP3   OH259877   1.646   0.283   0.370 -0.1554  0.6049 -0.1640
12821TIP3    H159878   1.604   0.366   0.350 -0.5345  0.6326  0.7154
12821TIP3    H259879   1.573   0.223   0.389  0.1443  0.2885 -0.0002
12822TIP3   OH259880   1.018   2.693   4.857  0.4434  0.3989  0.0217
12822TIP3    H159881   0.959   2.702   4.932  0.0615 -1.5197 -0.0179
12822TIP3    H259882   1.021   2.598   4.840  1.9173  0.6571 -1.2721
12823TIP3   OH259883   5.033   6.048   0.828 -0.0142 -0.3550 -0.2983
12823TIP3    H159884   5.030   6.010   0.740 -2.1424 -0.9415  0.0019
12823TIP3    H259885   4.949   6.093   0.837  0.5009  0.3307  1.1652
12824TIP3   OH259886   5.511   2.318   3.815 -0.1516 -0.7129  0.1379
12824TIP3    H159887   5.442   2.253   3.802  0.6156 -1.3766 -0.6245
12824TIP3    H259888   5.479   2.396   3.770 -0.9060 -0.6616  0.7424
12825TIP3   OH259889   3.284   4.204   5.510 -0.2564 -0.0321  0.2534
12825TIP3    H159890   3.225   4.156   5.453  0.0038 -0.0872  0.0323
12825TIP3    H259891   3.282   4.156   5.593 -1.4910  0.6744  0.6465
12826TIP3   OH259892   3.319   0.428  11.462  0.0164 -0.0447  0.5233
12826TIP3    H159893   3.376   0.479  11.404 -1.7489  1.6747  0.2231
12826TIP3    H259894   3.329   0.338  11.432  1.3874  0.4341 -0.5202
12827TIP3   OH259895   4.819   0.005  16.238  0.7377  0.0508  0.1451
12827TIP3    H159896   4.841   0.097  16.252  2.5450 -0.6137  1.9913
12827TIP3    H259897   4.882  -0.025  16.173 -1.3252  0.6468 -2.2009
12828TIP3   OH259898   3.100   1.450  12.757  0.1557 -0.0180 -0.3653
12828TIP3    H159899   3.132   1.469  12.845 -1.2134 -0.4537  0.2407
12828TIP3    H259900   3.136   1.363  12.736 -0.1109 -0.2306  0.0585
12829TIP3   OH259901   2.242   2.135   3.903 -0.1865 -0.2058  0.0945
12829TIP3    H159902   2.299   2.135   3.826 -1.2854  0.3548 -0.7312
12829TIP3    H259903   2.219   2.227   3.916 -1.1759 -0.4627  0.2113
12830TIP3   OH259904   2.013   6.667  16.495 -0.5470  0.1687 -0.1175
12830TIP3    H159905   2.047   6.738  16.549 -1.9915 -0.2558  1.3801
12830TIP3    H259906   2.089   6.612  16.477  0.6512  2.1606 -1.4968
12831TIP3   OH259907   2.359   5.307  13.815  0.1027 -0.3049  0.1075
12831TIP3    H159908   2.448   5.291  13.846 -0.4273  0.5098  2.1410
12831TIP3    H259909   2.304   5.297  13.893 -1.4712  0.2219 -0.9040
12832TIP3   OH259910   6.140   1.311   2.994 -0.3130 -0.1339 -0.0159
12832TIP3    H159911   6.207   1.370   2.960  0.3887 -0.4957  0.7390
12832TIP3    H259912   6.057   1.357   2.976  0.2127  0.9683  0.3168
12833TIP3   OH259913   5.129   2.343   3.203  0.1537  0.1464 -0.3408
12833TIP3    H159914   5.036   2.347   3.179  0.0768  1.3773  0.1026
12833TIP3    H259915   5.140   2.258   3.244 -0.8519  0.1057 -0.1489
12834TIP3   OH259916   0.292   4.360   0.722  0.4135 -0.2915 -0.5042
12834TIP3    H159917   0.228   4.390   0.786  0.4595 -2.0533  0.4080
12834TIP3    H259918   0.334   4.440   0.690 -0.2489  0.6749  1.0032
12835TIP3   OH259919   4.018   1.359   0.668  0.7043 -0.2873 -0.6759
12835TIP3    H159920   4.084   1.368   0.736  0.2254 -1.1668 -0.0790
12835TIP3    H259921   3.941   1.405   0.703  0.3814 -0.9423 -0.5048
12836TIP3   OH259922   0.821   1.610   0.260  0.1266  0.3186  0.2740
12836TIP3    H159923   0.878   1.637   0.332  0.9189 -0.0327 -0.2098
12836TIP3    H259924   0.877   1.616   0.182 -0.0791 -1.3278 -0.0275
12837TIP3   OH259925   5.323   2.577   6.426 -0.4490 -0.5724  0.3660
12837TIP3    H159926   5.366   2.545   6.346 -1.4052 -0.0221 -0.3734
12837TIP3    H259927   5.385   2.640   6.462  0.1000 -1.0065  0.1961
12838TIP3   OH259928   2.713   5.880   1.125 -0.3007  0.8502  0.5405
12838TIP3    H159929   2.657   5.898   1.200  0.0995 -1.3117  1.3761
12838TIP3    H259930   2.801   5.877   1.161 -0.1516 -0.6764  0.0604
12839TIP3   OH259931   6.608   2.681   3.512  0.9384 -0.8401 -0.6528
12839TIP3    H159932   6.532   2.694   3.454 -0.0210  4.8943  1.5192
12839TIP3    H259933   6.684   2.697   3.456  0.1722  0.5962 -1.3254
12840TIP3   OH259934   3.560   4.272   4.437  0.3032 -0.5939  0.4824
12840TIP3    H159935   3.496   4.215   4.396  0.8639 -0.5421 -0.4638
12840TIP3    H259936   3.533   4.360   4.413  0.6055 -0.5600  0.2696
12841TIP3   OH259937   2.672   4.129   1.925 -0.2278 -0.3752 -0.3657
12841TIP3    H159938   2.585   4.128   1.965 -0.0016  0.8207  0.1861
12841TIP3    H259939   2.681   4.217   1.889  0.0938 -1.0256 -1.9196
12842TIP3   OH259940   2.212   1.302   5.115 -0.8165  0.6249  0.0863
12842TIP3    H159941   2.250   1.330   5.198 -0.7216 -1.0310  0.6205
12842TIP3    H259942   2.120   1.328   5.121 -0.9431 -0.0119  0.9585
12843TIP3   OH259943   2.734   0.844   0.994  0.3894 -0.1233 -0.2117
12843TIP3    H159944   2.678   0.780   1.038 -1.4973 -0.2022 -2.5979
12843TIP3    H259945   2.770   0.796   0.919  2.8641  0.2472  0.6712
12844TIP3   OH259946   6.217   0.927  14.702 -0.0198  0.6649  0.0526
12844TIP3    H159947   6.279   0.859  14.730  0.2503  1.3811  1.2356
12844TIP3    H259948   6.215   0.989  14.775 -0.4378  1.8137 -0.9125
12845TIP3   OH259949   3.780   0.145   3.669  0.2084 -0.0608  0.0766
12845TIP3    H159950   3.780   0.151   3.764 -1.6810 -0.0299  0.0958
12845TIP3    H259951   3.717   0.211   3.640 -1.0335 -1.6736 -1.0517
12846TIP3   OH259952   2.160   4.697  15.840 -0.3668 -0.7549  0.0463
12846TIP3    H159953   2.176   4.750  15.762  0.1041 -0.8966  0.0492
12846TIP3    H259954   2.238   4.643  15.849  0.6344  0.9747  2.0127
12847TIP3   OH259955   2.355   2.068   2.742  0.1478  0.2363 -0.7095
12847TIP3    H159956   2.272   2.113   2.723 -0.0768  0.1701  0.0891
12847TIP3    H259957   2.422   2.129   2.712 -0.1767  0.5315 -0.8485
12848TIP3   OH259958   6.744   5.436  16.598 -0.1524  0.8358  0.6620
12848TIP3    H159959   6.733   5.398  16.511  1.8645 -0.1173  0.7780
12848TIP3    H259960   6.667   5.408  16.647 -0.4329 -0.1229 -0.3122
12849TIP3   OH259961   1.957   1.205  14.217 -0.0470 -0.1495  0.2921
12849TIP3    H159962   1.977   1.112  14.227  0.3924 -0.0292  0.5288
12849TIP3    H259963   2.001   1.230  14.136 -0.6942 -0.2998 -0.1024
12850TIP3   OH259964   6.126   5.528  15.607  0.2219  0.2543 -0.5377
12850TIP3    H159965   6.096   5.441  15.582  2.1863 -0.3566 -0.8554
12850TIP3    H259966   6.088   5.544  15.693 -0.7684 -0.5947 -0.8153
12851TIP3   OH259967   4.892   0.331   6.186 -0.3295  0.3443 -0.1073
12851TIP3    H159968   4.944   0.325   6.266  0.1410  3.2456 -0.1457
12851TIP3    H259969   4.810   0.371   6.214 -0.9515 -0.4611 -0.7483
12852TIP3   OH259970   0.269   0.229   3.592  0.1809  0.0711  0.0786
12852TIP3    H159971   0.217   0.192   3.664  0.2495  1.1781  0.7244
12852TIP3    H259972   0.218   0.211   3.513 -0.8238  0.4964  0.6245
12853TIP3   OH259973   6.518   5.982   5.499 -0.0087 -0.1248 -0.0949
12853TIP3    H159974   6.578   5.916   5.464  0.4222  0.1319  0.1555
12853TIP3    H259975   6.472   5.937   5.570  0.4594 -0.0867  0.2351
12854TIP3   OH259976   3.451   5.380  15.798 -0.6212 -0.0660  0.5092
12854TIP3    H159977   3.358   5.380  15.778 -0.7118 -0.9192  0.9436
12854TIP3    H259978   3.493   5.365  15.713 -0.9345 -1.3869  0.5837
12855TIP3   OH259979   3.616   3.394   5.000  0.4019  0.3676  0.0178
12855TIP3    H159980   3.683   3.326   4.988  0.2094  0.0216  0.8844
12855TIP3    H259981   3.602   3.429   4.912  1.9930  0.6982 -0.1201
12856TIP3   OH259982   0.944   1.276  16.394  0.2617  0.3693  0.9491
12856TIP3    H159983   0.889   1.274  16.315 -0.4201 -0.6214  1.4379
12856TIP3    H259984   0.926   1.361  16.434  0.2231  0.6662  0.3107
12857TIP3   OH259985   1.698   4.760   0.117  0.2683  0.4225  0.2713
12857TIP3    H159986   1.744   4.749   0.200 -1.4651 -0.6746  1.1360
12857TIP3    H259987   1.681   4.854   0.111  2.2516  0.7929  0.1035
12858TIP3   OH259988   4.776   1.778  14.237  0.1804 -0.0886 -0.1307
12858TIP3    H159989   4.773   1.721  14.160 -0.4279 -0.7451  0.3679
12858TIP3    H259990   4.774   1.867  14.202  4.2475 -0.2464 -1.1159
12859TIP3   OH259991   0.924   3.548   5.286  0.0568  0.2190  0.2425
12859TIP3    H159992   0.911   3.635   5.324 -0.3227 -0.2863  1.2912
12859TIP3    H259993   0.937   3.490   5.361  3.1944 -0.1871 -0.5612
12860TIP3   OH259994   1.749   2.586   6.590 -0.8082 -0.1190  0.2439
12860TIP3    H159995   1.844   2.595   6.579 -0.8054  1.6295  1.4158
12860TIP3    H259996   1.738   2.557   6.680 -1.4574  2.2719  0.9807
12861TIP3   OH259997   0.246   1.695   0.890  0.4577  0.1236 -0.0768
12861TIP3    H159998   0.256   1.621   0.831 -0.7188  0.3610 -0.5815
12861TIP3    H259999   0.158   1.686   0.926 -1.1898  3.2921 -3.0028
12862TIP3   OH260000   1.392   0.582  17.175  0.4255 -1.1020  0.3793
12862TIP3    H160001   1.387   0.667  17.218 -0.7429 -1.7504  1.5595
12862TIP3    H260002   1.312   0.537  17.201 -0.2842 -1.5517 -2.4619
12863TIP3   OH260003   6.763   0.580  16.181  0.1725  0.2582  0.1287
12863TIP3    H160004   6.775   0.525  16.103 -0.0879  0.4262 -0.0288
12863TIP3    H260005   6.852   0.603  16.208  0.3854 -2.0763  1.5152
12864TIP3   OH260006   6.084   6.054  13.218 -0.2282  0.2409 -0.5033
12864TIP3    H160007   6.022   6.014  13.158 -0.3084 -0.4582  0.0383
12864TIP3    H260008   6.032   6.077  13.295  0.2047 -0.5065  0.0245
12865TIP3   OH260009   4.726   5.373  11.031  0.3285  0.1904  0.4350
12865TIP3    H160010   4.676   5.392  11.110 -1.1647 -0.2972 -0.3825
12865TIP3    H260011   4.699   5.441  10.968  1.7862  0.8116  0.4463
12866TIP3   OH260012   4.257   3.389   5.246 -0.0137  0.2104  0.3558
12866TIP3    H160013   4.300   3.370   5.162 -0.5299  0.9736 -0.0912
12866TIP3    H260014   4.171   3.348   5.239 -0.1799  0.5512  0.3812
12867TIP3   OH260015   1.130   2.695   2.712 -0.1579  0.0012 -0.1811
12867TIP3    H160016   1.080   2.766   2.751  1.4410  1.1949 -0.2766
12867TIP3    H260017   1.086   2.615   2.744 -2.9906  0.9798 -1.4176
12868TIP3   OH260018   0.273   6.381  14.236 -0.0526  0.3648  0.0170
12868TIP3    H160019   0.335   6.454  14.235 -0.1470  0.4414 -0.2324
12868TIP3    H260020   0.294   6.334  14.317  1.0759 -0.2508 -0.6169
12869TIP3   OH260021   2.868   6.087   0.947 -0.1881  0.4490 -0.4267
12869TIP3    H160022   2.963   6.088   0.942 -0.1784 -0.7943 -0.5410
12869TIP3    H260023   2.848   6.127   1.031  0.4361  0.7255 -0.4077
12870TIP3   OH260024   6.647   1.032   4.282 -0.3745 -0.3431  0.4108
12870TIP3    H160025   6.590   1.104   4.255 -0.7856 -1.3811 -1.6011
12870TIP3    H260026   6.735   1.060   4.258 -0.1837  0.6401  2.1797
12871TIP3   OH260027   0.520   6.745   1.074  0.7794 -1.0326 -0.1875
12871TIP3    H160028   0.488   6.692   1.147  2.1672 -1.4859  0.0902
12871TIP3    H260029   0.497   6.835   1.099 -0.8524 -1.4076 -0.2906
12872TIP3   OH260030   4.272   5.068   3.168 -0.1904 -0.7992  0.7977
12872TIP3    H160031   4.224   5.147   3.193 -0.3837 -1.2757  1.9742
12872TIP3    H260032   4.265   5.010   3.244  2.3495 -0.8416  1.0647
12873TIP3   OH260033   1.098   4.267   1.885 -0.0288 -0.2536 -0.6864
12873TIP3    H160034   1.111   4.172   1.895  1.3709  0.1096  1.2970
12873TIP3    H260035   1.010   4.282   1.920 -0.8462 -1.0132 -2.3807
12874TIP3   OH260036   5.024   0.531  17.195 -0.4256 -0.3625 -0.0909
12874TIP3    H160037   5.055   0.519  17.285 -0.9725 -1.2171 -0.0035
12874TIP3    H260038   4.987   0.446  17.172 -0.4339 -0.0924 -1.0675
12875TIP3   OH260039   4.633   1.449   5.143  0.1548  0.1098  0.0761
12875TIP3    H160040   4.544   1.474   5.116  0.2457  0.4821  0.1121
12875TIP3    H260041   4.648   1.498   5.224  0.2929 -0.1644  0.2161
12876TIP3   OH260042   3.283   4.814   0.234 -0.4158 -0.2968 -0.1673
12876TIP3    H160043   3.208   4.802   0.175 -0.3717 -0.4093 -0.2013
12876TIP3    H260044   3.249   4.793   0.321 -0.5454  0.1110 -0.1208
12877TIP3   OH260045   0.566   0.917   1.606 -0.1710 -0.3803 -0.0711
12877TIP3    H160046   0.633   0.897   1.672  0.6186  0.3684 -0.6318
12877TIP3    H260047   0.522   0.995   1.641 -0.8297 -0.9387  0.3517
12878TIP3   OH260048   2.848   2.348   0.898  0.1189  0.0408  0.1906
12878TIP3    H160049   2.926   2.335   0.845  1.2691  0.6598  1.6940
12878TIP3    H260050   2.870   2.309   0.983 -0.4430  2.0257  1.2747
12879TIP3   OH260051   3.323   3.363   0.610 -0.0624  0.2540 -0.1261
12879TIP3    H160052   3.357   3.298   0.672  0.3930 -1.3047 -1.9610
12879TIP3    H260053   3.238   3.329   0.584 -0.2532  0.8990 -0.3510
12880TIP3   OH260054   1.035   6.232   0.143  0.0212 -0.6292  0.2601
12880TIP3    H160055   1.019   6.173   0.069  0.8898 -1.7099  0.9112
12880TIP3    H260056   1.127   6.256   0.135  0.0734 -0.6106  0.8757
12881TIP3   OH260057   3.484   5.869  10.508 -0.0632 -0.1164  0.3710
12881TIP3    H160058   3.437   5.808  10.565  1.3207 -0.7973  0.8095
12881TIP3    H260059   3.416   5.923  10.468 -1.1753 -0.8357  1.2876
12882TIP3   OH260060   4.750   1.996   4.938  0.0028  0.6131 -0.1451
12882TIP3    H160061   4.680   2.054   4.907 -2.6281 -1.4630  1.6522
12882TIP3    H260062   4.711   1.909   4.936  2.2973 -0.5064  1.6799
12883TIP3   OH260063   6.316   5.982  15.660  0.3503 -0.1927  0.2520
12883TIP3    H160064   6.341   5.898  15.620 -0.8617  0.1608 -1.2781
12883TIP3    H260065   6.254   5.957  15.729 -0.0964 -0.5629 -0.2727
12884TIP3   OH260066   0.367   0.361   4.405 -0.2928  0.1027  0.0260
12884TIP3    H160067   0.341   0.359   4.312  0.4457 -1.2066 -0.1592
12884TIP3    H260068   0.435   0.294   4.412  0.0336  0.5745  1.4111
12885TIP3   OH260069   2.049   2.240  15.365 -0.3859  0.5558 -0.2716
12885TIP3    H160070   2.130   2.246  15.415 -0.6998 -0.8213  0.4281
12885TIP3    H260071   2.077   2.215  15.277  0.2042  3.4121 -0.9609
12886TIP3   OH260072   5.374   6.317  16.364  0.4966 -0.4391  0.5790
12886TIP3    H160073   5.319   6.356  16.295 -0.3164 -0.5079  1.1815
12886TIP3    H260074   5.409   6.238  16.324 -0.4898 -0.8170  0.4516
12887TIP3   OH260075   0.787   1.895   5.654 -0.2813 -0.0447 -0.2078
12887TIP3    H160076   0.849   1.945   5.600  0.3009 -0.2927  0.2220
12887TIP3    H260077   0.702   1.914   5.616  0.2747 -1.6158 -2.3619
12888TIP3   OH260078   3.950   6.214   4.394  0.3123  0.2775  0.0376
12888TIP3    H160079   4.006   6.254   4.327  0.0688 -0.1443 -0.4233
12888TIP3    H260080   4.011   6.174   4.455  0.5556  1.1466  0.3826
12889TIP3   OH260081   6.719   5.266  12.368  0.0818 -0.1771 -0.3069
12889TIP3    H160082   6.669   5.312  12.436 -1.4023  0.0383 -1.5271
12889TIP3    H260083   6.654   5.215  12.320  1.1216 -0.3303 -1.5876
12890TIP3   OH260084   4.879   1.304   5.078 -0.2361 -0.5053  0.0309
12890TIP3    H160085   4.907   1.240   5.143 -0.5735 -1.7452 -1.0241
12890TIP3    H260086   4.790   1.329   5.105  0.1003 -0.0631  0.7457
12891TIP3   OH260087   3.125   4.474   2.972 -0.3358 -0.2228  0.4585
12891TIP3    H160088   3.121   4.518   3.056  1.4316  0.2471  0.3114
12891TIP3    H260089   3.113   4.543   2.907  0.2955 -0.2615  0.2893
12892TIP3   OH260090   6.470   3.745  16.171 -0.1020 -0.4027  0.4243
12892TIP3    H160091   6.412   3.789  16.233 -2.7726 -0.5146 -1.9383
12892TIP3    H260092   6.458   3.793  16.089  3.1479 -0.4546 -0.1647
12893TIP3   OH260093   4.693   0.741  11.666  0.1718  0.2032  0.0126
12893TIP3    H160094   4.695   0.760  11.572  0.6161 -0.3929 -0.0982
12893TIP3    H260095   4.764   0.679  11.680  0.0410  0.2066  0.7311
12894TIP3   OH260096   2.103   3.443   3.766 -0.5835  0.5262 -0.5513
12894TIP3    H160097   2.008   3.437   3.754 -0.7619  0.9892  0.5727
12894TIP3    H260098   2.140   3.405   3.686 -1.6940 -1.5434 -0.1016
12895TIP3   OH260099   2.897   3.753  13.305  0.0070  0.4270  0.0396
12895TIP3    H160100   2.930   3.839  13.330  0.1234  0.2293  0.5611
12895TIP3    H260101   2.803   3.767  13.289  0.5102  1.2290 -2.5120
12896TIP3   OH260102   6.411   6.738  14.304  0.4755 -0.2137  0.3322
12896TIP3    H160103   6.454   6.678  14.365  0.5385 -0.6166 -0.1095
12896TIP3    H260104   6.472   6.746  14.231 -0.0752 -0.5614 -0.1655
12897TIP3   OH260105   1.719   2.691   3.469 -0.2336  0.1341 -0.0909
12897TIP3    H160106   1.760   2.658   3.390 -1.2877  1.4288 -1.1972
12897TIP3    H260107   1.700   2.613   3.521 -0.0191 -0.7626 -1.3571
12898TIP3   OH260108   3.790   1.494  13.682  0.2754 -0.2100  0.4419
12898TIP3    H160109   3.792   1.426  13.615  1.7572  0.8896 -0.6394
12898TIP3    H260110   3.704   1.536  13.670  0.1667 -0.5998 -0.1723
12899TIP3   OH260111   1.461   5.301   3.437  0.3879 -0.3175 -0.2215
12899TIP3    H160112   1.378   5.258   3.415  0.9711 -1.0801 -0.9783
12899TIP3    H260113   1.436   5.379   3.487 -0.8026 -0.2872 -0.8624
12900TIP3   OH260114   1.683   2.978  12.072  0.3054  0.8005  0.4975
12900TIP3    H160115   1.599   2.952  12.033  0.6539 -1.7046  1.3370
12900TIP3    H260116   1.749   2.938  12.016  0.8471 -0.7055  2.1668
12901TIP3   OH260117   3.483   3.992   2.208  0.0125 -0.1665 -0.1108
12901TIP3    H160118   3.526   4.057   2.264  1.9936 -1.0764 -0.5521
12901TIP3    H260119   3.528   3.909   2.228  0.9985 -0.4609 -3.2610
12902TIP3   OH260120   1.070   0.918  17.176  0.0282 -0.8153 -0.2404
12902TIP3    H160121   1.048   0.860  17.104 -0.0624  0.8682 -1.6014
12902TIP3    H260122   1.150   0.963  17.148  1.1330 -1.6107  1.5738
12903TIP3   OH260123   2.071   2.878   2.576 -0.1959  1.2105 -0.3317
12903TIP3    H160124   1.995   2.889   2.633  0.0251  3.2001 -0.3892
12903TIP3    H260125   2.039   2.822   2.505 -1.5171  1.7221 -0.1599
12904TIP3   OH260126   2.239   0.426   3.930 -0.1386 -0.0778 -0.8096
12904TIP3    H160127   2.277   0.506   3.967 -0.7976  1.4513 -3.3417
12904TIP3    H260128   2.294   0.405   3.855 -1.0420 -1.0082 -1.2351
12905TIP3   OH260129   3.456   3.927   6.106 -0.0289 -0.1519 -0.6707
12905TIP3    H160130   3.460   4.007   6.158  1.7855 -1.2250  0.9515
12905TIP3    H260131   3.376   3.883   6.135  0.3338 -0.1504  0.3929
12906TIP3   OH260132   4.705   5.343   1.889 -0.1879  0.1753 -0.0892
12906TIP3    H160133   4.797   5.356   1.912 -0.4668 -0.7336  1.6346
12906TIP3    H260134   4.657   5.410   1.938 -0.5039  0.2888 -0.5452
12907TIP3   OH260135   0.569   1.599  10.947 -0.0908  0.4449 -0.6995
12907TIP3    H160136   0.570   1.597  11.043 -0.2950  1.0226 -0.6814
12907TIP3    H260137   0.660   1.587  10.921  0.1226  1.4576 -0.4081
12908TIP3   OH260138   0.129   5.399  14.692 -0.3829  0.2780  0.2024
12908TIP3    H160139   0.115   5.421  14.600  1.4689  0.5093 -0.0446
12908TIP3    H260140   0.056   5.342  14.715 -1.5898  1.2935 -1.0318
12909TIP3   OH260141   6.291   0.332   0.239  0.0208  0.0565 -0.4790
12909TIP3    H160142   6.334   0.273   0.300  4.2650 -0.6537 -3.8697
12909TIP3    H260143   6.236   0.276   0.185 -0.5262  0.0937  0.0331
12910TIP3   OH260144   0.666   2.783  13.389 -0.2273  0.6247 -0.1045
12910TIP3    H160145   0.648   2.739  13.472  0.6049 -1.1011 -0.8200
12910TIP3    H260146   0.751   2.825  13.402  0.0383  0.1118 -0.1781
12911TIP3   OH260147   0.269   6.447   4.519  0.0554 -0.3061  0.4545
12911TIP3    H160148   0.287   6.354   4.504 -2.3371 -1.1612  2.5441
12911TIP3    H260149   0.174   6.451   4.534  0.2485  2.3516  1.2857
12912TIP3   OH260150   1.898   1.567  13.377  0.2953  0.7960 -0.4358
12912TIP3    H160151   1.900   1.533  13.288  1.7345  0.5600 -0.3260
12912TIP3    H260152   1.864   1.657  13.367 -1.6569  0.0260 -0.9415
12913TIP3   OH260153   6.092   5.135   0.400 -0.0843  0.9801 -0.1152
12913TIP3    H160154   6.187   5.139   0.387  0.3439  0.3200  2.3670
12913TIP3    H260155   6.061   5.075   0.333  1.4890  0.0629 -0.0578
12914TIP3   OH260156   2.606   1.201  14.206  0.0563  0.3666  0.1463
12914TIP3    H160157   2.518   1.229  14.181  0.0999 -0.0632 -0.4980
12914TIP3    H260158   2.599   1.107  14.220  0.1538  0.5119  1.2525
12915TIP3   OH260159   0.115   1.480  12.599 -0.0660  0.0301  0.2391
12915TIP3    H160160   0.179   1.545  12.627  0.0438  0.2970 -0.6266
12915TIP3    H260161   0.096   1.429  12.678  2.5494 -1.1887  0.1157
12916TIP3   OH260162   0.495   3.863   1.669  0.3859  0.2479  0.0730
12916TIP3    H160163   0.479   3.860   1.575  0.4977  1.6740 -0.0106
12916TIP3    H260164   0.579   3.819   1.681  0.5492  0.3823 -0.5490
12917TIP3   OH260165   2.944   3.942  11.760  0.3523 -0.1175 -0.5572
12917TIP3    H160166   2.929   3.876  11.828 -0.6438 -0.4832 -1.1113
12917TIP3    H260167   2.915   4.024  11.800  1.9770  0.0762  0.2819
12918TIP3   OH260168   1.421   3.827   2.237 -1.1113  0.0133 -0.0462
12918TIP3    H160169   1.507   3.823   2.278 -0.3835 -0.5693 -1.6014
12918TIP3    H260170   1.372   3.889   2.291 -0.5824 -1.6036  2.4015
12919TIP3   OH260171   0.012   6.342  12.368  0.0042 -0.2210  0.1323
12919TIP3    H160172   0.093   6.356  12.417  0.3846 -1.1302 -0.2292
12919TIP3    H260173  -0.029   6.429  12.363  0.5959  0.1063  0.9415
12920TIP3   OH260174   6.538   5.822  11.364  0.0428 -0.0853 -0.1548
12920TIP3    H160175   6.566   5.768  11.438 -0.0066  0.1881  0.0662
12920TIP3    H260176   6.606   5.810  11.298  0.5649  0.3840  0.2854
12921TIP3   OH260177   5.945   1.531   1.813  0.6775  0.1790 -0.3042
12921TIP3    H160178   5.850   1.522   1.817  0.7437 -1.1981 -1.2811
12921TIP3    H260179   5.966   1.514   1.721  1.7820  1.4948 -0.3167
12922TIP3   OH260180   3.863   3.858  13.107  0.0639  0.9167  0.1987
12922TIP3    H160181   3.854   3.764  13.118 -0.2049  1.1127  1.6879
12922TIP3    H260182   3.874   3.870  13.012  2.6287 -0.7981  0.2529
12923TIP3   OH260183   0.032   5.127   0.594  0.0302 -0.0022 -1.0442
12923TIP3    H160184  -0.062   5.112   0.587  0.0237  0.1761 -1.3426
12923TIP3    H260185   0.062   5.138   0.504  0.2175  0.6534 -0.9024
12924TIP3   OH260186   4.545   1.416   1.433  0.3899  0.5029  0.4347
12924TIP3    H160187   4.537   1.337   1.381 -1.3585  1.5314 -0.9356
12924TIP3    H260188   4.610   1.469   1.387  0.6986  0.3539  0.6992
12925TIP3   OH260189   3.673   2.628   2.113 -0.3848 -0.4366  0.1850
12925TIP3    H160190   3.725   2.708   2.119  1.0900 -1.4161  0.7639
12925TIP3    H260191   3.629   2.634   2.028 -0.3612  1.0279  0.2716
12926TIP3   OH260192   4.098   3.282   1.601  0.4848 -0.0090 -0.5026
12926TIP3    H160193   4.192   3.264   1.592  0.7660  1.2783 -0.2544
12926TIP3    H260194   4.074   3.241   1.685  0.5464 -1.3691 -1.1295
12927TIP3   OH260195   5.568   2.310  12.616 -0.7011  0.3737 -0.1435
12927TIP3    H160196   5.537   2.231  12.661 -1.6958  0.9111  0.1281
12927TIP3    H260197   5.663   2.303  12.619 -0.7831 -0.9393 -0.3288
12928TIP3   OH260198   2.677   2.291  12.203 -0.2720  0.1109 -0.8068
12928TIP3    H160199   2.691   2.196  12.202  0.7296  0.2336  0.4197
12928TIP3    H260200   2.748   2.326  12.149 -0.0907  0.2154 -0.5058
12929TIP3   OH260201   2.764   0.170  16.104 -0.0350  0.1167 -0.6750
12929TIP3    H160202   2.829   0.239  16.089 -0.3330  0.5414 -0.0684
12929TIP3    H260203   2.680   0.212  16.082  0.1132 -1.1972 -3.9154
12930TIP3   OH260204   3.146   1.060   5.952 -0.4148 -0.0366  0.3678
12930TIP3    H160205   3.149   1.125   5.881 -0.4017  0.6417  0.9769
12930TIP3    H260206   3.101   1.106   6.024  2.2354  0.3539  1.8576
12931TIP3   OH260207   0.032   3.039  10.915 -0.1928  0.3771  0.0963
12931TIP3    H160208   0.104   2.976  10.905 -0.0134  0.6612 -0.4177
12931TIP3    H260209  -0.046   2.991  10.890  0.0400  0.5827 -1.0584
12932TIP3   OH260210   1.315   5.646   5.863 -0.2368 -0.2476 -0.3066
12932TIP3    H160211   1.348   5.633   5.951 -0.9297  2.5340  0.4239
12932TIP3    H260212   1.223   5.668   5.874  0.0465  1.7771 -1.5447
12933TIP3   OH260213   5.886   5.321  16.035  0.1552  0.1181  0.1174
12933TIP3    H160214   5.860   5.346  16.123 -0.6357  0.1141 -0.1131
12933TIP3    H260215   5.930   5.236  16.046 -2.3882 -1.2524  0.2073
12934TIP3   OH260216   0.035   4.865  15.088  0.4582  0.2863  0.0923
12934TIP3    H160217   0.059   4.953  15.059  0.1485  0.2814 -0.1826
12934TIP3    H260218  -0.054   4.875  15.122  1.1985  0.5045  2.0278
12935TIP3   OH260219   2.095   5.225   3.842  0.7377  0.3681 -0.7342
12935TIP3    H160220   2.105   5.291   3.911  0.1272 -0.6898  0.3933
12935TIP3    H260221   2.065   5.147   3.888  0.1254 -0.3056 -2.2388
12936TIP3   OH260222   2.802   4.526  11.324  0.1997  0.2105  0.0258
12936TIP3    H160223   2.896   4.521  11.310  0.0226 -0.5966 -0.9494
12936TIP3    H260224   2.785   4.468  11.398  0.5085  0.6385  0.4353
12937TIP3   OH260225   3.773   1.106   4.270 -0.0426 -0.3143 -0.0501
12937TIP3    H160226   3.740   1.190   4.238  2.4982  0.1256 -1.6382
12937TIP3    H260227   3.831   1.129   4.343  0.5086 -0.6973 -0.3647
12938TIP3   OH260228   0.927   5.696  13.264 -0.0014 -0.2310 -0.3857
12938TIP3    H160229   0.983   5.696  13.186  1.0730 -3.6135  0.3151
12938TIP3    H260230   0.985   5.671  13.335 -1.7104 -0.5108  0.9343
12939TIP3   OH260231   2.070   4.397   6.222 -0.9633  0.0086 -0.6722
12939TIP3    H160232   2.016   4.476   6.218  0.6353  1.0911 -1.3943
12939TIP3    H260233   2.062   4.367   6.312 -1.9983  0.6963 -0.5192
12940TIP3   OH260234   0.522   2.805   2.118 -0.3649  0.0264 -0.7705
12940TIP3    H160235   0.602   2.755   2.100 -1.3684 -0.5572 -3.7928
12940TIP3    H260236   0.451   2.741   2.110 -1.3740  1.1330 -0.8158
12941TIP3   OH260237   1.768   2.591  17.183 -0.9068  0.7373 -0.1299
12941TIP3    H160238   1.733   2.678  17.205  1.2944  1.3362  1.1137
12941TIP3    H260239   1.760   2.541  17.265  2.1296  1.2378  0.5255
12942TIP3   OH260240   3.186   5.587   0.289  0.1916 -0.0626 -0.4628
12942TIP3    H160241   3.258   5.649   0.278  0.5512 -0.2554  0.7161
12942TIP3    H260242   3.122   5.612   0.223  0.2839  1.6155  0.0761
12943TIP3   OH260243   6.481   2.224  14.299 -0.0006  0.0291 -0.2121
12943TIP3    H160244   6.399   2.193  14.336  1.1762  0.5000  2.9232
12943TIP3    H260245   6.459   2.307  14.257 -1.8601 -1.7481 -2.9179
12944TIP3   OH260246   1.642   3.703  14.908 -0.6976 -0.5940  0.2087
12944TIP3    H160247   1.704   3.728  14.977 -0.5641 -2.4769  0.8267
12944TIP3    H260248   1.588   3.780  14.894  0.5672  0.4521  1.0241
12945TIP3   OH260249   2.934   3.364  12.457  0.2697  0.6592 -1.0541
12945TIP3    H160250   2.877   3.349  12.382  0.6426  1.2769 -1.4588
12945TIP3    H260251   3.023   3.349  12.423  0.4317  0.8600 -0.7166
12946TIP3   OH260252   1.663   3.907   3.560  0.9184 -0.5964  0.0167
12946TIP3    H160253   1.727   3.836   3.554 -1.0489 -2.3551 -0.6130
12946TIP3    H260254   1.600   3.877   3.625 -0.7425 -0.0657 -1.3238
12947TIP3   OH260255   6.613   0.829   1.309  0.4404 -0.3318 -0.0629
12947TIP3    H160256   6.630   0.738   1.288 -1.4424 -0.8252  0.4835
12947TIP3    H260257   6.665   0.846   1.388  2.7100 -0.2050 -1.5230
12948TIP3   OH260258   3.628   2.768  16.220  0.1543 -0.0451 -0.0822
12948TIP3    H160259   3.533   2.780  16.225  0.1503  0.4173 -1.0323
12948TIP3    H260260   3.641   2.703  16.151  0.6044  1.3133 -1.3032
12949TIP3   OH260261   5.058   3.756  14.517 -0.0511  0.2119  0.4279
12949TIP3    H160262   5.104   3.716  14.590  0.9352 -0.8495 -0.7495
12949TIP3    H260263   5.023   3.838  14.552  0.4129 -0.2805  2.0642
12950TIP3   OH260264   4.357   1.863   1.234 -0.2587 -0.0477  0.3190
12950TIP3    H160265   4.432   1.819   1.195  0.0302 -0.0624  0.8777
12950TIP3    H260266   4.372   1.956   1.217 -1.3904 -0.2217 -1.7640
12951TIP3   OH260267   3.314   4.740  11.090 -0.1693 -0.8488 -0.4541
12951TIP3    H160268   3.338   4.833  11.087  0.3918 -0.8976  1.7000
12951TIP3    H260269   3.231   4.735  11.043  1.1036  0.2953 -2.9016
12952TIP3   OH260270   3.854   3.801  12.186 -0.2752 -0.6258  0.6508
12952TIP3    H160271   3.860   3.792  12.091  0.2686 -0.2356  0.6443
12952TIP3    H260272   3.859   3.711  12.219 -0.8877 -0.7941  0.2927
12953TIP3   OH260273   3.281   3.430   1.946  0.0886  0.9085  0.2885
12953TIP3    H160274   3.196   3.459   1.913 -1.0324 -0.3964  1.9386
12953TIP3    H260275   3.289   3.340   1.917 -0.9976 -0.3298  3.5847
12954TIP3   OH260276   6.730   5.445   0.574  0.2470  0.5914 -1.1920
12954TIP3    H160277   6.653   5.435   0.517 -1.4516 -0.6089  1.2180
12954TIP3    H260278   6.778   5.519   0.536 -2.7670  2.2311 -2.0388
12955TIP3   OH260279   2.392   0.986   6.164 -0.4938 -0.3741  0.4634
12955TIP3    H160280   2.480   1.015   6.189  0.0637  0.1106 -1.8547
12955TIP3    H260281   2.337   1.062   6.180  0.0715  0.3396 -0.8259
12956TIP3   OH260282   5.920   2.828  15.568 -0.1618  1.0224  0.4431
12956TIP3    H160283   5.965   2.812  15.650  1.4964 -0.1853 -0.6737
12956TIP3    H260284   5.866   2.750  15.553  0.3597  0.7706 -0.1386
12957TIP3   OH260285   0.010   4.613  13.172  0.5765  0.1558 -0.3922
12957TIP3    H160286  -0.034   4.591  13.254 -0.2208  0.9931 -0.5846
12957TIP3    H260287   0.103   4.600  13.191  0.5309  1.9099  1.1683
12958TIP3   OH260288   0.335   5.014   4.172  0.2847  0.3690  0.2963
12958TIP3    H160289   0.320   4.929   4.213 -1.7985  1.4194  1.7677
12958TIP3    H260290   0.251   5.037   4.132  1.1290  1.2557 -1.0415
12959TIP3   OH260291   5.685   6.483  15.640  0.1784  0.1955  0.0587
12959TIP3    H160292   5.671   6.576  15.624 -0.4360 -0.0805 -1.1391
12959TIP3    H260293   5.732   6.452  15.562 -0.5680 -0.6897 -0.0637
12960TIP3   OH260294   1.343   3.264  16.357  0.3560  0.3375  0.0893
12960TIP3    H160295   1.380   3.352  16.356  0.3377  0.3574  0.7527
12960TIP3    H260296   1.352   3.235  16.448 -2.1117  0.7071  0.4944
12961TIP3   OH260297   6.535   1.108  13.486  0.1224 -0.3281  0.1159
12961TIP3    H160298   6.566   1.069  13.568  0.2780 -1.9459 -0.6938
12961TIP3    H260299   6.440   1.095  13.488  0.1820 -0.8033 -0.1858
12962TIP3   OH260300   1.643   3.244  12.164  0.1362 -0.6764  0.4234
12962TIP3    H160301   1.681   3.306  12.103  2.5313 -2.7369 -0.2601
12962TIP3    H260302   1.646   3.160  12.119 -1.2636 -1.6535  2.0550
12963TIP3   OH260303   2.214   3.817  16.020 -0.3268 -0.7130  0.5518
12963TIP3    H160304   2.152   3.846  16.087  0.2647  0.0834  0.7579
12963TIP3    H260305   2.258   3.897  15.991 -1.1150 -0.9389 -1.3423
12964TIP3   OH260306   0.632   2.257   1.708  0.0323 -0.3412 -0.2953
12964TIP3    H160307   0.693   2.201   1.756 -0.0950 -0.7651 -0.6230
12964TIP3    H260308   0.646   2.344   1.744  1.1271 -0.3589 -0.6477
12965TIP3   OH260309   6.429   4.227   5.919  0.1777  0.1590 -0.1685
12965TIP3    H160310   6.373   4.167   5.869  2.6735 -2.1179 -0.3877
12965TIP3    H260311   6.418   4.199   6.010  1.5612 -0.8958 -0.2990
12966TIP3   OH260312   4.089   6.478   0.765 -0.9207  0.0635  0.6079
12966TIP3    H160313   4.127   6.556   0.725 -2.7648  1.0864  0.8038
12966TIP3    H260314   4.163   6.434   0.806  0.7978 -0.3060 -2.7007
12967TIP3   OH260315   0.690   4.935  16.099 -0.3357 -0.1286  0.3125
12967TIP3    H160316   0.672   4.934  16.005  0.0970 -0.6363  0.2362
12967TIP3    H260317   0.637   4.864  16.135 -1.4420  0.8389  0.6253
12968TIP3   OH260318   6.577   1.516  12.632 -0.0395 -0.1185 -0.1406
12968TIP3    H160319   6.652   1.567  12.661 -0.3601  0.5812 -0.5203
12968TIP3    H260320   6.540   1.479  12.713  1.6798 -1.8474 -0.1156
12969TIP3   OH260321   2.170   5.459  14.566  0.0719  0.2516 -0.4604
12969TIP3    H160322   2.211   5.471  14.481  0.3714  0.6317 -0.2660
12969TIP3    H260323   2.125   5.542  14.583 -1.8156 -0.6002 -1.2264
12970TIP3   OH260324   2.530   6.624   1.809  0.4407 -0.7477  0.5756
12970TIP3    H160325   2.554   6.606   1.900  0.9190 -0.8567  0.4299
12970TIP3    H260326   2.522   6.537   1.769  1.9656 -0.6835  0.0739
12971TIP3   OH260327   2.376   6.444   2.701 -0.2965 -0.6346 -0.7829
12971TIP3    H160328   2.330   6.521   2.735 -0.2131 -0.4475 -1.0928
12971TIP3    H260329   2.318   6.411   2.633 -0.7055 -1.3080 -0.1135
12972TIP3   OH260330   1.972   3.613   2.500 -0.4083 -0.0733  0.1433
12972TIP3    H160331   2.010   3.536   2.540  1.5482  0.6199 -0.3172
12972TIP3    H260332   1.989   3.684   2.562 -0.9011  0.2608 -0.0937
12973TIP3   OH260333   1.937   3.038   4.249  0.1236  0.2630 -0.5002
12973TIP3    H160334   1.942   2.969   4.315  0.1366  0.2257 -0.5401
12973TIP3    H260335   1.866   3.095   4.278 -1.1557 -0.8098 -1.4741
12974TIP3   OH260336   2.604   6.595  11.988  0.2222  0.0768  0.5170
12974TIP3    H160337   2.677   6.577  12.048 -0.4603 -1.6837  0.8382
12974TIP3    H260338   2.591   6.513  11.941 -2.0761  0.1546  0.9912
12975TIP3   OH260339   6.651   5.815   0.194 -0.1551 -0.1536  0.0531
12975TIP3    H160340   6.743   5.800   0.212 -0.2321  0.0689  0.6567
12975TIP3    H260341   6.616   5.853   0.275 -0.1016  2.7220 -1.2063
12976TIP3   OH260342   4.015   3.908   5.059 -0.2654  0.1437 -0.2664
12976TIP3    H160343   3.967   3.872   5.134  0.1217 -0.0486 -0.1073
12976TIP3    H260344   3.951   3.909   4.988 -0.7301  0.6495  0.1587
12977TIP3   OH260345   2.299   4.363  14.932 -0.0988  0.1008 -0.2902
12977TIP3    H160346   2.247   4.395  14.858 -2.8631 -1.3871  0.9356
12977TIP3    H260347   2.336   4.280  14.900 -1.0256 -0.3793 -0.1328
12978TIP3   OH260348   4.825   3.558  13.735  0.6583 -0.4777 -0.2329
12978TIP3    H160349   4.838   3.582  13.643  1.2621 -0.8501 -0.2520
12978TIP3    H260350   4.783   3.472  13.732 -1.9972  0.7698 -0.1714
12979TIP3   OH260351   3.230   1.876  13.783 -0.4277 -0.1909 -0.0200
12979TIP3    H160352   3.173   1.922  13.722 -0.4001  0.1060  0.1740
12979TIP3    H260353   3.178   1.868  13.863 -0.3640 -0.3248  0.0088
12980TIP3   OH260354   6.455   2.991   2.949 -0.2113 -0.4943  0.2447
12980TIP3    H160355   6.451   2.998   2.854 -0.1583 -1.5718  0.1630
12980TIP3    H260356   6.456   2.897   2.967  1.7458 -0.3268  1.2262
12981TIP3   OH260357   3.308   2.620  14.589  0.2004 -0.1673 -1.0526
12981TIP3    H160358   3.335   2.532  14.616  1.1076  0.3957 -0.1139
12981TIP3    H260359   3.383   2.655  14.541  0.1738  0.4412 -0.6540
12982TIP3   OH260360   3.140   3.359   2.207 -0.0997 -0.0674  0.7563
12982TIP3    H160361   3.174   3.405   2.131  1.7563 -0.5738  1.2612
12982TIP3    H260362   3.053   3.328   2.179  0.4621 -0.0722 -1.0725
12983TIP3   OH260363   2.593   3.829  14.956 -0.1328 -0.4634 -0.0302
12983TIP3    H160364   2.590   3.738  14.924  1.0958 -0.4938 -0.0940
12983TIP3    H260365   2.578   3.882  14.878  0.6492 -0.5832 -0.2630
12984TIP3   OH260366   3.429   5.440   1.279 -0.5503 -0.0765 -0.2463
12984TIP3    H160367   3.349   5.390   1.266  0.9014 -2.0068 -2.1386
12984TIP3    H260368   3.488   5.379   1.324  0.1904  0.9835  0.2282
12985TIP3   OH260369   1.033   5.458  14.676  0.2235  0.3437  0.0530
12985TIP3    H160370   1.016   5.401  14.601  1.1563  0.3588 -0.1681
12985TIP3    H260371   1.098   5.521  14.644 -0.8869  1.6066  0.2598
12986TIP3   OH260372   5.200   5.511   5.261 -0.0525  0.4318  0.0520
12986TIP3    H160373   5.169   5.422   5.278 -2.3014  0.8862 -1.5951
12986TIP3    H260374   5.280   5.498   5.210 -0.7140 -0.6526 -0.7432
12987TIP3   OH260375   1.416   3.527  11.038  0.2732 -0.0284 -0.0821
12987TIP3    H160376   1.501   3.507  11.076 -0.3084  1.3818  2.0752
12987TIP3    H260377   1.409   3.622  11.043  0.2945  0.2853 -4.1370
12988TIP3   OH260378   3.881   3.194  14.471 -0.0292 -0.4339  0.4016
12988TIP3    H160379   3.906   3.279  14.436 -2.0252  0.2287  0.5116
12988TIP3    H260380   3.963   3.148  14.483  1.0858  1.4871  0.3470
12989TIP3   OH260381   4.989   3.160  11.171 -0.3050  0.4914 -0.0187
12989TIP3    H160382   4.951   3.116  11.095  0.4291 -0.9824  0.4476
12989TIP3    H260383   5.079   3.182  11.144 -0.4854  1.1984 -0.0508
12990TIP3   OH260384   1.306   1.032   5.922  0.0506  0.1333 -0.0175
12990TIP3    H160385   1.242   1.016   5.852 -0.3926  1.6736  0.0255
12990TIP3    H260386   1.362   0.955   5.920 -1.0069 -0.6436 -0.9310
12991TIP3   OH260387   1.430   3.165  15.745 -0.2742 -0.2427  0.1051
12991TIP3    H160388   1.341   3.199  15.732 -0.5076 -0.8552  0.0716
12991TIP3    H260389   1.472   3.229  15.801 -0.9173 -0.2258  0.5779
12992TIP3   OH260390   4.986   0.554  12.126 -0.4455 -0.7915  0.6900
12992TIP3    H160391   4.940   0.616  12.071 -0.4459 -0.7638  0.7218
12992TIP3    H260392   4.919   0.519  12.185 -0.2888 -0.2438  1.1936
12993TIP3   OH260393   1.398   1.928   4.591 -0.1884  0.0229  0.1817
12993TIP3    H160394   1.349   1.872   4.652 -0.5187  1.4908  1.3053
12993TIP3    H260395   1.353   2.013   4.596  0.0981  0.3163 -1.7423
12994TIP3   OH260396   0.436   3.990  16.598 -0.2112 -0.3366  0.2803
12994TIP3    H160397   0.489   3.999  16.677 -0.0088  0.3702  0.0627
12994TIP3    H260398   0.376   3.918  16.618  0.9174 -1.2334  0.4773
12995TIP3   OH260399   1.959   1.583   2.687 -0.4848 -0.0326 -0.2490
12995TIP3    H160400   1.968   1.648   2.758 -0.3961  0.8449 -1.0484
12995TIP3    H260401   1.968   1.635   2.607  2.4827 -1.4344 -0.8981
12996TIP3   OH260402   4.192   5.708  16.240  0.2278  0.2248  0.2314
12996TIP3    H160403   4.284   5.734  16.233  0.2672  0.2631  0.8832
12996TIP3    H260404   4.143   5.781  16.203  0.5019 -0.2385 -1.0957
12997TIP3   OH260405   6.243   2.767   0.297 -0.1522  0.4196  0.2380
12997TIP3    H160406   6.204   2.698   0.351 -1.7010 -0.5988 -2.0541
12997TIP3    H260407   6.314   2.723   0.250  0.2071  0.9084  0.3220
12998TIP3   OH260408   0.277   5.779   3.574  0.1885 -0.4587  0.2608
12998TIP3    H160409   0.317   5.863   3.554  1.2042 -0.8800  0.4801
12998TIP3    H260410   0.212   5.799   3.642 -1.7662  0.6182 -1.8405
12999TIP3   OH260411   2.984   4.827   6.726 -0.3839  0.4006 -0.5690
12999TIP3    H160412   2.927   4.903   6.736 -1.0621 -0.1157 -0.4461
12999TIP3    H260413   3.065   4.851   6.770 -2.1669 -0.6241  3.4651
13000TIP3   OH260414   1.411   3.234  12.840  0.0049  0.0530  0.1191
13000TIP3    H160415   1.450   3.279  12.915  0.7599 -0.6649  0.1618
13000TIP3    H260416   1.439   3.143  12.850  2.9008  0.5333 -2.7923
13001TIP3   OH260417   1.825   2.901  16.752 -0.3826 -0.5887  0.1621
13001TIP3    H160418   1.829   2.979  16.696 -0.1626 -0.7802 -0.0924
13001TIP3    H260419   1.731   2.884  16.763 -0.4729  0.5600  1.4083
13002TIP3   OH260420   0.822   4.711   2.854  0.0666  0.4344 -0.7748
13002TIP3    H160421   0.737   4.745   2.826 -0.5600 -0.6913 -0.2898
13002TIP3    H260422   0.882   4.734   2.784 -0.7641  0.7117 -1.4023
13003TIP3   OH260423   4.822   5.692  13.045  0.2191 -0.6885 -0.5801
13003TIP3    H160424   4.882   5.757  13.080  0.1749 -1.1422  0.3526
13003TIP3    H260425   4.764   5.741  12.987  1.8178 -0.3273 -1.9134
13004TIP3   OH260426   5.956   5.121   1.444  0.1022 -0.5195 -0.2974
13004TIP3    H160427   5.991   5.037   1.471 -2.7069 -0.9632  2.2753
13004TIP3    H260428   5.927   5.107   1.354  0.8187 -1.9043 -0.3289
13005TIP3   OH260429   5.924   6.735   0.384  0.7595  0.6644 -0.5919
13005TIP3    H160430   5.973   6.813   0.410  2.3912  0.1487 -1.9891
13005TIP3    H260431   5.933   6.732   0.289 -1.5871  0.2518 -0.8150
13006TIP3   OH260432   5.328   0.716   4.457 -0.4531 -0.3048 -0.4875
13006TIP3    H160433   5.387   0.645   4.483 -0.8250 -0.5344 -0.2620
13006TIP3    H260434   5.245   0.695   4.500 -0.3015  0.7718  0.3474
13007TIP3   OH260435   1.753   2.879  12.982  0.0200  0.1036  0.3231
13007TIP3    H160436   1.791   2.958  12.944  0.1069  0.1504  0.5037
13007TIP3    H260437   1.767   2.811  12.916  0.5296  0.0915  0.4369
13008TIP3   OH260438   5.332   6.780  14.482 -0.1210 -0.0068 -0.3233
13008TIP3    H160439   5.299   6.805  14.568 -0.3820 -0.2429 -0.3572
13008TIP3    H260440   5.254   6.760  14.430  0.0678 -0.5935 -0.3886
13009TIP3   OH260441   3.287   0.372   0.412  0.3644  0.1353 -0.6451
13009TIP3    H160442   3.381   0.355   0.402  0.6235 -0.9046  2.9823
13009TIP3    H260443   3.254   0.298   0.463 -1.7921  2.1109  0.9499
13010TIP3   OH260444   3.009   3.314   6.353 -0.2054  0.1384 -0.5443
13010TIP3    H160445   2.941   3.323   6.288  0.4905  2.3257 -1.0346
13010TIP3    H260446   3.087   3.290   6.304  0.2159  1.3452 -0.4988
13011TIP3   OH260447   3.906   4.300   1.766  0.4552 -0.2804 -0.2051
13011TIP3    H160448   3.990   4.347   1.759  0.6258 -0.2006  1.9477
13011TIP3    H260449   3.925   4.212   1.732  1.2699 -0.0899 -0.2559
13012TIP3   OH260450   3.073   3.707  11.957  0.2129 -0.7025 -0.3288
13012TIP3    H160451   2.981   3.736  11.956  0.0152 -1.1316  2.3937
13012TIP3    H260452   3.078   3.644  12.029  3.0653  0.7807  0.8694
13013TIP3   OH260453   1.444   6.147   0.997  0.5996 -0.4070  0.7365
13013TIP3    H160454   1.420   6.110   0.912 -1.3769  0.0816  1.0655
13013TIP3    H260455   1.430   6.077   1.060  1.5455 -0.6009  0.7376
13014TIP3   OH260456   3.356   2.474   1.779 -0.4854 -0.3656  0.1397
13014TIP3    H160457   3.283   2.415   1.801  0.3313 -2.2857 -2.1034
13014TIP3    H260458   3.341   2.497   1.688  1.2259 -0.0433 -0.0629
13015TIP3   OH260459   0.680   4.422  17.021  0.0780 -0.4092 -0.7148
13015TIP3    H160460   0.742   4.468  16.963  0.3099  1.9325  1.3428
13015TIP3    H260461   0.610   4.485  17.036 -1.4807 -2.0752 -0.7791
13016TIP3   OH260462   3.930   3.371  11.264  0.3705 -0.2704 -0.5843
13016TIP3    H160463   3.972   3.410  11.341  0.6290  1.1236 -1.4273
13016TIP3    H260464   3.887   3.444  11.220 -0.3748 -1.1822 -1.3898
13017TIP3   OH260465   4.394   3.530  14.257 -0.1219  0.1294  0.3863
13017TIP3    H160466   4.326   3.504  14.195 -1.6269 -0.0781  2.0946
13017TIP3    H260467   4.476   3.503  14.215 -1.1538 -0.6592 -1.1748
13018TIP3   OH260468   2.564   2.918  14.578  0.2976 -0.6736 -0.3227
13018TIP3    H160469   2.501   2.904  14.649  1.9438 -0.3329  1.2325
13018TIP3    H260470   2.518   2.975  14.517 -2.2828 -3.4393 -1.1016
13019TIP3   OH260471   6.434   4.399  16.756  0.4277  0.0842 -0.1072
13019TIP3    H160472   6.482   4.481  16.765 -0.2890  0.3532  1.4969
13019TIP3    H260473   6.449   4.372  16.666  2.8827  0.5797  0.1154
13020TIP3   OH260474   2.961   4.887   3.052  0.1649  0.0337 -0.2132
13020TIP3    H160475   2.927   4.903   3.140 -0.0374  1.3112 -0.5061
13020TIP3    H260476   2.910   4.946   2.996 -0.8087 -1.9034 -1.4253
13021TIP3   OH260477   4.795   4.552  12.433 -0.4991  0.2555 -0.0993
13021TIP3    H160478   4.730   4.620  12.453 -0.6564  0.1021 -0.0864
13021TIP3    H260479   4.798   4.498  12.512 -0.5085  0.1399 -0.1774
13022TIP3   OH260480   5.854   1.568   0.526  0.2885 -0.2581 -0.1928
13022TIP3    H160481   5.907   1.645   0.549 -0.3102  0.1889 -0.2948
13022TIP3    H260482   5.887   1.499   0.583  0.8872  0.0551 -0.1553
13023TIP3   OH260483   5.863   4.231   0.836  0.0223  0.4016  0.8077
13023TIP3    H160484   5.832   4.306   0.885  2.1001  1.8259  0.0227
13023TIP3    H260485   5.807   4.228   0.758 -0.9122  0.3366  1.4830
13024TIP3   OH260486   1.898   5.713   2.348  0.0295 -0.2227 -0.3087
13024TIP3    H160487   1.837   5.643   2.373  0.6303 -1.6777 -2.7537
13024TIP3    H260488   1.851   5.764   2.282  0.2799  0.5650  0.1209
13025TIP3   OH260489   0.814   3.831  14.301  0.0033 -0.3688  0.7217
13025TIP3    H160490   0.821   3.786  14.216  1.0111  0.6309  0.2659
13025TIP3    H260491   0.865   3.778  14.361  1.7632  0.5042  0.0329
13026TIP3   OH260492   2.011   1.242  13.050 -0.3358  0.3791  0.3198
13026TIP3    H160493   1.949   1.190  13.102 -0.8259  2.0325  1.4296
13026TIP3    H260494   2.091   1.190  13.051 -1.3896 -1.2908 -0.2502
13027TIP3   OH260495   4.280   2.424  10.993 -0.2653 -0.5716 -0.1802
13027TIP3    H160496   4.290   2.379  10.909 -0.4894  0.9289 -1.0318
13027TIP3    H260497   4.223   2.367  11.045 -0.1831 -1.4719 -1.0826
13028TIP3   OH260498   1.309   3.934   4.586 -0.1350 -0.1271  0.1684
13028TIP3    H160499   1.225   3.913   4.547  0.2077 -0.0047 -0.6461
13028TIP3    H260500   1.315   3.877   4.663 -1.2743  0.3909  0.6397
13029TIP3   OH260501   6.077   0.483  16.795  0.1889 -0.4609 -0.0264
13029TIP3    H160502   6.052   0.390  16.794  0.3325 -0.4915 -1.0648
13029TIP3    H260503   6.003   0.529  16.756  1.4832 -0.5065 -2.6470
13030TIP3   OH260504   0.470   0.918   0.906  0.6859  0.6096  0.3453
13030TIP3    H160505   0.532   0.865   0.856 -0.7517 -1.2743  0.5131
13030TIP3    H260506   0.488   0.898   0.997  0.2862  0.5854  0.4210
13031TIP3   OH260507   5.787   0.535   5.503  0.4261  0.3630  0.3506
13031TIP3    H160508   5.811   0.593   5.576 -0.0077  3.2572 -1.7211
13031TIP3    H260509   5.847   0.559   5.433 -1.2687 -0.0981 -1.2888
13032TIP3   OH260510   1.350   4.440   6.432  0.6038  0.1397  0.0232
13032TIP3    H160511   1.365   4.345   6.441  2.3071  0.4216  0.3119
13032TIP3    H260512   1.266   4.446   6.386  1.1442 -1.5299 -1.2641
13033TIP3   OH260513   3.581   6.590  11.975  0.0716 -0.6543  0.0350
13033TIP3    H160514   3.650   6.631  12.027  1.1866 -3.0861  0.5173
13033TIP3    H260515   3.611   6.601  11.884  1.7428 -2.7344  0.2889
13034TIP3   OH260516   2.431   2.574  15.437 -0.0322 -0.4121 -0.4213
13034TIP3    H160517   2.450   2.615  15.522 -1.1438  0.6091 -0.6506
13034TIP3    H260518   2.431   2.647  15.375 -0.4731 -0.9802 -1.0939
13035TIP3   OH260519   0.973   1.414   1.098  0.6086 -0.2659  0.4118
13035TIP3    H160520   0.926   1.331   1.098  0.2910 -0.0915 -0.4511
13035TIP3    H260521   1.032   1.409   1.023 -0.1357  0.6763 -0.2542
13036TIP3   OH260522   2.807   0.564   4.606 -0.5277 -0.1345  0.6119
13036TIP3    H160523   2.782   0.622   4.678 -2.3001  2.1595 -1.7619
13036TIP3    H260524   2.861   0.619   4.548 -2.6245 -0.6535 -1.9098
13037TIP3   OH260525   0.375   1.940   2.400  0.3518 -0.4835 -0.3643
13037TIP3    H160526   0.449   1.880   2.404 -0.1873 -1.2031 -0.9319
13037TIP3    H260527   0.303   1.892   2.442 -0.4534 -0.8137 -2.0478
13038TIP3   OH260528   2.524   4.465   3.642  0.3596  0.2245 -0.4586
13038TIP3    H160529   2.466   4.400   3.602 -0.0977  0.7329 -0.6327
13038TIP3    H260530   2.470   4.543   3.651  0.4164  0.0919  1.2607
13039TIP3   OH260531   2.479   5.772   6.154  0.2909  0.4287  0.0686
13039TIP3    H160532   2.484   5.720   6.234 -0.9148  2.8536  1.7606
13039TIP3    H260533   2.486   5.863   6.182  0.0321  1.3392 -2.5887
13040TIP3   OH260534   6.403   1.173   4.200  0.2498 -0.3209  0.9943
13040TIP3    H160535   6.373   1.263   4.214 -0.3920 -0.5640  1.2059
13040TIP3    H260536   6.327   1.128   4.162  0.6314 -0.7229  0.7118
13041TIP3   OH260537   6.258   4.095   1.618  0.4629  0.5466  0.0743
13041TIP3    H160538   6.264   4.186   1.590 -0.1551  0.1462 -1.4282
13041TIP3    H260539   6.283   4.045   1.541 -0.1206 -0.5782  0.6044
13042TIP3   OH260540   0.142   3.331  13.601 -0.3803 -0.5016 -0.1012
13042TIP3    H160541   0.185   3.339  13.516  0.0809  0.8094  0.2466
13042TIP3    H260542   0.051   3.358  13.584 -1.3826 -4.1864 -1.0443
13043TIP3   OH260543   0.017   1.907   4.151 -0.3753 -1.1854 -0.6416
13043TIP3    H160544  -0.067   1.860   4.146 -0.9548 -0.2053 -0.2557
13043TIP3    H260545   0.011   1.972   4.082  0.9284 -2.4506 -1.9735
13044TIP3   OH260546   6.289   5.107   5.802 -0.2158  0.3438 -0.4392
13044TIP3    H160547   6.353   5.176   5.817  0.7439 -0.7656  0.7856
13044TIP3    H260548   6.209   5.152   5.776  0.5711  1.8601 -0.2473
13045TIP3   OH260549   2.391   0.464  11.963 -0.5370  0.1876 -0.2287
13045TIP3    H160550   2.399   0.558  11.949 -2.1583  0.3561 -0.1419
13045TIP3    H260551   2.386   0.427  11.875  1.1380  0.0727 -0.2835
13046TIP3   OH260552   2.550   3.047   3.604  0.9290 -0.7395  0.5727
13046TIP3    H160553   2.466   3.002   3.593  1.0071 -0.7909  0.1988
13046TIP3    H260554   2.526   3.135   3.635  0.7297 -0.7118  0.3403
13047TIP3   OH260555   6.352   0.699   1.391  0.1004  0.3151 -0.1969
13047TIP3    H160556   6.326   0.753   1.465 -1.2830 -0.4419 -0.1084
13047TIP3    H260557   6.395   0.623   1.431  1.2327  0.8982 -0.2809
13048TIP3   OH260558   3.970   1.137   3.040  0.1125 -0.1537 -0.6062
13048TIP3    H160559   3.880   1.106   3.028  0.5897 -1.7054 -0.2937
13048TIP3    H260560   3.970   1.181   3.125 -0.0014 -1.5263  0.1146
13049TIP3   OH260561   5.529   6.774   4.416  0.0602 -0.1859  0.7369
13049TIP3    H160562   5.516   6.861   4.454  0.9440  0.0961  0.4271
13049TIP3    H260563   5.519   6.787   4.322 -0.5553 -0.5691  0.7496
13050TIP3   OH260564   2.380   0.991  12.208 -0.0751  0.1825 -0.3933
13050TIP3    H160565   2.368   1.038  12.125 -1.6243  0.5619  0.0227
13050TIP3    H260566   2.461   1.027  12.245 -0.0625  0.9345 -1.1322
13051TIP3   OH260567   1.121   4.876  16.213 -0.4115 -0.3305 -0.0295
13051TIP3    H160568   1.065   4.888  16.289 -0.6787  0.5195 -0.3557
13051TIP3    H260569   1.070   4.911  16.140  0.7878  1.0171 -0.2431
13052TIP3   OH260570   2.565   2.423  11.782 -0.1409 -0.2112 -0.4912
13052TIP3    H160571   2.527   2.416  11.694  1.1212 -0.2117 -1.0485
13052TIP3    H260572   2.641   2.366  11.780  0.9237  1.1595  0.0404
13053TIP3   OH260573   4.758   3.311   1.371 -0.5331 -0.0092  0.2183
13053TIP3    H160574   4.679   3.335   1.323  0.2664  0.2631 -0.9941
13053TIP3    H260575   4.778   3.222   1.343 -0.2088  0.0541  0.2376
13054TIP3   OH260576   1.313   4.549  14.984  0.5390 -0.3329 -0.0671
13054TIP3    H160577   1.406   4.524  14.978  0.9382  1.1324 -0.1611
13054TIP3    H260578   1.315   4.639  15.014 -0.8375  0.1078 -1.2717
13055TIP3   OH260579   1.431   5.780   4.112  0.1981  0.2716  0.7148
13055TIP3    H160580   1.496   5.845   4.084  0.9852 -0.4773  0.7863
13055TIP3    H260581   1.347   5.824   4.100  0.5809  0.4518 -1.5587
13056TIP3   OH260582   3.915   0.092  14.247 -0.2389  0.1233 -0.0690
13056TIP3    H160583   3.885   0.116  14.160 -0.0214 -0.0063 -0.1798
13056TIP3    H260584   3.956   0.171  14.282 -1.5981  0.6034  0.4786
13057TIP3   OH260585   2.563   2.010  15.491 -0.5614 -0.1618 -0.0287
13057TIP3    H160586   2.576   2.098  15.525  0.3548  0.6122 -2.2695
13057TIP3    H260587   2.651   1.978  15.474 -0.9740 -0.7283 -1.1354
13058TIP3   OH260588   4.818   6.547   4.602 -0.2464  0.3799  0.0400
13058TIP3    H160589   4.779   6.632   4.584 -1.1918 -0.3950 -1.7308
13058TIP3    H260590   4.910   6.557   4.579 -0.5303  0.6948 -0.9839
13059TIP3   OH260591   4.117   5.001   1.000 -0.0305  0.2396 -0.5876
13059TIP3    H160592   4.061   5.030   1.072  0.4737 -1.9551  0.7497
13059TIP3    H260593   4.143   5.082   0.956  0.8015  1.8017  2.5798
13060TIP3   OH260594   1.972   2.401   2.119 -0.0692 -0.2872 -0.3050
13060TIP3    H160595   1.976   2.359   2.033 -0.8001 -0.1232 -0.4311
13060TIP3    H260596   1.993   2.332   2.181  0.2165 -0.4697 -0.6080
13061TIP3   OH260597   6.045   6.329   6.060  0.1667 -0.8150  0.1996
13061TIP3    H160598   6.094   6.361   6.136 -0.1107  1.5212 -0.5701
13061TIP3    H260599   6.097   6.255   6.028  1.7325 -0.0900  1.0146
13062TIP3   OH260600   0.498   3.273  12.647  0.8823  0.5041  0.4549
13062TIP3    H160601   0.579   3.258  12.696  1.3492  0.1578 -0.4067
13062TIP3    H260602   0.446   3.194  12.662  1.6670 -0.2665 -0.8435
13063TIP3   OH260603   6.736   3.421   4.490 -0.4001 -0.0479 -0.1000
13063TIP3    H160604   6.671   3.487   4.466  0.0671  0.3266 -0.3216
13063TIP3    H260605   6.786   3.461   4.562  1.0639  0.5644 -1.4360
13064TIP3   OH260606   4.603   6.043   2.323 -0.3357  0.5443  0.2368
13064TIP3    H160607   4.672   6.014   2.382 -0.4093 -1.1599 -0.4780
13064TIP3    H260608   4.521   6.026   2.371 -0.3423  0.5238  0.2178
13065TIP3   OH260609   4.746   2.335   6.210  0.9369  0.4345 -0.5077
13065TIP3    H160610   4.710   2.424   6.209  1.7960  0.7896 -0.5175
13065TIP3    H260611   4.834   2.345   6.175  1.3659 -0.2803  0.3469
13066TIP3   OH260612   3.334   3.770  10.756 -0.3683  0.0214 -0.0301
13066TIP3    H160613   3.255   3.817  10.728 -1.0914 -1.9185 -1.3589
13066TIP3    H260614   3.301   3.694  10.804  0.7851  0.7912  2.0578
13067TIP3   OH260615   0.365   5.785   2.422  0.6721 -0.1116  0.7205
13067TIP3    H160616   0.385   5.691   2.422 -3.3573 -1.0601  0.9728
13067TIP3    H260617   0.377   5.812   2.513 -1.3845 -1.1854  1.3351
13068TIP3   OH260618   0.760   6.431  16.999 -0.3964 -0.0435 -0.2790
13068TIP3    H160619   0.742   6.512  16.951 -1.7890 -0.8342 -1.1369
13068TIP3    H260620   0.736   6.451  17.089 -0.3496  0.6147 -0.4046
13069TIP3   OH260621   0.798   2.965   1.508  0.1038 -0.6016 -0.4193
13069TIP3    H160622   0.833   3.048   1.475 -1.3466 -0.2690 -1.1562
13069TIP3    H260623   0.817   2.902   1.438  0.9811 -0.8548  0.0340
13070TIP3   OH260624   2.889   3.327   5.938 -0.4155  0.7022 -0.0864
13070TIP3    H160625   2.971   3.376   5.930 -0.2459  0.7432  1.6760
13070TIP3    H260626   2.858   3.347   6.027 -1.7390 -0.2359 -0.3258
13071TIP3   OH260627   5.832   2.003   2.582  0.1508 -0.3907 -0.3020
13071TIP3    H160628   5.811   2.096   2.594  0.9679 -0.4280  1.6644
13071TIP3    H260629   5.899   2.001   2.514  0.8692  0.5576  0.3647
13072TIP3   OH260630   4.117   6.003   1.550 -0.4552  0.2775 -0.1437
13072TIP3    H160631   4.185   5.945   1.585 -1.3204 -0.6619 -0.0138
13072TIP3    H260632   4.106   6.070   1.616  0.8275  0.8237 -0.4617
13073TIP3   OH260633   2.499   5.150   2.029  0.4153  0.1120 -0.3814
13073TIP3    H160634   2.503   5.058   2.002 -0.0580 -0.1904  0.5523
13073TIP3    H260635   2.520   5.199   1.950 -0.0550 -0.7822 -1.0717
13074TIP3   OH260636   3.341   2.946  12.973  0.1974 -0.4133 -0.0826
13074TIP3    H160637   3.365   2.963  12.882 -0.7188  1.5470  0.0135
13074TIP3    H260638   3.381   3.018  13.022  1.1254 -1.7365  1.1613
13075TIP3   OH260639   6.701   0.680  14.406 -0.7139  0.3154  0.4028
13075TIP3    H160640   6.788   0.719  14.411 -0.6488  0.0464  1.7765
13075TIP3    H260641   6.709   0.609  14.343  0.1399  0.0846  0.7802
13076TIP3   OH260642   4.659   1.281  16.466 -0.0111 -0.4757  0.0878
13076TIP3    H160643   4.707   1.249  16.390 -0.9636 -0.9696 -0.3143
13076TIP3    H260644   4.643   1.204  16.519  2.3962  0.1633  1.8135
13077TIP3   OH260645   5.574   5.837  13.173 -0.5779 -0.2555  0.3047
13077TIP3    H160646   5.495   5.854  13.122 -1.6202 -2.1365  1.2475
13077TIP3    H260647   5.548   5.852  13.263  0.4025  0.0309  0.5459
13078TIP3   OH260648   6.784   1.286   1.961  0.9241 -0.0373  0.4791
13078TIP3    H160649   6.773   1.255   1.871 -0.2883  0.2178  0.5317
13078TIP3    H260650   6.716   1.353   1.972  0.7813 -0.3741  1.7205
13079TIP3   OH260651   3.415   1.912  11.463 -0.0088  0.0240 -0.1650
13079TIP3    H160652   3.381   1.992  11.423 -1.3851 -0.6649 -0.3987
13079TIP3    H260653   3.403   1.926  11.557 -1.9243 -0.6164 -0.2830
13080TIP3   OH260654   3.003   2.774   4.171 -0.0892 -0.0710 -0.2258
13080TIP3    H160655   3.017   2.780   4.076  0.2241 -1.5489 -0.2849
13080TIP3    H260656   3.010   2.864   4.201  2.3038  0.1481 -1.2792
13081TIP3   OH260657   3.554   1.595  15.001  0.3498 -0.6676 -0.0565
13081TIP3    H160658   3.632   1.541  15.017 -0.8654 -2.4225  0.1388
13081TIP3    H260659   3.520   1.614  15.088 -1.1736 -2.5767 -0.1903
13082TIP3   OH260660   5.333   2.243   1.257  0.1636 -0.0817 -0.4487
13082TIP3    H160661   5.317   2.315   1.196 -1.3419 -1.5491 -1.8464
13082TIP3    H260662   5.357   2.169   1.202  1.2209 -0.7859  0.9308
13083TIP3   OH260663   3.388   6.497   5.748  0.0352  0.6670 -0.4735
13083TIP3    H160664   3.415   6.547   5.825  0.6761  0.2082 -0.4036
13083TIP3    H260665   3.470   6.465   5.710 -0.2748  0.8919 -1.3472
13084TIP3   OH260666   5.266   3.114   1.974  0.2133  0.5053 -0.1530
13084TIP3    H160667   5.299   3.106   1.884  3.2700 -1.5741  1.0669
13084TIP3    H260668   5.188   3.058   1.975  0.5750 -0.0490 -1.3470
13085TIP3   OH260669   0.168   0.353   3.909 -0.0754 -0.1165 -0.2341
13085TIP3    H160670   0.203   0.400   3.833 -2.1670  1.4264 -0.2768
13085TIP3    H260671   0.116   0.282   3.871  0.8572 -0.8155 -0.2071
13086TIP3   OH260672   5.855   1.235   6.696  0.2144 -0.2724  0.1075
13086TIP3    H160673   5.884   1.171   6.760  1.3019 -0.9148 -1.0088
13086TIP3    H260674   5.856   1.188   6.612 -0.1622  0.8533 -0.5446
13087TIP3   OH260675   1.540   2.439  12.239  0.1726  0.1237  0.1357
13087TIP3    H160676   1.592   2.518  12.222  1.7533 -0.5366  1.8290
13087TIP3    H260677   1.480   2.465  12.308  0.4800 -0.0704  0.4747
13088TIP3   OH260678   6.719   1.132   4.580 -0.1652 -0.2924  0.4236
13088TIP3    H160679   6.704   1.190   4.655 -1.8642 -1.4382  1.0105
13088TIP3    H260680   6.748   1.050   4.618 -1.4036 -1.0052 -0.1404
13089TIP3   OH260681   0.253   2.766  14.237 -0.0310 -0.2403 -0.2154
13089TIP3    H160682   0.171   2.718  14.228  0.8897 -1.9464  0.2352
13089TIP3    H260683   0.273   2.762  14.330  0.8667 -0.3391 -0.4094
13090TIP3   OH260684   1.017   3.506   5.835 -0.2130 -0.2925  0.1136
13090TIP3    H160685   1.036   3.507   5.929  0.5403 -3.5031  0.0592
13090TIP3    H260686   0.924   3.531   5.829 -0.2562 -0.0304  1.6909
13091TIP3   OH260687   1.358   1.001   3.903 -0.3271 -0.0190 -0.4108
13091TIP3    H160688   1.302   1.034   3.833 -0.2472 -1.4237 -1.1426
13091TIP3    H260689   1.417   1.074   3.923  1.1917 -0.3737 -3.3816
13092TIP3   OH260690   5.604   4.207   5.462 -0.1109 -0.2488 -0.5217
13092TIP3    H160691   5.682   4.151   5.460 -1.3065 -1.9739 -0.4886
13092TIP3    H260692   5.624   4.277   5.400  2.1316  0.2946  0.7567
13093TIP3   OH260693   1.074   5.393  11.079  0.2110 -0.0797 -0.1403
13093TIP3    H160694   1.001   5.437  11.122  0.1845  0.8558 -1.1368
13093TIP3    H260695   1.056   5.403  10.985  0.2566 -2.0991 -0.3858
13094TIP3   OH260696   1.253   0.826   2.850 -0.0513  0.2438  0.2040
13094TIP3    H160697   1.324   0.818   2.914 -0.2064 -0.2534  0.3161
13094TIP3    H260698   1.175   0.843   2.903 -0.0637  0.4948  0.1026
13095TIP3   OH260699   3.360   0.401  16.588  0.4742 -0.0488 -0.3969
13095TIP3    H160700   3.395   0.350  16.662  0.3568 -0.2813 -0.5024
13095TIP3    H260701   3.434   0.456  16.561 -0.1447  1.6650  1.3224
13096TIP3   OH260702   4.421   6.674   5.644 -0.3398  0.1659 -0.1771
13096TIP3    H160703   4.413   6.758   5.597 -0.5764  0.5418  0.5247
13096TIP3    H260704   4.489   6.690   5.709 -1.5288  0.3190  1.0411
13097TIP3   OH260705   1.304   2.445   2.551  0.0057 -0.1326  1.0900
13097TIP3    H160706   1.316   2.404   2.465  1.1778  0.1700  1.1000
13097TIP3    H260707   1.366   2.400   2.608  1.0202  1.3607  1.1949
13098TIP3   OH260708   2.848   6.408  14.946  0.0437 -0.3315  0.1897
13098TIP3    H160709   2.919   6.389  14.885  0.6461 -1.2664  1.1599
13098TIP3    H260710   2.881   6.479  15.001 -0.2175  0.0186 -0.1071
13099TIP3   OH260711   1.082   2.165  12.261 -0.0088 -0.1667 -0.1209
13099TIP3    H160712   1.085   2.258  12.237  0.8330 -0.1012  0.2158
13099TIP3    H260713   1.160   2.152  12.316  0.8563 -1.4739 -1.6122
13100TIP3   OH260714   6.494   4.303  12.877 -0.7598  0.0491  0.1815
13100TIP3    H160715   6.455   4.381  12.839 -2.0991 -0.2428  0.9653
13100TIP3    H260716   6.480   4.235  12.810 -0.4553  0.2443 -0.0812
13101TIP3   OH260717   4.684   5.372  14.780 -0.0170 -0.8546 -0.4174
13101TIP3    H160718   4.592   5.393  14.796  0.1180 -0.3901 -0.2306
13101TIP3    H260719   4.702   5.405  14.692  0.8158  1.9846  0.7462
13102TIP3   OH260720   2.997   6.293   3.905 -0.0937 -0.2150  0.1954
13102TIP3    H160721   3.065   6.343   3.861 -0.3628  0.4009  0.4644
13102TIP3    H260722   3.024   6.289   3.997 -0.7430  0.6079  0.4306
13103TIP3   OH260723   2.290   6.346   0.009  0.2451  0.2933  0.5642
13103TIP3    H160724   2.267   6.378  -0.079  2.7215 -1.9164 -0.9689
13103TIP3    H260725   2.340   6.418   0.048  0.0481  0.8922 -0.2736
13104TIP3   OH260726   0.284   5.889  14.149  0.3497  0.2061 -0.5803
13104TIP3    H160727   0.285   5.985  14.147  0.5025  0.2213  0.1274
13104TIP3    H260728   0.293   5.863  14.058  0.3091  0.8692 -0.7734
13105TIP3   OH260729   3.240   4.062   2.109 -0.5563 -0.2364  0.6942
13105TIP3    H160730   3.318   4.068   2.164 -0.3567 -0.1317  0.3960
13105TIP3    H260731   3.272   4.067   2.020 -0.8846 -0.4144  0.5638
13106TIP3   OH260732   0.686   1.987  12.253 -0.0075  0.0872 -0.4356
13106TIP3    H160733   0.714   2.057  12.195  0.2599 -0.0594 -0.4829
13106TIP3    H260734   0.637   1.927  12.196 -1.2801  0.8486 -0.1560
13107TIP3   OH260735   2.413   6.536   1.374  0.1198 -0.1421 -0.3752
13107TIP3    H160736   2.322   6.563   1.382  0.2296  0.1392 -0.0903
13107TIP3    H260737   2.464   6.614   1.397  0.4359 -0.0607 -1.3052
13108TIP3   OH260738   6.324   3.102   6.289 -0.2707 -0.2124 -0.3708
13108TIP3    H160739   6.367   3.018   6.305 -0.4800 -0.2944 -0.2359
13108TIP3    H260740   6.230   3.082   6.291 -0.3196 -0.0005 -0.4741
13109TIP3   OH260741   3.554   5.760   0.534  0.0273  0.1287  0.4245
13109TIP3    H160742   3.490   5.765   0.605 -0.1254  0.0420  0.2925
13109TIP3    H260743   3.562   5.850   0.503  0.6394  0.2915  1.0329
13110TIP3   OH260744   2.400   0.805   5.569 -0.4286  0.3715 -0.3572
13110TIP3    H160745   2.487   0.771   5.551 -1.1459 -1.1617 -1.0161
13110TIP3    H260746   2.364   0.828   5.483 -1.0166  0.1122 -0.1874
13111TIP3   OH260747   4.433   1.794  12.631  0.0734 -0.1044 -0.9239
13111TIP3    H160748   4.355   1.740  12.618  1.1286 -1.2985 -2.4760
13111TIP3    H260749   4.420   1.868  12.572  0.3899 -0.6099 -1.6324
13112TIP3   OH260750   4.244   4.780   1.109  0.3627  0.0455  0.2469
13112TIP3    H160751   4.206   4.847   1.052  1.6115  2.1683  1.8546
13112TIP3    H260752   4.338   4.790   1.098  0.5892 -0.2196  1.8869
13113TIP3   OH260753   5.901   6.345   5.154  0.8775  0.3766  0.1582
13113TIP3    H160754   5.931   6.431   5.183 -1.3337  0.9398  0.8616
13113TIP3    H260755   5.863   6.306   5.233 -2.3914  0.6567 -1.2281
13114TIP3   OH260756   3.442   3.980   5.260  0.0928  0.1899  0.1575
13114TIP3    H160757   3.373   4.042   5.283  1.7202  2.5382 -1.0064
13114TIP3    H260758   3.434   3.970   5.165  0.8471 -0.1423  0.1275
13115TIP3   OH260759   3.973   4.433  14.834 -0.0396  0.7897  0.5057
13115TIP3    H160760   3.964   4.508  14.894  1.2639  1.4322 -0.0753
13115TIP3    H260761   3.915   4.455  14.760 -0.8220  0.5029  1.0274
13116TIP3   OH260762   0.762   4.436  11.711  0.2406 -0.2609  0.5457
13116TIP3    H160763   0.735   4.348  11.735 -1.3157 -0.2785 -1.1802
13116TIP3    H260764   0.798   4.427  11.622  0.4040  0.7889  0.4950
13117TIP3   OH260765   5.097   1.845  13.804  0.8258  0.4631 -0.2860
13117TIP3    H160766   5.002   1.842  13.813  0.9922  1.1564  2.0713
13117TIP3    H260767   5.124   1.753  13.800  0.2948  0.1665  2.2654
13118TIP3   OH260768   6.602   0.941  16.378 -0.1738  0.5509 -0.3633
13118TIP3    H160769   6.694   0.924  16.400 -0.9337 -2.3048  0.8029
13118TIP3    H260770   6.598   0.928  16.283  0.8076  1.6604 -0.5709
13119TIP3   OH260771   0.677   5.920  15.805 -0.1459  0.1374  0.0255
13119TIP3    H160772   0.736   5.990  15.779 -1.4541  0.7548 -1.3506
13119TIP3    H260773   0.697   5.848  15.746  1.4390 -0.7963  1.6653
13120TIP3   OH260774   1.152   0.966   5.723 -0.0579  0.1267  0.1704
13120TIP3    H160775   1.101   1.004   5.652  0.2196  1.6082  0.7432
13120TIP3    H260776   1.121   0.875   5.729 -1.2734  0.4707 -0.7179
13121TIP3   OH260777   0.915   1.052   0.859  0.3596 -0.2209  0.0356
13121TIP3    H160778   0.899   1.066   0.952 -3.4468 -1.3399 -0.3715
13121TIP3    H260779   0.956   1.133   0.829  1.8983  0.0352  2.7060
13122TIP3   OH260780   3.430   3.557   2.897  0.3439  0.4076  0.1576
13122TIP3    H160781   3.412   3.474   2.853  0.3314 -0.3598  1.5466
13122TIP3    H260782   3.372   3.556   2.973  0.7952  1.4070  0.5258
13123TIP3   OH260783   0.537   6.178   5.843 -0.5857 -0.3987 -0.0159
13123TIP3    H160784   0.534   6.198   5.750 -0.1815 -1.5521 -0.2845
13123TIP3    H260785   0.630   6.185   5.866 -0.7851  0.6978  0.4861
13124TIP3   OH260786   5.625   5.351  15.960  0.4269 -1.0327  0.1561
13124TIP3    H160787   5.719   5.357  15.977  0.1536  0.0972  1.3897
13124TIP3    H260788   5.591   5.296  16.032 -0.2250  0.7953  1.2899
13125TIP3   OH260789   1.992   5.377   0.669 -0.5214  0.6250 -0.0378
13125TIP3    H160790   2.019   5.376   0.577 -0.6821  1.9192 -0.1158
13125TIP3    H260791   1.909   5.330   0.670 -0.3780  0.3504 -0.5009
13126TIP3   OH260792   0.499   5.855   3.064  0.7400  0.1701  0.1343
13126TIP3    H160793   0.413   5.893   3.050  0.0214 -1.0762  1.0724
13126TIP3    H260794   0.560   5.918   3.025 -0.6842  0.2666 -1.9813
13127TIP3   OH260795   2.740   0.675   3.424  0.1457  0.0840 -0.0692
13127TIP3    H160796   2.674   0.743   3.410 -1.4368 -1.0506  1.6840
13127TIP3    H260797   2.818   0.723   3.453 -0.7745  1.1935  0.5917
13128TIP3   OH260798   1.577   4.021  12.744  0.3043 -0.2849  0.6474
13128TIP3    H160799   1.550   3.933  12.771 -2.4316  0.0875 -0.6910
13128TIP3    H260800   1.523   4.080  12.797 -1.4631  0.4923 -1.9017
13129TIP3   OH260801   5.515   5.099   4.410  0.4251 -0.2629 -0.7258
13129TIP3    H160802   5.593   5.128   4.363  0.9840 -0.0395  0.3155
13129TIP3    H260803   5.450   5.167   4.393  0.6266 -0.1728 -1.1460
13130TIP3   OH260804   4.806   6.183  13.633 -0.2859  0.5790 -0.1404
13130TIP3    H160805   4.720   6.149  13.655  0.0249 -0.5330 -0.6295
13130TIP3    H260806   4.848   6.113  13.582  0.8049  1.2024 -0.1203
13131TIP3   OH260807   1.912   1.470  15.865 -0.0789  0.2833  0.0698
13131TIP3    H160808   1.854   1.533  15.908 -0.8592 -0.1435 -0.3495
13131TIP3    H260809   1.919   1.398  15.927 -1.0765 -0.2613 -0.4403
13132TIP3   OH260810   5.221   4.384   3.780 -0.1913  0.7736 -0.0899
13132TIP3    H160811   5.126   4.395   3.791 -0.5900 -0.1555 -2.2374
13132TIP3    H260812   5.245   4.451   3.715  0.5241  0.6327  0.0276
13133TIP3   OH260813   2.847   5.511  10.640  0.1083 -0.0363 -0.4552
13133TIP3    H160814   2.789   5.563  10.584  1.3403  0.3012 -1.4342
13133TIP3    H260815   2.802   5.510  10.725 -1.1166  0.5848 -1.0691
13134TIP3   OH260816   5.558   5.899   3.952 -0.2009 -0.5932  0.5996
13134TIP3    H160817   5.582   5.984   3.989 -0.3831 -0.1586 -0.2821
13134TIP3    H260818   5.493   5.919   3.885 -0.1437 -1.4153  0.2932
13135TIP3   OH260819   5.612   4.539   5.001  0.0255  0.1671  0.0193
13135TIP3    H160820   5.685   4.499   4.954 -0.8004  0.7039 -1.7445
13135TIP3    H260821   5.605   4.487   5.082 -0.0899 -2.3677 -1.5405
13136TIP3   OH260822   3.352   5.990   2.824 -0.5178 -0.0409  0.0326
13136TIP3    H160823   3.290   5.972   2.895 -1.6298 -1.0946 -1.1799
13136TIP3    H260824   3.435   5.956   2.857 -0.7844  0.4981  1.2834
13137TIP3   OH260825   3.550   4.511  13.948 -0.1764 -0.0853 -0.6556
13137TIP3    H160826   3.512   4.562  13.876 -0.2967 -1.2628 -1.4543
13137TIP3    H260827   3.595   4.575  14.002 -1.0047  0.9730 -1.1993
13138TIP3   OH260828   0.407   4.659   2.939  0.5187 -0.4508  0.0170
13138TIP3    H160829   0.332   4.644   2.997  0.4620 -0.6846 -0.1194
13138TIP3    H260830   0.397   4.751   2.912 -0.1089 -0.6750 -0.5521
13139TIP3   OH260831   4.562   2.153   3.695 -0.2624 -0.1553 -0.1720
13139TIP3    H160832   4.469   2.166   3.680 -0.3103  0.6088  0.7413
13139TIP3    H260833   4.573   2.058   3.698 -0.7462 -0.2781 -1.8360
13140TIP3   OH260834   4.051   0.841  10.632 -0.3359  0.0019  0.6876
13140TIP3    H160835   3.959   0.830  10.606  0.7793 -1.8576 -2.8511
13140TIP3    H260836   4.070   0.765  10.686 -0.3508 -0.6719 -0.2478
13141TIP3   OH260837   2.654   3.103  16.894 -0.1068  0.6046  0.0997
13141TIP3    H160838   2.678   3.011  16.901 -2.2654 -0.0445 -0.7646
13141TIP3    H260839   2.562   3.106  16.919 -0.4664  2.2995 -1.3479
13142TIP3   OH260840   3.641   1.304  12.696  0.0444  0.2589 -0.4870
13142TIP3    H160841   3.658   1.243  12.768  2.3062  1.0977 -0.2404
13142TIP3    H260842   3.728   1.337  12.673 -0.8613  1.3765 -2.3970
13143TIP3   OH260843   5.410   2.147   0.214 -0.0384  0.5120  0.2417
13143TIP3    H160844   5.384   2.073   0.269 -0.9493  0.0628 -0.7866
13143TIP3    H260845   5.506   2.147   0.218 -0.0417 -0.4961  0.5423
13144TIP3   OH260846   6.621   3.982  12.489 -0.2988  0.4411 -0.4071
13144TIP3    H160847   6.688   4.049  12.485 -0.1653  0.5023  2.3042
13144TIP3    H260848   6.669   3.900  12.505 -0.6887  0.1252 -0.8274
13145TIP3   OH260849   3.009   1.354  14.586  0.1730 -0.0370  0.2884
13145TIP3    H160850   2.930   1.365  14.638 -0.8849  0.8998 -1.4936
13145TIP3    H260851   3.021   1.438  14.542  1.3943 -0.6197 -0.5289
13146TIP3   OH260852   5.393   0.544  15.599 -0.6242  0.0930 -0.4777
13146TIP3    H160853   5.305   0.554  15.635 -0.6088  0.0685 -0.4335
13146TIP3    H260854   5.399   0.452  15.572 -0.6790  0.1414 -0.6550
13147TIP3   OH260855   5.214   1.773   5.040 -0.3022  0.1176 -0.1730
13147TIP3    H160856   5.164   1.843   5.083  0.9343 -0.5774  2.4748
13147TIP3    H260857   5.157   1.696   5.046  0.2149 -0.1808  1.0035
13148TIP3   OH260858   5.819   5.517  13.973 -0.0399 -0.4391 -0.5501
13148TIP3    H160859   5.823   5.611  13.955 -0.8570 -0.4399 -0.7385
13148TIP3    H260860   5.726   5.498  13.985 -0.0751 -1.5912 -2.5056
13149TIP3   OH260861   3.367   0.604   4.161 -0.5714 -0.5182 -0.3805
13149TIP3    H160862   3.378   0.694   4.131 -0.7050 -0.6398 -0.8009
13149TIP3    H260863   3.272   0.591   4.163 -0.5919 -0.1549  1.1730
13150TIP3   OH260864   0.821   0.498  10.861  0.0154  0.0324 -0.4531
13150TIP3    H160865   0.791   0.439  10.792 -0.7183  0.7834 -0.7816
13150TIP3    H260866   0.746   0.507  10.919  0.1281  0.6473 -0.4052
13151TIP3   OH260867   0.565   5.811   3.956 -0.1810 -0.3580  0.3462
13151TIP3    H160868   0.600   5.751   3.891  0.9922  0.3518  0.3047
13151TIP3    H260869   0.479   5.775   3.978  0.1037 -1.5102 -0.3721
13152TIP3   OH260870   3.195   6.696   5.365  0.7058 -0.4518  0.1023
13152TIP3    H160871   3.196   6.780   5.317  1.1430 -1.1220 -1.0943
13152TIP3    H260872   3.187   6.630   5.296  0.1385 -1.3868  1.0607
13153TIP3   OH260873   2.601   3.561  12.467  0.6542  0.6731  0.3040
13153TIP3    H160874   2.640   3.598  12.388  1.8622  0.5786  0.8604
13153TIP3    H260875   2.616   3.627  12.535  0.4048  0.3605  0.6652
13154TIP3   OH260876   2.419   6.034  14.708  0.1857  0.6253 -0.2677
13154TIP3    H160877   2.393   6.086  14.784 -2.7622  0.2186 -0.9164
13154TIP3    H260878   2.358   5.960  14.708  1.3261 -0.3440 -2.0079
13155TIP3   OH260879   6.288   2.931   1.244 -0.8872  0.0358  0.0338
13155TIP3    H160880   6.210   2.918   1.298 -1.6041 -0.4904 -1.1181
13155TIP3    H260881   6.309   2.844   1.210 -0.9311  0.5023 -1.2012
13156TIP3   OH260882   2.127   1.211   4.075  1.2367 -0.3674 -0.3408
13156TIP3    H160883   2.188   1.138   4.070  3.0832  1.1217  0.1418
13156TIP3    H260884   2.116   1.229   4.168 -0.5591 -1.1202 -0.3865
13157TIP3   OH260885   0.885   0.734  14.178 -0.0282 -0.3086  0.0923
13157TIP3    H160886   0.954   0.776  14.128  0.1095 -0.6624 -0.0193
13157TIP3    H260887   0.927   0.656  14.215 -0.5642 -0.9532 -0.6285
13158TIP3   OH260888   0.780   1.806   0.620 -0.8410 -0.8570 -0.3915
13158TIP3    H160889   0.711   1.817   0.686 -1.3843  1.5405 -1.2725
13158TIP3    H260890   0.733   1.809   0.536  0.2628  0.3876 -0.9929
13159TIP3   OH260891   4.012   4.194   2.738  0.1192  0.3218  0.0977
13159TIP3    H160892   4.002   4.142   2.818 -1.0678  0.1410 -0.1673
13159TIP3    H260893   3.951   4.267   2.749  0.6056  0.7849 -0.2550
13160TIP3   OH260894   0.664   6.703  16.920 -0.1102  0.3003  0.0736
13160TIP3    H160895   0.621   6.752  16.990  1.0203 -0.7390  1.5264
13160TIP3    H260896   0.592   6.670  16.866 -0.9192  2.4735 -0.1988
13161TIP3   OH260897   2.459   5.667  14.002  0.4817  0.2119  0.1951
13161TIP3    H160898   2.450   5.602  14.072 -0.4133  1.2403  1.0688
13161TIP3    H260899   2.427   5.622  13.923  0.7234 -0.6966  0.6086
13162TIP3   OH260900   1.479   0.617   2.989  0.7379 -0.3291 -0.3964
13162TIP3    H160901   1.521   0.646   2.908  2.5412  0.1972  0.6978
13162TIP3    H260902   1.550   0.616   3.054 -0.3350 -2.2753  0.8024
13163TIP3   OH260903   5.479   4.395  16.955  0.3651 -0.6647 -0.4413
13163TIP3    H160904   5.532   4.325  16.915  1.4338 -0.3973  0.4561
13163TIP3    H260905   5.457   4.361  17.042 -0.8414 -0.7151 -0.7638
13164TIP3   OH260906   2.623   0.366   1.817 -0.4136 -0.0259 -0.0786
13164TIP3    H160907   2.574   0.286   1.834 -0.0039 -0.1557  0.5381
13164TIP3    H260908   2.582   0.432   1.872  0.4738 -0.2797  0.9175
13165TIP3   OH260909   5.918   3.137  10.930 -0.5886 -0.2135  0.5557
13165TIP3    H160910   5.922   3.216  10.876 -0.4563  0.7659  1.9897
13165TIP3    H260911   5.825   3.118  10.939 -0.6631  0.5623  1.3615
13166TIP3   OH260912   5.242   4.311   4.828 -0.1381 -0.5773 -0.1219
13166TIP3    H160913   5.219   4.230   4.874  0.0180 -0.3022  0.4371
13166TIP3    H260914   5.337   4.316   4.835 -0.1105 -0.5479 -0.4976
13167TIP3   OH260915   2.197   3.038  13.427  0.2882 -0.0776  0.2017
13167TIP3    H160916   2.224   3.114  13.375  0.2860  0.4988  1.0261
13167TIP3    H260917   2.124   3.070  13.480  0.1355 -0.7244  0.3862
13168TIP3   OH260918   3.040   6.151  13.619  0.0478 -0.2641  0.5162
13168TIP3    H160919   3.003   6.074  13.661  0.2583 -0.3862  0.4815
13168TIP3    H260920   2.979   6.172  13.549 -0.0045 -0.4072  0.5179
13169TIP3   OH260921   1.629   3.584   6.402  0.4477  0.2888  1.1625
13169TIP3    H160922   1.566   3.603   6.472 -0.6543  0.2330  0.1887
13169TIP3    H260923   1.679   3.509   6.435  0.3203  0.6192  2.1356
13170TIP3   OH260924   0.734   3.064   5.557 -0.1459 -0.0413 -0.4805
13170TIP3    H160925   0.652   3.030   5.520  0.0189 -0.4891 -0.4411
13170TIP3    H260926   0.708   3.113   5.634 -0.4313  0.3103 -0.8012
13171TIP3   OH260927   5.048   3.802  12.677 -0.3570 -0.1863 -0.1622
13171TIP3    H160928   5.106   3.733  12.646 -0.5337 -0.5622  0.3342
13171TIP3    H260929   4.970   3.755  12.708 -0.7507  0.2827 -0.4457
13172TIP3   OH260930   2.569   5.508  12.995  0.1525  0.3956  0.3591
13172TIP3    H160931   2.654   5.482  13.030  0.6151  1.7772  0.2881
13172TIP3    H260932   2.567   5.603  13.004 -1.0462  0.4601 -0.4117
13173TIP3   OH260933   4.726   5.472  17.217 -0.0222 -0.0008  0.2525
13173TIP3    H160934   4.783   5.395  17.207  0.3692  0.3865 -0.5902
13173TIP3    H260935   4.659   5.444  17.279 -0.0991 -1.1615 -0.3261
13174TIP3   OH260936   1.609   3.370   1.896 -0.3475 -0.0462 -0.3281
13174TIP3    H160937   1.623   3.308   1.967  0.3669 -0.2031 -0.5995
13174TIP3    H260938   1.555   3.439   1.934 -0.0922 -0.2017  0.3224
13175TIP3   OH260939   6.501   1.315   3.511 -0.4778 -0.9049  0.4643
13175TIP3    H160940   6.457   1.392   3.548 -0.8684 -1.1877  0.5982
13175TIP3    H260941   6.576   1.301   3.568 -1.6462 -1.9533  1.7900
13176TIP3   OH260942   2.753   5.012   1.221  1.2048 -0.6111  0.6470
13176TIP3    H160943   2.673   4.988   1.174  0.8262 -1.9516  1.9455
13176TIP3    H260944   2.824   4.988   1.161  0.6786 -0.2257 -0.1486
13177TIP3   OH260945   4.189   0.677   2.860  0.5796 -0.1609 -0.5468
13177TIP3    H160946   4.192   0.587   2.893  0.1053  0.3874  1.0234
13177TIP3    H260947   4.273   0.689   2.816  1.8549 -0.4602  1.7274
13178TIP3   OH260948   2.885   2.903  13.243  0.1216  0.0708  0.1856
13178TIP3    H160949   2.862   2.980  13.191 -0.6611  0.2493  0.7904
13178TIP3    H260950   2.831   2.910  13.322  0.9972 -0.4160  0.8387
13179TIP3   OH260951   6.077   0.532  12.583  0.8866  0.3157  0.0442
13179TIP3    H160952   6.044   0.443  12.568  2.3101 -0.0444 -1.0676
13179TIP3    H260953   6.055   0.579  12.503 -0.6812  1.2393  0.9960
13180TIP3   OH260954   2.202   5.945   0.758 -0.1942 -0.6215  0.0697
13180TIP3    H160955   2.130   5.997   0.795 -0.1601  0.1137 -0.8924
13180TIP3    H260956   2.160   5.865   0.726 -0.4932 -0.4573  0.0518
13181TIP3   OH260957   3.988   3.087  15.153  0.2343  0.0131  0.3289
13181TIP3    H160958   3.924   3.051  15.215 -0.1124 -0.1716 -0.1381
13181TIP3    H260959   4.049   3.135  15.209 -0.8991  1.0751  0.6804
13182TIP3   OH260960   2.631   5.688   3.984  0.0654  0.4552 -0.5875
13182TIP3    H160961   2.631   5.596   3.957  1.6895  0.4842 -0.7539
13182TIP3    H260962   2.668   5.734   3.909  0.7572  1.0388  0.1009
13183TIP3   OH260963   2.638   3.404   1.826 -0.3645 -0.0089  0.4215
13183TIP3    H160964   2.694   3.463   1.776 -1.2637  0.9223  0.5085
13183TIP3    H260965   2.670   3.317   1.804 -0.7724  0.3817 -1.8165
13184TIP3   OH260966   4.635   1.068   4.439  0.0966  0.2261 -0.3153
13184TIP3    H160967   4.724   1.074   4.404  0.5425  0.3197  0.7992
13184TIP3    H260968   4.623   0.975   4.460 -0.4098  0.0614 -1.3296
13185TIP3   OH260969   5.373   0.326  12.019 -0.3325  0.2893 -0.1812
13185TIP3    H160970   5.331   0.412  12.028  0.1147  0.6233 -1.2018
13185TIP3    H260971   5.463   0.346  11.993  0.2404 -0.4518  1.1759
13186TIP3   OH260972   2.541   4.126  10.369  0.0330  0.6525 -0.1585
13186TIP3    H160973   2.474   4.128  10.438 -1.2160  0.2367 -1.3393
13186TIP3    H260974   2.594   4.204  10.385 -2.3180  2.4425 -0.7543
13187TIP3   OH260975   2.571   1.117   4.922  0.2466  0.3360  0.0993
13187TIP3    H160976   2.580   1.054   4.851 -0.5567  1.4992 -1.0488
13187TIP3    H260977   2.480   1.146   4.917  0.2167  0.5322  1.5239
13188TIP3   OH260978   0.731   5.270  16.406  0.2712  0.2083 -0.4330
13188TIP3    H160979   0.749   5.194  16.461 -0.5899  0.6160  0.4274
13188TIP3    H260980   0.652   5.246  16.358  0.3976  0.2892 -0.6816
13189TIP3   OH260981   1.302   1.880  12.262  0.1068  0.2020  1.0351
13189TIP3    H160982   1.311   1.901  12.169 -0.2164 -0.5418  0.8292
13189TIP3    H260983   1.348   1.950  12.307  0.7972  0.2314  0.2901
13190TIP3   OH260984   5.945   4.213   4.055 -0.0690  0.2207 -0.0997
13190TIP3    H160985   6.023   4.225   4.108  0.9116  2.3937 -1.9264
13190TIP3    H260986   5.912   4.302   4.041 -1.5838 -0.4969 -1.2354
13191TIP3   OH260987   2.792   4.413  15.577  0.3637 -0.2424 -0.3463
13191TIP3    H160988   2.754   4.360  15.648 -0.1069 -0.0437 -0.4453
13191TIP3    H260989   2.818   4.495  15.620 -0.4361  0.0975 -0.5099
13192TIP3   OH260990   6.104   6.009  16.071  0.1251  0.2283 -0.4151
13192TIP3    H160991   6.112   6.087  16.016 -1.8000  0.7383 -0.0107
13192TIP3    H260992   6.059   6.040  16.150 -1.7026 -1.4939 -0.7457
13193TIP3   OH260993   1.747   2.716  11.860  0.1375 -0.3958  0.1189
13193TIP3    H160994   1.795   2.643  11.821 -0.1926  0.3260 -1.7077
13193TIP3    H260995   1.803   2.793  11.845  0.1978 -0.1600  1.4726
13194TIP3   OH260996   4.210   6.389  16.487 -0.6213  0.3067  0.1749
13194TIP3    H160997   4.287   6.362  16.438 -0.8893  1.2459 -0.7939
13194TIP3    H260998   4.213   6.339  16.568 -1.4099 -3.0015 -1.7675
13195TIP3   OH260999   3.378   5.622   2.425 -0.0311 -0.4874 -0.6203
13195TIP3    H161000   3.380   5.533   2.389 -1.7433 -0.4806 -0.7693
13195TIP3    H261001   3.404   5.612   2.516  1.5993 -0.8882 -1.1222
13196TIP3   OH261002   3.884   1.934   2.578  0.0362  0.4453  0.0232
13196TIP3    H161003   3.931   1.887   2.647  0.5123  1.1586  0.1867
13196TIP3    H261004   3.926   1.907   2.496 -2.0575 -2.2396 -0.2180
13197TIP3   OH261005   5.253   0.447   0.723 -0.2059 -0.1148 -0.5137
13197TIP3    H161006   5.253   0.409   0.635  0.7469  0.8650 -0.9313
13197TIP3    H261007   5.326   0.405   0.768 -1.3631 -1.4427  0.1851
13198TIP3   OH261008   1.722   0.859  13.957 -0.6285 -0.0631  0.1425
13198TIP3    H161009   1.681   0.837  13.873  0.0462 -1.5236  0.1828
13198TIP3    H261010   1.750   0.950  13.947 -1.8091  0.2185 -0.7097
13199TIP3   OH261011   0.682   5.310  15.173  0.1924  0.3164 -0.1685
13199TIP3    H161012   0.735   5.300  15.094 -0.0852  0.2845 -0.3514
13199TIP3    H261013   0.635   5.392  15.160 -1.1147 -0.5233 -0.7768
13200TIP3   OH261014   4.519   4.863   6.125  0.5863  0.6595  0.0838
13200TIP3    H161015   4.458   4.892   6.058 -1.1202 -0.2044  1.2167
13200TIP3    H261016   4.595   4.921   6.117  0.3856  0.5788 -2.5354
13201TIP3   OH261017   2.644   1.259   6.037 -0.1407  0.4692  0.2163
13201TIP3    H161018   2.645   1.179   6.089  0.0024 -1.4346 -2.5953
13201TIP3    H261019   2.730   1.299   6.053  0.0108 -0.2303  1.1893
13202TIP3   OH261020   0.172   2.873   2.547 -0.0063 -0.3645 -0.1778
13202TIP3    H161021   0.159   2.824   2.628 -0.3460  0.9717  0.5952
13202TIP3    H261022   0.089   2.919   2.534  0.9533  1.5168  0.1773
13203TIP3   OH261023   4.709   6.424   4.254  0.5582  0.5669  0.1237
13203TIP3    H161024   4.667   6.507   4.277 -0.1528  0.6217 -1.3200
13203TIP3    H261025   4.803   6.441   4.266  0.4056  1.4945  0.0818
13204TIP3   OH261026   5.647   5.644   3.959 -0.1751 -0.1324  0.4852
13204TIP3    H161027   5.719   5.652   4.021  0.0908  0.2752  0.1328
13204TIP3    H261028   5.619   5.735   3.943  0.0592 -0.1972 -0.3313
13205TIP3   OH261029   4.916   1.285  16.884 -0.3833 -0.1631 -0.2242
13205TIP3    H161030   4.839   1.341  16.878  1.1049  1.9505  0.1160
13205TIP3    H261031   4.926   1.268  16.978  0.4745  0.8601 -0.1277
13206TIP3   OH261032   1.381   3.810  11.491  0.2116 -0.4995 -0.6127
13206TIP3    H161033   1.469   3.848  11.490 -0.7715  1.9082  0.4389
13206TIP3    H261034   1.335   3.860  11.558 -1.6975 -2.3684 -0.5045
13207TIP3   OH261035   2.797   3.098  11.912  0.1102  0.2618 -0.1239
13207TIP3    H161036   2.718   3.045  11.926 -1.2084  2.3614  0.7431
13207TIP3    H261037   2.774   3.156  11.839  0.8821  0.7925  0.0436
13208TIP3   OH261038   5.817   1.967  13.399  0.6317 -0.5586 -0.6174
13208TIP3    H161039   5.909   1.953  13.375  0.9679 -0.4763  0.5792
13208TIP3    H261040   5.806   1.916  13.479 -0.2087 -0.0602 -0.4198
13209TIP3   OH261041   5.818   5.721  15.084  0.4333 -0.8241  0.4052
13209TIP3    H161042   5.736   5.764  15.059 -0.1044 -1.1918  1.4614
13209TIP3    H261043   5.861   5.700  15.002 -0.9868 -1.4531 -0.1984
13210TIP3   OH261044   6.525   6.285  11.474 -0.3201 -0.3228 -0.8065
13210TIP3    H161045   6.526   6.377  11.449  1.0146 -0.8200 -2.6712
13210TIP3    H261046   6.432   6.261  11.471 -0.7364  1.0990  0.2739
13211TIP3   OH261047   1.352   0.722  16.272 -0.0125 -0.0982 -0.0811
13211TIP3    H161048   1.352   0.801  16.218 -1.0817  0.7378  1.1235
13211TIP3    H261049   1.445   0.698  16.278  0.2462  0.5765 -1.1501
13212TIP3   OH261050   4.273   1.948   0.631 -0.3561  0.2625 -0.3225
13212TIP3    H161051   4.268   1.949   0.727  0.5222  0.2170 -0.2745
13212TIP3    H261052   4.349   1.893   0.611  0.9657  2.2905 -0.9797
13213TIP3   OH261053   3.990   2.997  14.906 -0.2443  0.0736 -0.1959
13213TIP3    H161054   3.897   3.015  14.891 -0.3239  0.9446  1.2200
13213TIP3    H261055   4.010   3.042  14.988  1.4615 -0.0185 -0.5471
13214TIP3   OH261056   2.173   0.550   0.378 -0.3099 -0.2683 -0.2681
13214TIP3    H161057   2.116   0.509   0.313 -1.8030  0.0571  0.7950
13214TIP3    H261058   2.144   0.642   0.381  0.2151 -0.1164  0.3493
13215TIP3   OH261059   0.048   2.000  15.351 -0.0683 -0.4309  0.1498
13215TIP3    H161060   0.054   2.018  15.445  0.5283  0.5492 -0.0673
13215TIP3    H261061   0.062   2.085  15.309  1.2642 -1.1245 -0.8625
13216TIP3   OH261062   0.445   1.443   1.283  0.1204 -0.0104 -0.4106
13216TIP3    H161063   0.379   1.389   1.325  1.2073  0.2742  1.7502
13216TIP3    H261064   0.421   1.533   1.306  1.0352  0.1166  0.0913
13217TIP3   OH261065   4.040   0.885  15.963 -0.2878 -0.2517  0.0031
13217TIP3    H161066   4.091   0.939  16.023 -1.4445  0.6112  0.2162
13217TIP3    H261067   3.968   0.851  16.016 -1.5585  0.8628 -0.9841
13218TIP3   OH261068   2.909   5.912  14.454 -0.0256 -0.1592 -0.0652
13218TIP3    H161069   2.819   5.884  14.474 -0.5549  1.4121 -0.1589
13218TIP3    H261070   2.962   5.870  14.521 -0.8690 -0.8053  0.2221
13219TIP3   OH261071   4.736   0.647   0.393  0.0376  0.1845  0.0866
13219TIP3    H161072   4.703   0.639   0.303  0.2058 -1.1477  0.1268
13219TIP3    H261073   4.663   0.684   0.442 -0.4195 -0.0700 -0.3957
13220TIP3   OH261074   4.806   0.621   2.736  0.0399 -0.1239 -0.0620
13220TIP3    H161075   4.818   0.563   2.661 -0.6033  0.2290 -0.4404
13220TIP3    H261076   4.719   0.600   2.770 -0.3192  0.8084 -0.3774
13221TIP3   OH261077   6.178   4.624   2.806 -0.1026  0.0793  0.0931
13221TIP3    H161078   6.258   4.594   2.763 -0.1941  0.7576 -0.5756
13221TIP3    H261079   6.151   4.551   2.862 -0.7076 -1.3360 -1.9909
13222TIP3   OH261080   0.022   4.202   2.713  0.4396 -0.5223 -0.0638
13222TIP3    H161081  -0.027   4.264   2.658 -0.7511  0.3538  1.9004
13222TIP3    H261082  -0.011   4.116   2.688 -1.6337  0.0027  0.6854
13223TIP3   OH261083   4.270   1.247   0.233 -0.7835  0.5427 -0.0263
13223TIP3    H161084   4.261   1.341   0.224 -2.0237  0.6999  2.4299
13223TIP3    H261085   4.194   1.220   0.285 -0.7042 -1.8739 -1.1038
13224TIP3   OH261086   3.564   0.722   5.406 -0.0839 -0.8603  0.0763
13224TIP3    H161087   3.609   0.660   5.463 -0.5526 -0.3609  1.0087
13224TIP3    H261088   3.501   0.668   5.357  2.0167 -1.6752 -1.7994
13225TIP3   OH261089   3.143   2.671  11.007 -0.2068 -0.8424  0.0464
13225TIP3    H161090   3.141   2.591  10.954 -1.6761 -0.9104  0.1730
13225TIP3    H261091   3.212   2.724  10.969  0.3856 -1.9253 -0.4153
13226TIP3   OH261092   0.652   0.405   1.698 -0.1626 -0.3172 -0.1153
13226TIP3    H161093   0.606   0.444   1.624 -0.3325  1.1134  0.7369
13226TIP3    H261094   0.744   0.429   1.685 -0.3433  0.8595  0.6969
13227TIP3   OH261095   5.802   4.466   0.977  0.3588  0.4095 -0.1982
13227TIP3    H161096   5.815   4.516   0.896 -2.2897  2.8697  0.8092
13227TIP3    H261097   5.868   4.500   1.037 -0.2800  1.4676 -0.0812
13228TIP3   OH261098   5.798   6.752   4.500 -0.3197  0.1239  0.1011
13228TIP3    H161099   5.779   6.710   4.584  0.3530  0.9390  0.6784
13228TIP3    H261100   5.712   6.775   4.464 -0.5975  0.1007  0.7417
13229TIP3   OH261101   0.668   1.580   3.162 -0.1542 -0.5081  0.5444
13229TIP3    H161102   0.665   1.485   3.174 -0.1525 -0.4871  0.7221
13229TIP3    H261103   0.760   1.604   3.177 -0.8919  0.0689  4.9777
13230TIP3   OH261104   0.949   3.882   1.693 -0.5983 -0.7343  0.6508
13230TIP3    H161105   0.924   3.880   1.785  1.5756 -1.8896  1.2441
13230TIP3    H261106   1.024   3.824   1.687  1.2321  1.7290 -1.2636
13231TIP3   OH261107   3.378   2.970   0.082 -0.3508 -0.2432  0.1850
13231TIP3    H161108   3.427   2.892   0.109  1.3091  0.6437 -0.2163
13231TIP3    H261109   3.313   2.936   0.020  1.3544 -1.1178 -1.1637
13232TIP3   OH261110   5.234   5.262   5.961  0.1867 -0.5645 -0.0489
13232TIP3    H161111   5.272   5.247   6.048  0.0461  0.8116  0.2578
13232TIP3    H261112   5.309   5.268   5.903  0.2929 -1.2319  0.0190
13233TIP3   OH261113   0.985   6.724  17.009  0.4444 -0.3321  0.5935
13233TIP3    H161114   0.937   6.801  16.978 -0.4630 -2.0053 -2.3467
13233TIP3    H261115   0.925   6.682  17.071  0.7604  1.0156  1.8582
13234TIP3   OH261116   1.249   5.099  13.764  0.0394 -0.0013  0.1255
13234TIP3    H161117   1.298   5.082  13.844  0.2512  1.9053  0.4288
13234TIP3    H261118   1.157   5.094  13.791  0.1069 -0.3069  0.2907
13235TIP3   OH261119   0.618   4.569   1.747  0.2401  0.1016 -0.6076
13235TIP3    H161120   0.554   4.581   1.818  2.1069 -0.7029  1.2643
13235TIP3    H261121   0.600   4.482   1.713  0.9065 -0.4992  0.5384
13236TIP3   OH261122   1.103   1.655   2.810  0.1650  0.1312  0.1042
13236TIP3    H161123   1.031   1.600   2.840  0.5787 -0.5138 -0.0938
13236TIP3    H261124   1.108   1.725   2.876 -0.8328  0.3479 -0.0480
13237TIP3   OH261125   2.439   3.651  11.841  0.5191  0.0061  0.5184
13237TIP3    H161126   2.389   3.634  11.921  2.2695  0.8236  1.7990
13237TIP3    H261127   2.372   3.653  11.772 -1.1513  0.4486  2.1084
13238TIP3   OH261128   4.310   4.552   1.860 -0.0136 -0.1659 -0.4765
13238TIP3    H161129   4.386   4.608   1.844  0.9403 -0.9387  1.1649
13238TIP3    H261130   4.311   4.538   1.955 -2.0626 -0.4057 -0.4773
13239TIP3   OH261131   1.829   0.279  13.737  0.2673  0.0827 -0.2234
13239TIP3    H161132   1.910   0.245  13.700  0.7083  0.6820  0.1845
13239TIP3    H261133   1.836   0.374  13.728 -0.1235  0.1696  0.3413
13240TIP3   OH261134   1.907   2.386  13.469 -0.3696  0.5162  0.1879
13240TIP3    H161135   1.963   2.462  13.484  0.2797 -0.2604  1.8739
13240TIP3    H261136   1.841   2.416  13.407  0.2449  2.2789  0.3735
13241TIP3   OH261137   5.763   4.610   5.748 -0.0653 -0.1333 -0.5317
13241TIP3    H161138   5.853   4.636   5.765 -0.0203  0.8288 -2.0918
13241TIP3    H261139   5.711   4.654   5.816  0.6983 -1.2563  0.7938
13242TIP3   OH261140   4.318   3.997  14.833 -0.0687 -0.6292 -0.9655
13242TIP3    H161141   4.340   4.083  14.799 -0.2960 -0.9987 -2.0644
13242TIP3    H261142   4.302   3.943  14.755 -2.1993 -1.0593 -0.2717
13243TIP3   OH261143   5.457   4.920  16.496  0.0299  0.0529  0.7526
13243TIP3    H161144   5.429   4.882  16.579  0.3348 -2.1045 -0.0981
13243TIP3    H261145   5.385   4.902  16.435  1.2944 -1.5622 -0.3133
13244TIP3   OH261146   6.348   0.318   0.748  0.5420  0.5208  0.2117
13244TIP3    H161147   6.285   0.246   0.757 -0.2062  1.1478  0.0298
13244TIP3    H261148   6.414   0.300   0.816  0.5477 -0.5209 -0.0578
13245TIP3   OH261149   4.394   2.812   0.918  0.3689 -0.3713 -0.4605
13245TIP3    H161150   4.412   2.903   0.895  0.5440 -0.4528 -0.6432
13245TIP3    H261151   4.325   2.818   0.985  1.5963 -0.0290  0.7912
13246TIP3   OH261152   4.786   6.086   0.401 -0.4193  0.2609  0.5703
13246TIP3    H161153   4.716   6.059   0.342 -0.8294  1.4326  0.5028
13246TIP3    H261154   4.759   6.172   0.432  1.4306  1.1031 -0.1224
13247TIP3   OH261155   3.084   6.474  16.914 -0.3565  0.1595  0.1615
13247TIP3    H161156   3.107   6.559  16.877  1.1806 -0.0988  0.4993
13247TIP3    H261157   3.076   6.417  16.837  0.8691  0.0857  0.0757
13248TIP3   OH261158   4.789   4.708  11.761 -0.5009 -0.6987 -0.2828
13248TIP3    H161159   4.873   4.705  11.807 -0.8071 -0.4836  0.2970
13248TIP3    H261160   4.730   4.656  11.816 -1.4053  1.2781  0.6996
13249TIP3   OH261161   0.814   5.877  15.089  0.0338 -0.0506  0.3225
13249TIP3    H161162   0.863   5.821  15.150  2.7183  0.6234 -1.1481
13249TIP3    H261163   0.842   5.848  15.002 -0.5545  1.8165 -0.4999
13250TIP3   OH261164   4.232   1.063   2.382 -0.0185 -0.2810  0.4167
13250TIP3    H161165   4.167   0.993   2.387 -0.1776 -0.2122 -0.6000
13250TIP3    H261166   4.245   1.089   2.473  2.2850 -3.6675  1.1698
13251TIP3   OH261167   1.295   3.956   3.043  0.6274  0.0416  0.2966
13251TIP3    H161168   1.256   3.895   3.106  1.2665  1.2498  1.8724
13251TIP3    H261169   1.228   3.966   2.975 -0.7912  0.1236  1.6879
13252TIP3   OH261170   3.869   1.833  13.256 -0.3687  0.6001 -0.4295
13252TIP3    H161171   3.814   1.803  13.183  2.5604 -0.1895 -2.3741
13252TIP3    H261172   3.955   1.796  13.238  1.2765  3.2730  1.6266
13253TIP3   OH261173   4.445   3.971   0.084  0.3334  0.8189  0.4272
13253TIP3    H161174   4.497   4.033   0.137  2.6514  0.3304 -1.1804
13253TIP3    H261175   4.510   3.908   0.051 -1.2081  0.5156 -2.1395
13254TIP3   OH261176   1.150   3.026  15.988  0.4607  0.1303 -0.0016
13254TIP3    H161177   1.205   3.084  16.041 -1.1772  1.0503  0.7150
13254TIP3    H261178   1.169   3.051  15.897  0.1910  1.3917  0.2887
13255TIP3   OH261179   3.191   2.437  12.696 -0.3276  0.2767  0.0936
13255TIP3    H161180   3.185   2.529  12.722  2.1339  0.5016 -0.0771
13255TIP3    H261181   3.134   2.431  12.619 -1.3141  1.4151  0.7081
13256TIP3   OH261182   5.016   3.703   0.116 -1.0177 -0.3652 -0.5702
13256TIP3    H161183   4.938   3.747   0.149  0.7901  1.7993  1.0150
13256TIP3    H261184   5.033   3.745   0.032 -0.4950  0.5320 -0.0268
13257TIP3   OH261185   5.757   4.288  14.641  0.0610  0.2261 -0.1486
13257TIP3    H161186   5.663   4.271  14.633  0.1949  0.3938 -2.1636
13257TIP3    H261187   5.777   4.346  14.568  2.1940 -1.7750 -1.2191
13258TIP3   OH261188   1.082   6.284   6.231 -0.2093  0.1157 -0.1852
13258TIP3    H161189   1.004   6.233   6.251  0.0388 -0.5343 -0.8481
13258TIP3    H261190   1.155   6.226   6.255  0.0689  0.3724 -0.4106
13259TIP3   OH261191   1.883   2.139  16.514 -0.0290 -0.2780  0.2750
13259TIP3    H161192   1.912   2.212  16.568 -3.3644  0.1325  1.6121
13259TIP3    H261193   1.961   2.085  16.501  1.4799  1.2128  2.9564
13260TIP3   OH261194   1.571   1.408  14.967  0.1986 -0.2487  0.2322
13260TIP3    H161195   1.586   1.373  14.879  0.4617  0.8907 -0.1829
13260TIP3    H261196   1.637   1.476  14.977  1.2477 -1.4627  1.9490
13261TIP3   OH261197   1.760   6.694  14.026 -0.0329 -0.4418  0.3954
13261TIP3    H161198   1.831   6.696  14.091 -0.1977 -0.6031  0.5814
13261TIP3    H261199   1.724   6.782  14.027  1.5294  0.2506 -1.2226
13262TIP3   OH261200   4.635   1.707  13.064  0.3980 -0.4341  0.2171
13262TIP3    H161201   4.579   1.751  13.128  2.9346  1.8002  0.9467
13262TIP3    H261202   4.623   1.757  12.983  1.4362  0.1225  0.4082
13263TIP3   OH261203   0.299   0.164  17.076 -0.2959  0.6417  0.5180
13263TIP3    H161204   0.310   0.090  17.136 -0.4713  1.1570  1.1880
13263TIP3    H261205   0.382   0.168  17.029 -0.3659 -0.1222  0.3083
13264TIP3   OH261206   0.492   1.340  12.996 -0.4843  0.4066 -0.1322
13264TIP3    H161207   0.539   1.411  12.952 -2.2731  2.7285  1.6183
13264TIP3    H261208   0.467   1.281  12.925  0.1937  2.0133 -1.7551
13265TIP3   OH261209   1.405   1.632  14.676 -0.2102  0.8610 -0.3764
13265TIP3    H161210   1.337   1.653  14.741  0.3584  3.1172 -0.4736
13265TIP3    H261211   1.476   1.694  14.695  1.8546 -1.4451 -0.2778
13266TIP3   OH261212   3.788   2.205  12.619 -0.3572  0.3474 -0.1103
13266TIP3    H161213   3.814   2.113  12.627  0.6337  0.5066 -1.3631
13266TIP3    H261214   3.828   2.247  12.696 -0.6696 -0.2268  0.3732
13267TIP3   OH261215   0.441   1.828  14.151 -0.5988 -0.1844  0.2951
13267TIP3    H161216   0.369   1.790  14.101 -1.1862 -1.3904  2.0204
13267TIP3    H261217   0.417   1.920  14.161 -0.2885  0.1587 -1.9195
13268TIP3   OH261218   1.219   4.234  15.113  0.2787 -0.0279  0.3886
13268TIP3    H161219   1.178   4.296  15.053 -2.9335 -2.2345  0.1602
13268TIP3    H261220   1.151   4.215  15.177  1.1783 -3.2512  0.4596
13269TIP3   OH261221   6.654   4.218  15.464 -0.4667  0.7388 -0.2941
13269TIP3    H161222   6.690   4.289  15.411  1.2813  0.9548  1.1546
13269TIP3    H261223   6.608   4.163  15.401 -1.3986  2.8424 -1.5293
13270TIP3   OH261224   4.836   0.037   1.072  1.0308  0.6764  0.2576
13270TIP3    H161225   4.879   0.087   1.142  2.7987 -1.5937  0.8429
13270TIP3    H261226   4.752   0.011   1.109  2.0523 -0.7245  1.6914
13271TIP3   OH261227   1.233   3.612  11.721 -0.3210  0.5184 -0.6193
13271TIP3    H161228   1.272   3.532  11.686 -0.9970  1.0986 -2.7819
13271TIP3    H261229   1.301   3.679  11.710 -0.0063  0.3911  0.5398
13272TIP3   OH261230   0.726   2.590   0.643 -0.6258 -0.3913  0.1652
13272TIP3    H161231   0.747   2.522   0.707  2.1371  0.2728  0.0229
13272TIP3    H261232   0.630   2.591   0.640 -0.7519 -3.9138  0.5396
13273TIP3   OH261233   0.672   5.543   0.978  0.3257 -0.2194 -0.1789
13273TIP3    H161234   0.762   5.512   0.984  0.5946  0.4790 -0.5143
13273TIP3    H261235   0.648   5.566   1.068  0.3412 -0.7794 -0.0292
13274TIP3   OH261236   6.357   3.014  15.055 -0.1218 -0.2689  0.3759
13274TIP3    H161237   6.398   3.079  14.998  1.2487 -1.4139  0.0286
13274TIP3    H261238   6.264   3.016  15.032  0.0141  1.0761 -0.0914
13275TIP3   OH261239   3.972   3.100   3.957 -0.4042  0.0389  0.3014
13275TIP3    H161240   3.879   3.079   3.945 -0.5390  0.2296  1.0122
13275TIP3    H261241   3.978   3.130   4.048  0.8993 -2.9496  1.2499
13276TIP3   OH261242   4.529   5.202  16.171  0.1281 -0.2736  0.2249
13276TIP3    H161243   4.551   5.288  16.206 -1.2799  0.1981 -0.0298
13276TIP3    H261244   4.607   5.175  16.123 -0.0113  1.5676 -1.0800
13277TIP3   OH261245   4.099   0.904  14.915  0.0567  0.3634  0.0088
13277TIP3    H161246   4.166   0.891  14.849 -1.4817 -0.4780 -1.4072
13277TIP3    H261247   4.099   0.999  14.930 -0.0714  0.6612 -1.7391
13278TIP3   OH261248   5.903   4.087  15.570 -0.3214  0.0560 -0.1313
13278TIP3    H161249   5.866   3.999  15.577 -2.1095  0.7890  0.0807
13278TIP3    H261250   5.886   4.113  15.479 -0.8207  0.5907  0.1057
13279TIP3   OH261251   4.558   1.555  10.478 -0.5351  0.4214 -0.4084
13279TIP3    H161252   4.574   1.649  10.466 -0.8597  0.5011 -0.2291
13279TIP3    H261253   4.474   1.551  10.524 -0.6063  0.0364 -0.5728
13280TIP3   OH261254   4.998   2.665  11.299  0.5388  0.0621  0.0574
13280TIP3    H161255   5.074   2.715  11.331  0.1573  0.7550 -0.0936
13280TIP3    H261256   5.020   2.643  11.209  0.7530 -0.1291  0.1564
13281TIP3   OH261257   6.720   4.475  13.828 -0.4083  0.0587 -0.1167
13281TIP3    H161258   6.667   4.399  13.805  1.3565 -0.9935 -0.7890
13281TIP3    H261259   6.760   4.452  13.912 -0.9457  0.8216  0.3568
13282TIP3   OH261260   2.651   4.831  16.116 -0.1602  0.3208 -0.0476
13282TIP3    H161261   2.596   4.753  16.121 -1.4128  1.2113  0.1512
13282TIP3    H261262   2.740   4.796  16.110 -0.7856 -1.1365 -1.1079
13283TIP3   OH261263   0.497   0.351   3.106  0.3286  0.4872 -0.0525
13283TIP3    H161264   0.517   0.315   3.019  0.1833 -0.5301  0.3340
13283TIP3    H261265   0.560   0.422   3.117  4.2620 -3.0025  1.3422
13284TIP3   OH261266   0.934   5.992  16.254  0.4092  0.3732 -0.2585
13284TIP3    H161267   0.886   6.053  16.198  1.1212  0.3100 -0.9440
13284TIP3    H261268   1.026   6.002  16.228  0.7085  0.1060  0.6707
13285TIP3   OH261269   6.726   1.334  15.420 -0.2255  0.7542 -0.1611
13285TIP3    H161270   6.737   1.367  15.510 -1.6150 -0.7921  0.6113
13285TIP3    H261271   6.807   1.359  15.375  0.7876  0.9600  1.7124
13286TIP3   OH261272   0.550   0.199  15.147 -0.2645 -1.3402 -0.7183
13286TIP3    H161273   0.558   0.126  15.209  0.8234 -1.7603 -1.3386
13286TIP3    H261274   0.578   0.162  15.063 -0.0910 -0.3190 -1.1118
13287TIP3   OH261275   3.581   2.633  12.075 -0.0894  0.2262  0.1325
13287TIP3    H161276   3.659   2.584  12.103 -0.1611  0.3425  0.5470
13287TIP3    H261277   3.608   2.677  11.995  0.6120  1.1066  0.8339
13288TIP3   OH261278   5.383   5.856  14.278 -0.1114  0.3944 -0.2222
13288TIP3    H161279   5.450   5.837  14.212 -0.9384 -0.4305 -0.8525
13288TIP3    H261280   5.373   5.773  14.326 -0.0961  0.7523  0.4011
13289TIP3   OH261281   1.102   1.997  11.056  0.3045  0.1631 -0.0140
13289TIP3    H161282   1.169   2.018  10.991 -0.1304  3.1225  0.4588
13289TIP3    H261283   1.151   1.970  11.133  0.9570  2.0554  0.2380
13290TIP3   OH261284   0.618   3.637   1.323  0.3328 -0.1103  0.1091
13290TIP3    H161285   0.645   3.619   1.233 -0.8162 -2.4748  0.2127
13290TIP3    H261286   0.690   3.605   1.377  0.6855  0.6111  0.0712
13291TIP3   OH261287   6.737   6.161  15.343  0.1633  0.7150 -0.3634
13291TIP3    H161288   6.702   6.196  15.425  0.9494  0.9493 -0.1239
13291TIP3    H261289   6.706   6.222  15.276 -0.1868  0.7171 -0.2057
13292TIP3   OH261290   5.364   4.564  13.457  0.0185 -0.1610  0.2938
13292TIP3    H161291   5.393   4.497  13.518 -3.5345 -1.7689  0.3715
13292TIP3    H261292   5.421   4.555  13.381  1.9499 -0.7556  1.7854
13293TIP3   OH261293   1.883   6.634   4.560  0.2596 -0.4871  0.0616
13293TIP3    H161294   1.952   6.631   4.626  0.2839 -0.7456  0.0258
13293TIP3    H261295   1.896   6.718   4.515  0.1602 -0.2539  0.4736
13294TIP3   OH261296   6.033   0.263   3.557  0.4590  0.2169  0.2630
13294TIP3    H161297   6.060   0.209   3.483  0.0528 -0.2022  0.4191
13294TIP3    H261298   6.114   0.303   3.589  0.8660 -0.8692  0.5934
13295TIP3   OH261299   4.594   2.172   1.445  0.5211 -0.1923  0.5982
13295TIP3    H161300   4.614   2.175   1.351  1.0875 -2.1554  0.6315
13295TIP3    H261301   4.678   2.151   1.487  0.1853  0.2726  1.5264
13296TIP3   OH261302   3.128   2.341  13.498  0.3389  0.3957 -0.3221
13296TIP3    H161303   3.039   2.374  13.506  0.3247  0.4754 -0.7943
13296TIP3    H261304   3.169   2.360  13.583 -0.5130 -0.9220  0.3860
13297TIP3   OH261305   0.877   1.210   6.177  0.3949 -0.0521 -0.2161
13297TIP3    H161306   0.936   1.173   6.111  2.1872 -0.3465  1.5094
13297TIP3    H261307   0.919   1.190   6.260 -3.5264 -2.7172  1.2510
13298TIP3   OH261308   6.717   0.359  11.511  0.2717 -0.3699  0.0201
13298TIP3    H161309   6.784   0.295  11.488  0.6624 -0.1159  0.4542
13298TIP3    H261310   6.650   0.308  11.556  1.3798 -0.2092  1.9244
13299TIP3   OH261311   5.280   1.431  11.357  0.0193 -0.5807 -0.5150
13299TIP3    H161312   5.370   1.399  11.356  0.7235  1.3506 -0.7515
13299TIP3    H261313   5.263   1.453  11.449  0.8822  2.0008 -0.9452
13300TIP3   OH261314   3.985   4.431  13.703 -0.0171  0.0383 -0.2610
13300TIP3    H161315   4.059   4.441  13.643  1.2436  0.4772  1.3353
13300TIP3    H261316   3.928   4.506  13.682  0.0986 -0.1524 -1.3181
13301TIP3   OH261317   6.640   4.074  16.075  0.6207  0.7161  0.6545
13301TIP3    H161318   6.619   4.023  15.997  2.0091  0.9840  0.1016
13301TIP3    H261319   6.628   4.012  16.148 -0.0217  0.2776  0.1840
13302TIP3   OH261320   5.161   3.040   3.775 -0.1155  0.1993  0.4730
13302TIP3    H161321   5.191   3.113   3.723 -0.6223  1.7857  2.3485
13302TIP3    H261322   5.134   3.079   3.858 -0.8170 -2.0466  1.3428
13303TIP3   OH261323   1.618   1.706   5.439 -0.4913  0.3460 -0.2144
13303TIP3    H161324   1.620   1.625   5.491 -0.9419  0.9829  0.8237
13303TIP3    H261325   1.524   1.724   5.428 -0.3952  1.2462  0.3969
13304TIP3   OH261326   4.392   2.125   4.673  0.0101  0.0546 -0.5268
13304TIP3    H161327   4.416   2.038   4.641 -0.0117  0.1319 -0.7533
13304TIP3    H261328   4.321   2.153   4.616  0.8085  0.7154 -1.2245
13305TIP3   OH261329   5.233   1.239   1.333  0.2960 -0.0047  0.4734
13305TIP3    H161330   5.293   1.293   1.384  0.2593 -0.7682  1.3446
13305TIP3    H261331   5.146   1.268   1.360  0.2737  0.4490 -0.0841
13306TIP3   OH261332   4.250   2.087  11.133  0.0061 -0.1155  0.3875
13306TIP3    H161333   4.160   2.115  11.150  0.1051  0.8588 -0.6317
13306TIP3    H261334   4.243   1.993  11.117 -0.8736 -0.0017  0.0436
13307TIP3   OH261335   5.422   6.068  16.225 -0.5637 -0.0829  0.0630
13307TIP3    H161336   5.495   6.007  16.232 -1.4074 -1.1247 -0.1264
13307TIP3    H261337   5.370   6.053  16.304  0.4137  1.9919  1.1587
13308TIP3   OH261338   4.675   4.576  13.485 -0.6902 -0.2680  0.5763
13308TIP3    H161339   4.714   4.583  13.572  1.1230 -1.5683 -0.1041
13308TIP3    H261340   4.639   4.487  13.481 -1.6435  0.1174  0.3341
13309TIP3   OH261341   3.860   3.729  15.799 -0.0483  0.2698 -0.0328
13309TIP3    H161342   3.928   3.792  15.776 -0.3229  1.1690  1.5244
13309TIP3    H261343   3.789   3.782  15.835 -1.8134 -0.6117 -2.1232
13310TIP3   OH261344   5.704   4.516   3.437  0.0998 -0.2574  0.1194
13310TIP3    H161345   5.705   4.611   3.445  0.0043 -0.3272  0.9914
13310TIP3    H261346   5.787   4.488   3.475 -0.2648 -0.5824  0.6874
13311TIP3   OH261347   0.052   5.562  15.351  0.2893 -0.1166 -0.2012
13311TIP3    H161348   0.073   5.573  15.444 -0.5406 -1.5330  0.1616
13311TIP3    H261349   0.137   5.550  15.309  0.5439 -1.4993  0.6627
13312TIP3   OH261350   0.523   6.164   0.691  0.3288 -0.2973 -0.6121
13312TIP3    H161351   0.457   6.096   0.703  0.3866 -0.5436 -1.6204
13312TIP3    H261352   0.475   6.246   0.701  0.0634 -0.4822 -0.3644
13313TIP3   OH261353   1.322   6.299   3.715  0.4556  0.0296  0.6588
13313TIP3    H161354   1.261   6.307   3.642 -1.7744  0.0249  2.4607
13313TIP3    H261355   1.347   6.389   3.736  2.9280 -0.0899 -1.5436
13314TIP3   OH261356   1.378   6.167  13.888 -0.5424  0.5536 -0.4757
13314TIP3    H161357   1.377   6.257  13.853 -2.2477  1.5388  2.0438
13314TIP3    H261358   1.319   6.119  13.830 -0.6120  1.3264 -1.0702
13315TIP3   OH261359   3.604   3.637  10.352  0.3361 -0.6061  0.4983
13315TIP3    H161360   3.585   3.725  10.321  2.0169 -0.2344  0.4448
13315TIP3    H261361   3.568   3.634  10.440  1.9513  0.8102  1.2384
13316TIP3   OH261362   3.330   1.686   0.097  0.3230 -0.1784 -0.1187
13316TIP3    H161363   3.395   1.636   0.048  0.2784  1.0142 -1.3914
13316TIP3    H261364   3.380   1.757   0.137 -0.0787  0.3249 -0.5128
13317TIP3   OH261365   1.791   2.573  16.049 -0.1399 -0.4680 -0.0387
13317TIP3    H161366   1.866   2.523  16.081  1.0437  2.1682  1.5212
13317TIP3    H261367   1.715   2.530  16.087  0.8209 -1.3726  0.8820
13318TIP3   OH261368   3.080   0.598  12.328 -0.3353  0.4252 -0.4035
13318TIP3    H161369   2.986   0.589  12.314 -0.5716  1.8721  0.1849
13318TIP3    H261370   3.118   0.519  12.289 -1.8987 -0.8264  0.5436
13319TIP3   OH261371   1.533   6.516   0.580 -0.3200  0.0681  0.3254
13319TIP3    H161372   1.512   6.433   0.622 -0.0454 -0.4520 -0.5457
13319TIP3    H261373   1.577   6.491   0.499 -1.8961  1.0137 -0.8488
13320TIP3   OH261374   5.561   2.711  11.872 -0.1526 -0.5782  0.4471
13320TIP3    H161375   5.557   2.628  11.825 -0.6009 -1.9829  2.8298
13320TIP3    H261376   5.470   2.730  11.895  0.1160 -0.2726  1.2957
13321TIP3   OH261377   6.620   0.740  11.293 -0.3578 -0.0123 -0.2972
13321TIP3    H161378   6.594   0.648  11.298 -1.1012  0.2348  0.6614
13321TIP3    H261379   6.613   0.772  11.383  0.7265  0.7682 -0.4685
13322TIP3   OH261380   3.522   1.563  13.676  0.3514  0.1145 -0.0481
13322TIP3    H161381   3.502   1.523  13.592  0.8464 -1.6357  0.6390
13322TIP3    H261382   3.437   1.577  13.717  0.1466  0.3314 -0.5405
13323TIP3   OH261383   2.525   1.312  16.828  0.6981  0.1533  0.1004
13323TIP3    H161384   2.525   1.226  16.786  0.2994 -0.9163  2.2008
13323TIP3    H261385   2.575   1.368  16.769 -0.5289 -1.0745 -2.1785
13324TIP3   OH261386   2.228   3.707  17.096 -0.0279  0.0154 -0.1058
13324TIP3    H161387   2.208   3.625  17.051 -1.1307  0.5605 -0.6267
13324TIP3    H261388   2.194   3.775  17.038  1.9800  0.9166 -0.2821
13325TIP3   OH261389   5.408   2.692  12.286  0.4134 -0.1115  0.7263
13325TIP3    H161390   5.431   2.608  12.326 -0.1733 -0.9329 -0.6026
13325TIP3    H261391   5.380   2.669  12.197  0.6398  1.5415  0.2130
13326TIP3   OH261392   0.378   2.156  13.484 -0.4407  0.0366  0.3395
13326TIP3    H161393   0.473   2.152  13.492 -0.2446 -0.1907 -1.8942
13326TIP3    H261394   0.346   2.106  13.559  1.2380 -1.2837  0.2097
13327TIP3   OH261395   0.096   6.574  16.067 -0.5166 -0.4758  0.1737
13327TIP3    H161396   0.096   6.559  16.161 -0.5364  1.8601  0.5663
13327TIP3    H261397   0.189   6.577  16.043 -0.5116 -1.0299  0.1096
13328TIP3   OH261398   6.623   3.626   5.236  0.4968  0.1817 -0.2782
13328TIP3    H161399   6.580   3.663   5.313  0.0958 -2.1221  0.6450
13328TIP3    H261400   6.714   3.614   5.263  0.3170 -0.7927 -0.0763
13329TIP3   OH261401   4.830   2.379  16.293  0.2053 -0.7267  0.0147
13329TIP3    H161402   4.852   2.380  16.386  0.7161 -0.5323 -0.1051
13329TIP3    H261403   4.778   2.458  16.280 -0.5324 -1.1678  0.2923
13330TIP3   OH261404   0.372   4.573  14.785  0.4932 -0.2939 -0.3919
13330TIP3    H161405   0.321   4.641  14.741  1.2862  1.2910  1.0477
13330TIP3    H261406   0.461   4.584  14.749  0.0494 -2.4766 -2.2622
13331TIP3   OH261407   0.282   0.660  13.382 -0.4114 -0.4771 -0.0803
13331TIP3    H161408   0.348   0.626  13.443 -0.3930 -2.6343 -1.2582
13331TIP3    H261409   0.331   0.687  13.305 -0.6209  0.7246  0.1862
13332TIP3   OH261410   1.900   3.675   1.512  0.3255 -0.5039 -0.1394
13332TIP3    H161411   1.873   3.741   1.447 -0.7300 -0.0545  0.7252
13332TIP3    H261412   1.948   3.725   1.577 -0.2566 -0.6276  0.3893
13333TIP3   OH261413   4.324   2.808  16.828  0.1515 -0.2234  0.4759
13333TIP3    H161414   4.245   2.824  16.777  0.5076  0.8262  0.2494
13333TIP3    H261415   4.394   2.850  16.778  1.1699 -2.7299 -0.3015
13334TIP3   OH261416   5.122   2.178   3.851  0.0065 -0.5026  0.0896
13334TIP3    H161417   5.160   2.138   3.773  0.1733 -0.6028  0.2249
13334TIP3    H261418   5.060   2.113   3.884  0.6056 -0.8331  0.5683
13335TIP3   OH261419   0.166   2.102  14.632 -0.3678  0.5919 -0.2556
13335TIP3    H161420   0.195   2.028  14.578 -1.1540  0.5411 -0.6246
13335TIP3    H261421   0.136   2.061  14.714  2.6907  0.8385  1.0577
13336TIP3   OH261422   5.822   0.779  13.279  0.2578 -0.0032 -0.2218
13336TIP3    H161423   5.900   0.784  13.223 -0.4794  3.0515 -1.0817
13336TIP3    H261424   5.856   0.790  13.368  0.8866  0.6407 -0.5335
13337TIP3   OH261425   1.816   4.616   3.225  0.0570  0.1551  0.1377
13337TIP3    H161426   1.790   4.556   3.155 -1.3509  0.4904  0.3493
13337TIP3    H261427   1.733   4.654   3.256  0.7357  0.6225  1.4312
13338TIP3   OH261428   6.246   6.428   1.558 -0.0990  0.3900  0.7554
13338TIP3    H161429   6.312   6.454   1.493  0.4967 -0.1515  1.1307
13338TIP3    H261430   6.222   6.509   1.602 -0.8939  0.8451 -0.4901
13339TIP3   OH261431   4.796   4.230  13.327 -0.0897 -0.0965 -0.4634
13339TIP3    H161432   4.806   4.154  13.270 -0.4422  0.0494 -0.7168
13339TIP3    H261433   4.866   4.220  13.393  0.1712 -0.3781 -0.7836
13340TIP3   OH261434   0.010   6.418  13.550  0.2860  0.2078 -0.1527
13340TIP3    H161435  -0.027   6.419  13.639  1.3057 -0.1557  0.2759
13340TIP3    H261436  -0.054   6.468  13.498 -1.9257 -2.2337  0.1134
13341TIP3   OH261437   4.484   4.425   1.064  0.2262 -0.1718 -0.1646
13341TIP3    H161438   4.498   4.465   0.978 -0.0282 -0.6108 -0.4080
13341TIP3    H261439   4.522   4.488   1.125 -2.4343  1.6739 -0.3553
13342TIP3   OH261440   6.385   0.352  12.620  0.1019  0.4796 -0.2595
13342TIP3    H161441   6.294   0.354  12.651 -0.2723  0.0437 -1.3103
13342TIP3    H261442   6.430   0.417  12.674 -1.0956  1.5619 -0.5304
13343TIP3   OH261443   3.734   3.675   2.866  0.2092  0.2019 -0.3423
13343TIP3    H161444   3.821   3.698   2.898  0.0320 -0.2254  0.4417
13343TIP3    H261445   3.684   3.757   2.871  0.0606  0.0433  0.8675
13344TIP3   OH261446   0.704   3.238   0.153 -0.0452 -0.2748  0.6787
13344TIP3    H161447   0.662   3.252   0.237  1.6645 -0.9152  1.6576
13344TIP3    H261448   0.797   3.227   0.173  0.0278 -3.3697 -0.9570
13345TIP3   OH261449   4.288   1.835   5.188 -0.4413 -0.1935  0.2925
13345TIP3    H161450   4.329   1.858   5.271 -0.2213  1.7617 -0.3419
13345TIP3    H261451   4.361   1.826   5.127 -0.5712 -2.0054  0.3743
13346TIP3   OH261452   0.387   2.612  10.873  0.1237  0.1063  0.0276
13346TIP3    H161453   0.483   2.617  10.871  0.1386 -0.2802 -0.3942
13346TIP3    H261454   0.368   2.521  10.851 -0.3581  0.3021 -0.3779
13347TIP3   OH261455   3.337   2.694  13.394 -0.0661 -0.0331 -0.1338
13347TIP3    H161456   3.245   2.668  13.389  0.0547  0.0156 -2.8160
13347TIP3    H261457   3.340   2.781  13.355  1.1280 -0.0231 -0.0434
13348TIP3   OH261458   5.496   2.449   3.563  0.3013  1.0981 -0.3436
13348TIP3    H161459   5.448   2.526   3.594 -1.5426 -0.4500  0.7309
13348TIP3    H261460   5.433   2.403   3.507  0.9855 -0.2242 -0.0388
13349TIP3   OH261461   2.636   1.639   3.396 -0.8490 -0.0724  0.9193
13349TIP3    H161462   2.582   1.699   3.344 -1.7143 -0.1093  1.7577
13349TIP3    H261463   2.678   1.582   3.331 -0.8000  0.7904  0.1797
13350TIP3   OH261464   5.651   3.426   5.746  0.2855 -0.1424 -0.4162
13350TIP3    H161465   5.607   3.349   5.782 -0.1534 -0.4342 -1.5436
13350TIP3    H261466   5.735   3.431   5.793 -1.5110  1.2788  2.8439
13351TIP3   OH261467   2.162   1.418   0.371  0.2109  0.4119 -0.4074
13351TIP3    H161468   2.246   1.456   0.348 -0.3344  1.1751 -1.1868
13351TIP3    H261469   2.173   1.386   0.461  0.9718  1.5485 -0.0873
13352TIP3   OH261470   3.193   4.713   5.371 -0.0510 -0.4719  0.1542
13352TIP3    H161471   3.209   4.618   5.363 -2.6399 -1.3059  3.6423
13352TIP3    H261472   3.254   4.741   5.439 -1.0281 -0.1705  0.9199
13353TIP3   OH261473   1.443   1.067  13.992  0.2268  0.1341  0.6331
13353TIP3    H161474   1.453   1.149  14.040 -0.4784 -0.0670  1.1244
13353TIP3    H261475   1.423   1.095  13.902 -1.1103  0.5012  1.0344
13354TIP3   OH261476   0.815   3.803  17.011  0.2723  0.1851  0.7726
13354TIP3    H161477   0.826   3.886  17.058  1.6295  0.5647 -0.1703
13354TIP3    H261478   0.755   3.753  17.066 -0.4035  1.6977  1.4705
13355TIP3   OH261479   5.084   6.590   4.961 -0.7597 -0.1478  0.2882
13355TIP3    H161480   5.179   6.598   4.949 -0.4927 -0.0395  2.3412
13355TIP3    H261481   5.057   6.673   5.001 -1.2210 -1.3251  2.4984
13356TIP3   OH261482   6.440   0.922   5.400 -0.3504  0.3008 -0.1804
13356TIP3    H161483   6.495   0.936   5.477 -0.3022  0.0180 -0.1647
13356TIP3    H261484   6.493   0.953   5.326 -0.5552  0.9588 -0.0571
13357TIP3   OH261485   6.727   4.091  13.486 -0.1593 -0.8898  0.2362
13357TIP3    H161486   6.646   4.085  13.536 -0.5056 -1.4938 -0.3906
13357TIP3    H261487   6.729   4.181  13.454 -0.1430 -0.6221  0.9791
13358TIP3   OH261488   0.134   5.916   1.859  0.1591  0.3665  0.2056
13358TIP3    H161489   0.163   5.827   1.838 -1.3535  0.2611 -1.4965
13358TIP3    H261490   0.039   5.910   1.867  0.0082  1.8844 -0.2515
13359TIP3   OH261491   4.930   2.903   3.653  0.3704  0.2004  0.3335
13359TIP3    H161492   4.997   2.957   3.695  0.6252 -1.3655  1.9719
13359TIP3    H261493   4.970   2.876   3.570  1.2750  0.3187  0.7269
13360TIP3   OH261494   2.402   4.827  13.276  0.7520  0.1806 -0.3840
13360TIP3    H161495   2.414   4.768  13.350  0.7997  0.9970  0.2617
13360TIP3    H261496   2.473   4.803  13.215  0.4889 -0.7318 -0.3388
13361TIP3   OH261497   6.040   1.827  12.502  0.3225 -0.0659  0.2341
13361TIP3    H161498   5.967   1.781  12.543 -0.9282  1.2193 -0.5335
13361TIP3    H261499   6.011   1.917  12.494  1.1165  0.0279 -2.0886
13362TIP3   OH261500   0.273   5.358   4.071  0.3651 -0.0814 -0.2606
13362TIP3    H161501   0.362   5.345   4.039 -0.0362  1.1055 -1.9073
13362TIP3    H261502   0.235   5.270   4.076  1.3052 -0.4997 -0.4720
13363TIP3   OH261503   4.811   5.008   5.041 -0.0611  0.9332  0.0201
13363TIP3    H161504   4.893   5.028   5.086 -0.5676 -0.8994  1.8348
13363TIP3    H261505   4.835   5.001   4.949  2.1097 -0.9534  0.6816
13364TIP3   OH261506   2.226   1.788  13.966 -0.1118 -0.2443 -0.3513
13364TIP3    H161507   2.190   1.876  13.970  2.6178  0.9445 -0.7288
13364TIP3    H261508   2.300   1.789  14.028  0.9860 -1.7473 -1.5879
13365TIP3   OH261509   5.076   0.785  15.413  0.3740  0.0997  0.4004
13365TIP3    H161510   4.998   0.809  15.464 -1.4700 -1.1809 -1.7624
13365TIP3    H261511   5.128   0.865  15.409 -1.7895  1.5139  0.1988
13366TIP3   OH261512   3.608   3.463  12.547  0.2398  0.0116 -0.1723
13366TIP3    H161513   3.701   3.442  12.537 -0.0809 -0.6931 -1.6924
13366TIP3    H261514   3.573   3.461  12.458 -1.3613 -0.2870  0.4563
13367TIP3   OH261515   4.241   5.837   5.264  0.2758 -0.6900  0.1058
13367TIP3    H161516   4.316   5.892   5.286  0.3069 -1.2869  1.5532
13367TIP3    H261517   4.210   5.805   5.349 -2.1224  0.2163 -0.3819
13368TIP3   OH261518   4.415   1.323   5.833 -0.9010  0.2677  0.4326
13368TIP3    H161519   4.489   1.383   5.834  0.7348 -1.5694 -1.9909
13368TIP3    H261520   4.434   1.260   5.902  0.6459 -1.0773 -1.1600
13369TIP3   OH261521   4.040   3.355   2.473  0.5183 -0.0261  0.0025
13369TIP3    H161522   3.987   3.385   2.547 -0.1096 -0.8479 -0.1097
13369TIP3    H261523   4.130   3.352   2.507  0.2824 -0.0565  0.6229
13370TIP3   OH261524   0.172   5.622   1.929  0.1707 -0.3736  0.0040
13370TIP3    H161525   0.097   5.660   1.974  0.1207  0.6151 -0.8789
13370TIP3    H261526   0.218   5.572   1.996 -0.0661  0.8043  1.0727
13371TIP3   OH261527   1.398   6.112  17.020  0.1359 -0.1075 -0.2052
13371TIP3    H161528   1.367   6.191  17.064  0.8309 -0.6453  1.2840
13371TIP3    H261529   1.326   6.087  16.962 -0.8565  0.5343  0.7331
13372TIP3   OH261530   1.372   0.795  13.857 -0.2833 -0.0085  0.2225
13372TIP3    H161531   1.394   0.888  13.870 -0.4020 -0.0332  0.5922
13372TIP3    H261532   1.341   0.765  13.942 -0.1123 -0.4267  0.1411
13373TIP3   OH261533   2.951   6.483   5.981  0.8269  0.1980  0.8227
13373TIP3    H161534   2.901   6.414   6.024  2.3534 -0.4778  1.5475
13373TIP3    H261535   3.010   6.516   6.049  2.4539 -0.0843 -0.4182
13374TIP3   OH261536   0.015   1.681  10.477 -0.2172 -0.1761 -0.3526
13374TIP3    H161537  -0.056   1.742  10.459 -0.6354 -0.5256  0.0893
13374TIP3    H261538  -0.013   1.599  10.435 -0.6284 -0.6465  0.8309
13375TIP3   OH261539   1.440   0.568  16.665  0.1098  0.2933  0.6356
13375TIP3    H161540   1.446   0.663  16.648  4.9842 -0.0309 -0.3114
13375TIP3    H261541   1.414   0.562  16.756  4.1280  2.7438  2.0991
13376TIP3   OH261542   0.166   4.197  13.843 -0.0895 -0.5241  0.7584
13376TIP3    H161543   0.198   4.216  13.755 -0.6714 -1.0892  0.4273
13376TIP3    H261544   0.236   4.147  13.884  1.7281  2.7089  1.8255
13377TIP3   OH261545   1.820   4.619  14.531  0.2218  0.4986  0.3081
13377TIP3    H161546   1.869   4.688  14.576  1.4585  0.3511 -0.7859
13377TIP3    H261547   1.743   4.604  14.586  1.0425  1.2368  1.6797
13378TIP3   OH261548   4.649   1.806   2.211 -0.7375  0.0897  0.5278
13378TIP3    H161549   4.699   1.887   2.215 -1.5947  0.6675 -0.2918
13378TIP3    H261550   4.567   1.826   2.256 -0.9469 -0.3287  0.3342
13379TIP3   OH261551   5.822   3.275   1.790  0.1976  1.1395  0.5759
13379TIP3    H161552   5.765   3.339   1.746 -0.5527  0.9049  1.1927
13379TIP3    H261553   5.837   3.313   1.876  1.3158  1.3919  0.2804
13380TIP3   OH261554   6.320   5.472  10.918 -0.0411 -0.2344 -0.7019
13380TIP3    H161555   6.279   5.498  10.836  3.1440 -1.4281 -2.7946
13380TIP3    H261556   6.317   5.551  10.972 -1.3077  0.8753 -2.3413
13381TIP3   OH261557   6.449   6.049   4.905 -0.0814 -0.1024  0.2581
13381TIP3    H161558   6.361   6.025   4.877 -0.4255  2.2900 -0.7510
13381TIP3    H261559   6.437   6.092   4.989 -0.0609  1.7396 -0.6688
13382TIP3   OH261560   2.713   0.901   0.377  0.0145 -0.6512 -0.1436
13382TIP3    H161561   2.808   0.907   0.382 -0.1399  1.1122  0.9408
13382TIP3    H261562   2.690   0.950   0.298 -0.0360 -0.6746 -0.1436
13383TIP3   OH261563   0.234   0.024   4.651  0.9596 -0.2222 -0.5673
13383TIP3    H161564   0.187   0.092   4.699  1.1453  0.3128 -1.1484
13383TIP3    H261565   0.252  -0.043   4.718 -0.7861 -0.5360 -0.3806
13384TIP3   OH261566   1.439   6.211  16.678  0.2737  0.1985 -0.7226
13384TIP3    H161567   1.410   6.302  16.680  0.6517  0.3055 -0.0412
13384TIP3    H261568   1.453   6.192  16.585  1.2787  1.1791 -0.7823
13385TIP3   OH261569   0.289   3.975   4.618 -0.0196 -0.1307 -0.0937
13385TIP3    H161570   0.348   3.952   4.546 -2.0559 -1.4439 -1.4471
13385TIP3    H261571   0.277   4.069   4.610  1.3046  0.0266 -0.2768
13386TIP3   OH261572   2.929   3.966   3.222 -0.1644 -0.3345 -0.2932
13386TIP3    H161573   3.014   4.006   3.242 -0.0032 -0.8596  0.0854
13386TIP3    H261574   2.889   4.026   3.160 -1.3705  2.2253  2.8184
13387TIP3   OH261575   5.222   4.220   0.820 -0.1233  0.5435  0.2595
13387TIP3    H161576   5.214   4.312   0.796 -1.6357 -0.0183 -1.4624
13387TIP3    H261577   5.177   4.213   0.904 -0.2756  1.3038  0.2399
13388TIP3   OH261578   2.263   1.574  15.281  0.0712 -0.1704  0.7824
13388TIP3    H161579   2.242   1.488  15.245 -0.1461 -0.3970  1.4428
13388TIP3    H261580   2.193   1.632  15.250  0.7580 -0.0077 -0.4898
13389TIP3   OH261581   5.291   6.512   0.311 -0.5707  0.2344  0.2997
13389TIP3    H161582   5.260   6.588   0.361  3.3692  2.0642  0.1549
13389TIP3    H261583   5.319   6.548   0.227  3.1427 -0.9677  0.9111
13390TIP3   OH261584   4.799   1.911   1.827  0.3111 -0.3753 -0.4509
13390TIP3    H161585   4.797   1.976   1.896 -1.0760 -0.5254 -0.3385
13390TIP3    H261586   4.813   1.828   1.872 -0.5439 -0.4671 -0.3376
13391TIP3   OH261587   1.068   4.036   0.154 -0.2073  0.1677  0.1711
13391TIP3    H161588   1.138   4.061   0.094  0.6173 -1.2112  0.5386
13391TIP3    H261589   1.107   4.042   0.241 -0.2274 -1.4984  0.3276
13392TIP3   OH261590   2.338   5.398   3.508  0.4674 -0.2978 -0.1953
13392TIP3    H161591   2.283   5.353   3.572 -0.6952  0.0189 -0.9705
13392TIP3    H261592   2.325   5.491   3.526  1.5003 -0.2237  0.2405
13393TIP3   OH261593   3.026   0.701  14.654  0.1869 -0.1773 -0.2780
13393TIP3    H161594   3.037   0.606  14.651  0.0332 -0.1657 -2.1653
13393TIP3    H261595   3.102   0.732  14.704  0.6343 -1.2337 -0.2716
13394TIP3   OH261596   2.821   6.711   1.421 -0.0554 -0.4978 -0.7217
13394TIP3    H161597   2.897   6.766   1.440 -0.3448 -0.5559  0.6574
13394TIP3    H261598   2.839   6.675   1.334  1.3718 -0.2965 -0.5323
13395TIP3   OH261599   4.529   0.458   4.163  0.5041  0.4555 -0.3825
13395TIP3    H161600   4.435   0.444   4.175  0.6554  1.0473  1.5419
13395TIP3    H261601   4.564   0.370   4.150  0.0386 -0.0205  1.4918
13396TIP3   OH261602   0.983   5.941  12.215 -0.2793  0.3238  0.0580
13396TIP3    H161603   0.900   5.941  12.167 -0.4504 -1.1732  0.3396
13396TIP3    H261604   0.967   5.885  12.291  1.6108 -1.7404 -1.0010
13397TIP3   OH261605   1.690   3.392  16.404 -0.2825  0.2259 -0.3812
13397TIP3    H161606   1.701   3.484  16.380  0.0400 -0.0081 -1.1345
13397TIP3    H261607   1.686   3.392  16.500 -0.5795  1.0555 -0.3934
13398TIP3   OH261608   1.543   4.926  15.538  0.1544  0.0418  0.2580
13398TIP3    H161609   1.584   5.013  15.535 -1.7534  0.9917  0.6501
13398TIP3    H261610   1.580   4.880  15.463  1.2312  1.1845  0.0654
13399TIP3   OH261611   0.941   2.532   2.829 -0.5275  0.3655  0.1926
13399TIP3    H161612   0.932   2.437   2.826  0.2672  0.2927 -0.2998
13399TIP3    H261613   0.977   2.550   2.915  2.1863 -0.0799 -0.7868
13400TIP3   OH261614   6.039   6.614   5.009 -0.2899  0.6265 -0.7685
13400TIP3    H161615   5.999   6.610   4.922 -0.8155  0.6528 -0.5313
13400TIP3    H261616   5.965   6.605   5.069 -0.0327  1.5421 -0.3142
13401TIP3   OH261617   2.057   4.920  15.977 -0.3229  0.7342  0.2628
13401TIP3    H161618   2.075   4.832  15.944 -0.3030  0.4508  1.0144
13401TIP3    H261619   2.089   4.978  15.909  2.4006  0.2139  1.0681
13402TIP3   OH261620   3.198   6.167   1.826  0.1118  0.2052  0.0842
13402TIP3    H161621   3.129   6.232   1.817  0.1705  0.7126  2.8967
13402TIP3    H261622   3.276   6.210   1.790 -0.2369  1.0652  0.3337
13403TIP3   OH261623   3.011   3.649   2.079  0.4947 -0.3256 -0.4908
13403TIP3    H161624   2.952   3.599   2.024  0.0653  0.2467 -0.5623
13403TIP3    H261625   2.969   3.735   2.088 -0.3847 -0.9719  2.2107
13404TIP3   OH261626   4.620   4.155   1.518  0.0353 -0.2021 -0.4001
13404TIP3    H161627   4.697   4.110   1.483  0.7385  1.2865 -0.8013
13404TIP3    H261628   4.548   4.130   1.460  0.5521 -0.2705 -1.0103
13405TIP3   OH261629   5.105   5.804  15.099  0.5542  0.0812 -0.0103
13405TIP3    H161630   5.165   5.844  15.161  1.0769  2.9218 -2.2262
13405TIP3    H261631   5.027   5.860  15.102 -0.6930 -1.6576  0.4515
13406TIP3   OH261632   3.754   3.122   2.866 -0.2035 -0.4957 -0.4964
13406TIP3    H161633   3.775   3.118   2.773  1.8264  1.7229 -0.1737
13406TIP3    H261634   3.717   3.210   2.879 -0.1660 -0.6587  0.8596
13407TIP3   OH261635   0.502   2.314   4.342 -0.1911 -0.5295  0.6261
13407TIP3    H161636   0.491   2.223   4.315 -0.1281  0.0722 -1.4846
13407TIP3    H261637   0.415   2.340   4.375 -1.3965 -0.1233 -2.6838
13408TIP3   OH261638   1.545   1.358   5.445 -0.2069  0.5526 -0.5162
13408TIP3    H161639   1.468   1.365   5.502  0.1003 -0.2698  0.0123
13408TIP3    H261640   1.617   1.392   5.498  0.1950 -0.8192 -0.1680
13409TIP3   OH261641   4.130   5.418  12.529 -0.0678  0.2181 -0.1496
13409TIP3    H161642   4.138   5.400  12.622  0.2810  0.4358 -0.1346
13409TIP3    H261643   4.045   5.462  12.520 -0.4990 -0.5856 -0.0625
13410TIP3   OH261644   2.876   1.626   3.156 -0.4718 -0.1108  0.2909
13410TIP3    H161645   2.854   1.551   3.100 -0.3305 -1.1020  1.5423
13410TIP3    H261646   2.841   1.701   3.109  1.1115 -0.7141 -1.9642
13411TIP3   OH261647   5.776   3.305   0.872 -0.3064 -0.0280  0.3425
13411TIP3    H161648   5.737   3.304   0.785 -0.3078  0.4009  0.3357
13411TIP3    H261649   5.857   3.354   0.862  0.5939 -1.5135  0.2177
13412TIP3   OH261650   1.557   1.872   4.362  0.1576  0.6982  0.2025
13412TIP3    H161651   1.642   1.886   4.403  0.7853  0.1511 -0.9151
13412TIP3    H261652   1.494   1.896   4.431  1.1870 -0.1203  1.4630
13413TIP3   OH261653   2.288   4.618  13.481 -0.2401 -0.1302 -0.0523
13413TIP3    H161654   2.369   4.667  13.497  0.2629 -0.3935 -1.6651
13413TIP3    H261655   2.261   4.587  13.568  0.2822  1.6549  0.7714
13414TIP3   OH261656   5.146   1.248   4.125 -0.1272  0.8725  0.1387
13414TIP3    H161657   5.179   1.319   4.181 -1.8136  2.3999 -0.7474
13414TIP3    H261658   5.110   1.293   4.048 -2.5716 -0.8442  0.2271
13415TIP3   OH261659   4.823   2.153  13.812 -0.5688 -0.2011 -0.6300
13415TIP3    H161660   4.892   2.186  13.755  0.6200 -0.1771  0.7885
13415TIP3    H261661   4.769   2.229  13.832 -1.4874 -0.3675 -2.3604
13416TIP3   OH261662   0.715   3.555   2.549 -0.1692  0.0321  0.6556
13416TIP3    H161663   0.759   3.472   2.532  1.6904  0.4206  3.3264
13416TIP3    H261664   0.745   3.612   2.478 -0.9609 -1.3407 -0.8357
13417TIP3   OH261665   3.105   2.159   3.098 -0.1701 -0.0444  0.5601
13417TIP3    H161666   3.181   2.173   3.043  0.3601 -0.6328  1.1358
13417TIP3    H261667   3.034   2.207   3.055  0.3318 -0.1797 -0.4107
13418TIP3   OH261668   1.176   6.066   1.846  0.0692  0.2117  0.4759
13418TIP3    H161669   1.180   6.153   1.885 -1.1827  1.3360 -1.8356
13418TIP3    H261670   1.216   6.076   1.760 -0.8881 -1.2950 -0.1749
13419TIP3   OH261671   0.502   4.763   3.724 -0.1928 -0.2221 -0.3747
13419TIP3    H161672   0.573   4.705   3.751 -0.1564 -0.7612 -1.6059
13419TIP3    H261673   0.423   4.721   3.758 -0.0871 -0.5577 -0.5433
13420TIP3   OH261674   1.867   3.108  12.293  0.1532  0.4970 -0.1727
13420TIP3    H161675   1.806   3.134  12.225 -1.0880 -0.9882  0.3447
13420TIP3    H261676   1.815   3.058  12.355  1.5553  0.6205  1.1524
13421TIP3   OH261677   4.339   0.111  10.714 -0.0832  0.0184 -0.0913
13421TIP3    H161678   4.269   0.177  10.717 -0.8805 -0.8411  0.4557
13421TIP3    H261679   4.328   0.061  10.795 -0.2253 -1.5543 -1.0601
13422TIP3   OH261680   5.778   0.859   1.317 -0.0163  0.5798 -0.0172
13422TIP3    H161681   5.849   0.802   1.346 -0.1573  1.0086  1.2117
13422TIP3    H261682   5.700   0.804   1.323 -0.1181  0.8174  0.9348
13423TIP3   OH261683   5.146   1.160   2.914  0.2386  0.3722 -0.2224
13423TIP3    H161684   5.193   1.079   2.933  0.4167  0.2331 -1.1978
13423TIP3    H261685   5.200   1.205   2.850 -0.2596  0.8764 -0.2958
13424TIP3   OH261686   4.388   4.502  13.741  0.5272  0.0765  0.8029
13424TIP3    H161687   4.456   4.462  13.688  0.2819 -0.8857  1.1976
13424TIP3    H261688   4.340   4.428  13.778 -1.1284  0.7403  0.0171
13425TIP3   OH261689   6.592   6.496   5.748 -0.3479  0.1389 -0.0155
13425TIP3    H161690   6.595   6.422   5.687 -1.9293 -0.2512  0.3474
13425TIP3    H261691   6.542   6.563   5.702 -2.1186 -0.3928  1.0549
13426TIP3   OH261692   3.140   5.851  15.756  0.4805 -0.1876 -0.4462
13426TIP3    H161693   3.093   5.837  15.838  2.1614 -1.3093  0.3239
13426TIP3    H261694   3.199   5.924  15.774  0.7228 -0.3190 -0.7055
13427TIP3   OH261695   2.219   4.047  14.238 -0.2618 -0.1514  0.4525
13427TIP3    H161696   2.140   4.085  14.278  0.1095  0.4683  0.5946
13427TIP3    H261697   2.203   3.952  14.240 -0.9727 -0.0347  0.5472
13428TIP3   OH261698   1.913   1.579   2.048 -0.4933  0.0726  0.9057
13428TIP3    H161699   1.879   1.568   2.137 -1.8818  0.6823  0.4619
13428TIP3    H261700   2.001   1.613   2.061 -1.3717  2.0105  2.0378
13429TIP3   OH261701   5.298   4.800   4.201 -0.1620 -0.3539  0.4106
13429TIP3    H161702   5.250   4.882   4.205  0.5899  0.0726  0.9372
13429TIP3    H261703   5.275   4.755   4.283 -0.8575 -0.8338 -0.0440
13430TIP3   OH261704   4.123   0.041  13.239 -0.1314 -0.3823 -0.1181
13430TIP3    H161705   4.140   0.135  13.253 -0.1970 -0.5939  1.4515
13430TIP3    H261706   4.203   0.008  13.198  0.4342  0.0807  0.6126
13431TIP3   OH261707   0.930   2.691  16.595  0.3829 -0.0243  0.0292
13431TIP3    H161708   0.875   2.623  16.556 -0.5077  0.9436 -0.4265
13431TIP3    H261709   0.944   2.662  16.685 -0.1776 -0.7026 -0.1008
13432TIP3   OH261710   0.002   5.251   5.654  0.2569  0.5364 -0.7022
13432TIP3    H161711   0.067   5.320   5.653 -2.1414  3.0128  2.5390
13432TIP3    H261712   0.034   5.188   5.718  1.6051 -0.5683 -2.4178
13433TIP3   OH261713   5.908   5.675   3.786 -0.4911  0.5421  0.3220
13433TIP3    H161714   5.965   5.740   3.827  0.7882  0.1687 -0.8337
13433TIP3    H261715   5.864   5.722   3.715  0.0785  0.2841 -0.2113
13434TIP3   OH261716   3.259   3.531  10.934 -0.0990 -0.0822  0.4468
13434TIP3    H161717   3.305   3.448  10.944  0.5083  0.2538  0.4967
13434TIP3    H261718   3.197   3.516  10.863  0.7088 -0.2729 -0.2275
13435TIP3   OH261719   0.281   2.502   6.658  0.0727 -0.1010  0.0062
13435TIP3    H161720   0.276   2.568   6.588 -1.9498  0.1900  0.3833
13435TIP3    H261721   0.213   2.438   6.635  2.0772 -2.1455 -0.4042
13436TIP3   OH261722   1.003   3.849  15.645  0.5004  0.2212  0.3817
13436TIP3    H161723   1.075   3.832  15.584  0.5202 -0.4325  0.5864
13436TIP3    H261724   0.925   3.853  15.590  0.4829 -0.6228  0.3447
13437TIP3   OH261725   5.068   0.563  15.057  0.5029  0.1060  0.1769
13437TIP3    H161726   5.036   0.518  15.136 -0.2286  0.1582 -0.0815
13437TIP3    H261727   5.006   0.536  14.988  0.6200  0.7621 -0.1834
13438TIP3   OH261728   2.684   5.110   2.666  0.0790 -0.1906  0.7188
13438TIP3    H161729   2.610   5.138   2.721 -0.3221 -1.4204  0.8170
13438TIP3    H261730   2.643   5.073   2.588  0.6061 -0.3823  0.5341
13439TIP3   OH261731   4.820   5.651   6.797  0.6662  0.7271 -0.1819
13439TIP3    H161732   4.816   5.710   6.722 -0.6027 -0.1321 -0.7934
13439TIP3    H261733   4.734   5.658   6.839  0.7671 -0.1104  0.1833
13440TIP3   OH261734   1.614   5.843  13.574 -0.1153 -0.4359 -0.1591
13440TIP3    H161735   1.602   5.920  13.518 -0.6585 -0.8014 -0.5559
13440TIP3    H261736   1.703   5.812  13.554 -0.1841 -0.3717 -0.5848
13441TIP3   OH261737   0.650   3.809   3.732 -0.0032  0.5336  0.0253
13441TIP3    H161738   0.582   3.868   3.700 -1.7581 -0.6358  1.5330
13441TIP3    H261739   0.650   3.822   3.827 -0.2518 -1.7102  0.3515
13442TIP3   OH261740   5.048   6.751   0.249 -0.3811  0.0077  0.2967
13442TIP3    H161741   5.010   6.701   0.176 -1.0697 -0.1771  0.7767
13442TIP3    H261742   5.114   6.807   0.208 -0.1231 -0.7593 -0.3470
13443TIP3   OH261743   3.880   5.018   4.888  0.3047  0.3786 -0.0557
13443TIP3    H161744   3.928   4.963   4.950  1.0058  1.9495  0.8405
13443TIP3    H261745   3.798   4.972   4.872  0.8540 -0.8816  0.7128
13444TIP3   OH261746   3.122   0.723   5.496  0.3269  0.2868 -0.1380
13444TIP3    H161747   3.135   0.686   5.584  0.9571  2.2988  0.6323
13444TIP3    H261748   3.038   0.686   5.468  0.9573 -1.7604  0.5811
13445TIP3   OH261749   1.359   2.792  10.695 -0.2682  0.0561  0.1847
13445TIP3    H161750   1.313   2.780  10.778 -1.6828 -0.8189 -0.7239
13445TIP3    H261751   1.451   2.772  10.716 -0.6835 -0.5684  1.4359
13446TIP3   OH261752   1.168   0.750   1.510 -0.4961  0.4802  0.0273
13446TIP3    H161753   1.203   0.681   1.567 -1.5340 -0.5732 -0.5767
13446TIP3    H261754   1.245   0.789   1.469  0.0838 -0.6302  0.0393
13447TIP3   OH261755   1.674   2.354   1.412 -0.2331 -0.2612 -0.1821
13447TIP3    H161756   1.733   2.341   1.338  0.4202  0.0680  0.2700
13447TIP3    H261757   1.661   2.267   1.449  2.1244 -0.0223  1.3298
13448TIP3   OH261758   2.133   5.111  16.997 -0.0025 -0.1560 -0.8140
13448TIP3    H161759   2.208   5.111  17.057  0.1410 -1.5350 -0.9703
13448TIP3    H261760   2.059   5.082  17.051 -0.2975  0.5624 -0.8243
13449TIP3   OH261761   4.542   5.122   0.306  0.0472  0.0435 -0.0221
13449TIP3    H161762   4.552   5.103   0.399  1.1230  0.2328 -0.0910
13449TIP3    H261763   4.496   5.046   0.271  0.3743 -0.4044  0.5132
13450TIP3   OH261764   0.168   3.423   1.757 -0.6369 -0.4002 -0.1816
13450TIP3    H161765   0.124   3.451   1.837 -0.4725  2.4053 -1.0270
13450TIP3    H261766   0.109   3.449   1.686  0.5209 -0.2592 -1.1131
13451TIP3   OH261767   2.820   5.877  12.877 -0.4930 -0.2245  0.3769
13451TIP3    H161768   2.897   5.820  12.879  0.4605  0.9142 -2.1639
13451TIP3    H261769   2.852   5.961  12.911 -0.2888  0.5798 -1.7427
13452TIP3   OH261770   1.215   4.865   0.868  0.4743 -0.0654  0.0111
13452TIP3    H161771   1.234   4.945   0.818 -1.2036 -0.4054 -1.2154
13452TIP3    H261772   1.120   4.854   0.861  0.5122 -1.4293  1.3230
13453TIP3   OH261773   2.005   5.060   0.521  0.4488  0.0515 -0.0644
13453TIP3    H161774   1.935   5.036   0.460  0.4667 -1.7395  0.5950
13453TIP3    H261775   2.085   5.053   0.470  0.3927 -0.6305 -0.0535
13454TIP3   OH261776   3.290   6.435   2.933  0.1810 -0.0372  0.1406
13454TIP3    H161777   3.322   6.370   2.870 -1.6750 -1.1638  0.3223
13454TIP3    H261778   3.259   6.508   2.879 -0.9113 -0.7733 -0.2374
13455TIP3   OH261779   0.729   1.102  14.437  0.3858 -0.0593 -0.9427
13455TIP3    H161780   0.806   1.048  14.453 -0.7566 -0.9625  1.7305
13455TIP3    H261781   0.668   1.044  14.392  0.1231 -0.2469 -0.3454
13456TIP3   OH261782   0.904   3.283   6.085 -0.2656 -0.1971  0.3808
13456TIP3    H161783   0.947   3.365   6.109 -0.1734 -0.4194  0.9771
13456TIP3    H261784   0.811   3.299   6.101 -0.1106 -0.6391  1.7283
13457TIP3   OH261785   1.286   1.702   2.004 -0.0561  0.0323 -0.0259
13457TIP3    H161786   1.248   1.675   2.088 -0.6538 -1.5069 -0.7598
13457TIP3    H261787   1.348   1.633   1.983  0.2422  0.5213 -0.7554
13458TIP3   OH261788   5.098   2.858   3.436  0.2027  0.1873  0.3293
13458TIP3    H161789   5.165   2.925   3.420  0.1083  1.0474  3.1521
13458TIP3    H261790   5.137   2.776   3.407  1.0200  1.2212 -1.5216
13459TIP3   OH261791   0.037   3.467  14.028  0.3930  0.1449  0.0628
13459TIP3    H161792   0.034   3.528  13.955  1.0568  1.2406  0.9273
13459TIP3    H261793  -0.043   3.416  14.020 -1.5324  2.9053  0.8155
13460TIP3   OH261794   5.970   5.885  13.904  0.5043 -0.3791  0.4509
13460TIP3    H161795   5.952   5.887  13.810 -1.1512 -0.6273  0.7457
13460TIP3    H261796   5.883   5.878  13.945  1.2365 -0.7555  1.9742
13461TIP3   OH261797   1.251   2.614   5.658 -0.3549 -0.1227 -0.0997
13461TIP3    H161798   1.279   2.620   5.750  0.6438  1.4927 -0.5002
13461TIP3    H261799   1.157   2.626   5.661 -0.5085 -1.4336  0.8506
13462TIP3   OH261800   3.597   5.258   3.027 -0.4899 -0.0163  0.1309
13462TIP3    H161801   3.583   5.183   3.084 -1.3641 -0.6040 -0.8298
13462TIP3    H261802   3.514   5.306   3.029  0.1811  1.1231  1.0173
13463TIP3   OH261803   1.276   2.137   5.572 -0.4924  0.0236  0.2307
13463TIP3    H161804   1.261   2.212   5.514 -1.1646 -0.7325 -0.5922
13463TIP3    H261805   1.353   2.161   5.623  0.5271  0.4281 -1.4483
13464TIP3   OH261806   3.486   4.784   4.228  0.1531  0.3034  0.0684
13464TIP3    H161807   3.558   4.848   4.229 -0.5911  1.1577  0.2443
13464TIP3    H261808   3.478   4.760   4.136  0.0205  0.9660 -0.1015
13465TIP3   OH261809   5.783   0.724   0.846  0.0664  0.1596 -0.7764
13465TIP3    H161810   5.825   0.677   0.773  0.5130 -1.1570  0.2951
13465TIP3    H261811   5.692   0.734   0.819  0.5668  1.1115 -2.1967
13466TIP3   OH261812   0.591   4.173  14.602  0.3351 -0.1401 -0.4848
13466TIP3    H161813   0.637   4.135  14.528 -0.0116  0.5405 -1.0477
13466TIP3    H261814   0.544   4.248  14.566  0.1181  0.1596  0.4062
13467TIP3   OH261815   2.479   2.509  12.984 -0.8081  0.3128  0.5422
13467TIP3    H161816   2.529   2.567  13.043 -1.8686 -0.2333  2.0118
13467TIP3    H261817   2.392   2.505  13.023 -1.3020 -0.7196 -0.6405
13468TIP3   OH261818   1.361   1.288  14.704  0.0379  0.1133 -0.1877
13468TIP3    H161819   1.334   1.327  14.787  1.3486  0.6826 -0.0237
13468TIP3    H261820   1.456   1.300  14.701  0.1078 -0.6359 -1.3929
13469TIP3   OH261821   4.344   6.576   0.498  0.6457 -0.3837  0.2723
13469TIP3    H161822   4.303   6.614   0.575 -0.7986  0.5785 -0.9541
13469TIP3    H261823   4.361   6.485   0.523  0.1271 -0.1082  1.6958
13470TIP3   OH261824   4.013   5.894  14.313 -0.0015 -0.7675 -0.7612
13470TIP3    H161825   3.984   5.869  14.225  2.8529  1.2513 -2.3588
13470TIP3    H261826   3.979   5.983  14.325 -0.7195 -1.1863  0.3535
13471TIP3   OH261827   1.799   6.439   5.224 -0.0726 -0.7595 -0.4567
13471TIP3    H161828   1.855   6.382   5.275  1.8751  0.3876 -1.2469
13471TIP3    H261829   1.783   6.391   5.143 -1.6930 -1.8119  0.4440
13472TIP3   OH261830   5.026   2.960   2.818 -0.3136 -0.5089 -0.3259
13472TIP3    H161831   5.102   2.994   2.864 -0.8787 -1.7067  1.5601
13472TIP3    H261832   4.962   3.031   2.820 -0.3208 -0.5387  0.7325
13473TIP3   OH261833   1.786   0.568  13.883  0.1969 -0.7752 -0.1121
13473TIP3    H161834   1.792   0.627  13.958  1.3348 -1.0232 -0.0049
13473TIP3    H261835   1.726   0.612  13.823 -1.0268 -0.7605  1.1075
13474TIP3   OH261836   2.454   6.238   2.870 -0.7546  0.2363 -0.3205
13474TIP3    H161837   2.424   6.295   2.800 -0.9092  0.9273  0.3010
13474TIP3    H261838   2.528   6.285   2.910 -1.0385  0.1237  0.3475
13475TIP3   OH261839   0.128   1.514  16.453 -0.0592  0.9664 -0.1943
13475TIP3    H161840   0.156   1.603  16.473  0.7648  0.9681 -1.3107
13475TIP3    H261841   0.209   1.468  16.431 -0.3775 -0.2712  1.1678
13476TIP3   OH261842   0.432   2.945  13.665  0.5823  0.5211  0.0980
13476TIP3    H161843   0.437   3.029  13.621 -0.4894  1.2850  1.3969
13476TIP3    H261844   0.505   2.947  13.728  0.9271  0.2208 -0.2873
13477TIP3   OH261845   3.878   4.036   0.691 -0.1800  0.4619  0.6605
13477TIP3    H161846   3.856   4.065   0.779 -1.5248 -1.8879  1.1350
13477TIP3    H261847   3.863   4.113   0.636  0.9952  2.0529  2.4832
13478TIP3   OH261848   1.838   0.348  16.332  0.0343  0.0417  0.5347
13478TIP3    H161849   1.907   0.300  16.379  0.1735 -0.9364 -0.6425
13478TIP3    H261850   1.884   0.393  16.261 -0.3532  0.5057  0.5717
13479TIP3   OH261851   4.011   4.645   5.517 -0.1539 -0.1002 -0.7965
13479TIP3    H161852   4.020   4.672   5.608  0.1134  1.9010 -1.3927
13479TIP3    H261853   3.932   4.689   5.486 -0.0180 -0.4369 -1.6498
13480TIP3   OH261854   0.391   4.036  13.828  0.0061 -0.2182 -0.6184
13480TIP3    H161855   0.478   4.050  13.865 -0.1690  2.3121 -1.0238
13480TIP3    H261856   0.405   4.033  13.733 -0.2304 -0.8352 -0.6370
13481TIP3   OH261857   4.598   2.552  11.503 -0.0898  0.1283  0.1980
13481TIP3    H161858   4.602   2.471  11.554 -0.9861  1.1752  1.9869
13481TIP3    H261859   4.689   2.583  11.502  0.2436 -0.8473 -0.4215
13482TIP3   OH261860   6.260   2.281  12.275 -0.2152  0.4646  0.3681
13482TIP3    H161861   6.310   2.267  12.356 -0.8383 -1.9509  0.3817
13482TIP3    H261862   6.305   2.227  12.210 -0.4895  1.3635 -0.5712
13483TIP3   OH261863   6.465   2.671   3.279 -0.5264  0.0965  0.1732
13483TIP3    H161864   6.494   2.580   3.275  0.1576  0.3112  0.2239
13483TIP3    H261865   6.486   2.707   3.193 -0.0335  0.4372  0.4390
13484TIP3   OH261866   2.700   4.019  17.127 -0.2320 -0.3590  0.0754
13484TIP3    H161867   2.650   3.951  17.082  0.5635 -0.8523 -0.0728
13484TIP3    H261868   2.675   4.010  17.219 -0.7772 -0.2900 -0.0665
13485TIP3   OH261869   0.421   4.168  14.186  0.1362 -0.0841 -0.4923
13485TIP3    H161870   0.414   4.073  14.185 -1.3542  0.0303 -1.8790
13485TIP3    H261871   0.484   4.188  14.117  0.5396 -0.0563 -0.1224
13486TIP3   OH261872   4.878   3.379  10.948  0.1932 -0.1613  0.6602
13486TIP3    H161873   4.958   3.412  10.905 -0.4421 -0.3582 -0.6816
13486TIP3    H261874   4.908   3.304  10.999  1.1784  0.8362  1.5818
13487TIP3   OH261875   6.385   0.005   1.970  0.4652  0.8510  0.1226
13487TIP3    H161876   6.403  -0.061   2.037  1.8991  2.1651  1.0747
13487TIP3    H261877   6.472   0.040   1.948  0.3613 -1.4566 -4.4097
13488TIP3   OH261878   4.687   5.997   4.469 -0.3326  0.7580  0.5478
13488TIP3    H161879   4.764   6.052   4.457  1.0976 -0.8360  2.0675
13488TIP3    H261880   4.643   6.034   4.546  0.7752 -0.3658  1.7324
13489TIP3   OH261881   1.222   5.474   2.481  0.1433 -0.0304  0.0729
13489TIP3    H161882   1.136   5.457   2.519  0.2349 -1.0890 -0.1786
13489TIP3    H261883   1.252   5.554   2.525 -0.5032 -0.2554  0.9338
13490TIP3   OH261884   6.346   5.178   4.502  0.4082 -0.0521  0.1850
13490TIP3    H161885   6.292   5.242   4.548  1.0188  0.2365  0.5034
13490TIP3    H261886   6.411   5.150   4.567  1.0595  0.1013 -0.3913
13491TIP3   OH261887   4.359   4.920   5.160  0.3536 -0.2971  0.5764
13491TIP3    H161888   4.303   4.986   5.118 -0.1749 -2.1380 -1.7386
13491TIP3    H261889   4.316   4.902   5.244 -0.4478  1.0308  0.4675
13492TIP3   OH261890   5.047   3.012  10.353 -0.6868 -0.0574  0.3414
13492TIP3    H161891   5.110   3.070  10.310 -1.1463  1.3955  1.6210
13492TIP3    H261892   5.014   2.957  10.282  1.1879 -0.0980 -0.5497
13493TIP3   OH261893   3.268   1.406   1.991 -0.0355  0.3404  0.0285
13493TIP3    H161894   3.256   1.325   2.039 -1.0491  0.2968 -0.2979
13493TIP3    H261895   3.305   1.467   2.055 -0.8969  0.1356  0.7264
13494TIP3   OH261896   0.275   2.178   2.255 -0.5305  0.0008 -0.3470
13494TIP3    H161897   0.303   2.101   2.304  1.4661 -0.5133 -2.1915
13494TIP3    H261898   0.258   2.245   2.321  1.9228 -0.7161  1.0740
13495TIP3   OH261899   2.220   4.521  10.990 -0.3896 -0.3063  0.5979
13495TIP3    H161900   2.156   4.528  10.920 -1.1056 -2.6239  0.9887
13495TIP3    H261901   2.297   4.569  10.957 -1.1174 -0.3900 -1.2660
13496TIP3   OH261902   5.012   1.783  13.436  0.1369  0.2342  0.0433
13496TIP3    H161903   4.986   1.758  13.347  3.0075  0.8775 -1.0147
13496TIP3    H261904   4.987   1.708  13.490  0.2672 -1.0600 -1.6403
13497TIP3   OH261905   1.973   2.731   2.984  0.2771  0.9076  0.2246
13497TIP3    H161906   1.983   2.641   2.956  0.1078 -0.0460  3.0586
13497TIP3    H261907   1.884   2.755   2.959 -0.3168 -0.3404  1.0897
13498TIP3   OH261908   5.553   1.976  16.006  0.2107 -0.0697 -0.4292
13498TIP3    H161909   5.647   1.966  15.995  0.4880  1.5517  0.3721
13498TIP3    H261910   5.529   1.909  16.070  0.4877 -1.7516 -2.0342
13499TIP3   OH261911   6.688   3.187  17.224  0.0064 -0.8131  0.2080
13499TIP3    H161912   6.774   3.146  17.227  0.2055 -0.3373  1.6075
13499TIP3    H261913   6.685   3.232  17.139  1.0891 -0.9334  0.1052
13500TIP3   OH261914   1.899   3.542   2.022 -0.3539 -0.2517  0.0161
13500TIP3    H161915   1.857   3.617   1.980 -1.4310 -0.9566 -0.1922
13500TIP3    H261916   1.906   3.477   1.952 -1.2657 -1.0769  0.6752
13501TIP3   OH261917   4.022   1.251   3.886 -0.0252  0.3040  0.4636
13501TIP3    H161918   3.958   1.193   3.926  1.7002 -1.7326  0.3829
13501TIP3    H261919   4.107   1.212   3.907  1.0382  0.4169 -3.1987
13502TIP3   OH261920   3.976   5.337   3.914 -0.2925  0.8307  0.2081
13502TIP3    H161921   4.019   5.423   3.910  1.0601  0.2011  0.7541
13502TIP3    H261922   4.001   5.293   3.833 -0.0455  0.5243  0.4500
13503TIP3   OH261923   0.856   2.371   2.039  0.2155 -0.1101 -0.3962
13503TIP3    H161924   0.815   2.456   2.027  2.1309  1.3436  2.7676
13503TIP3    H261925   0.943   2.379   1.999 -0.3214 -1.2674 -1.8620
13504TIP3   OH261926   1.808   2.368   1.693 -0.1217  0.0070  0.4163
13504TIP3    H161927   1.779   2.344   1.605 -1.8123  0.7019  0.7554
13504TIP3    H261928   1.780   2.459   1.703  0.0719 -0.0600  1.6584
13505TIP3   OH261929   4.765   6.476   2.153 -0.3881 -0.6456  0.3910
13505TIP3    H161930   4.771   6.387   2.188  1.6402 -1.0993 -0.9607
13505TIP3    H261931   4.701   6.470   2.082  0.6287 -1.3380 -0.4891
13506TIP3   OH261932   3.500   1.230   4.420  0.4646 -0.2518  0.4077
13506TIP3    H161933   3.467   1.244   4.331 -1.0299 -1.7560  0.7094
13506TIP3    H261934   3.443   1.283   4.475 -1.0248 -2.2204  0.8382
13507TIP3   OH261935   1.374   2.340  13.722 -0.5140  0.2971 -0.8987
13507TIP3    H161936   1.395   2.433  13.718  2.3423 -0.2973 -1.0263
13507TIP3    H261937   1.428   2.300  13.654 -0.7027 -1.6144  0.0306
13508TIP3   OH261938   2.088   4.700   0.932  0.0630 -0.0195  0.0015
13508TIP3    H161939   2.001   4.736   0.915 -0.1018 -0.3644  0.0979
13508TIP3    H261940   2.071   4.616   0.975  0.3944 -0.9729 -1.6611
13509TIP3   OH261941   0.443   0.851  16.580  0.6441 -0.0219 -0.8609
13509TIP3    H161942   0.484   0.880  16.662 -0.8039 -0.7726  0.1624
13509TIP3    H261943   0.401   0.930  16.545  0.1147  0.0126 -0.1613
13510TIP3   OH261944   0.951   0.774   3.969 -0.2582 -0.4750 -0.2463
13510TIP3    H161945   0.960   0.837   3.898  1.7533 -0.1679  0.2383
13510TIP3    H261946   0.890   0.815   4.031  0.3110  0.5839 -0.3840
13511TIP3   OH261947   5.171   4.281  16.022  0.1155 -0.3839 -0.2063
13511TIP3    H161948   5.086   4.293  16.064 -0.1901 -0.9055 -0.6689
13511TIP3    H261949   5.218   4.363  16.039  1.2773 -1.8164  4.0206
13512TIP3   OH261950   1.354   6.233   1.381 -0.2835  0.2314  0.9716
13512TIP3    H161951   1.332   6.215   1.289  0.8235  0.1465  0.7091
13512TIP3    H261952   1.404   6.314   1.378  1.0223 -0.5449  1.3252
13513TIP3   OH261953   0.024   2.814   5.313 -0.2903 -0.4255  0.3281
13513TIP3    H161954  -0.055   2.768   5.342 -2.0841  2.2937 -0.0599
13513TIP3    H261955   0.063   2.849   5.393  0.2423 -1.3155  0.4638
13514TIP3   OH261956   4.932   4.249  14.421  0.7034 -0.3565 -0.8106
13514TIP3    H161957   4.914   4.318  14.485  0.7442 -0.2570 -0.9061
13514TIP3    H261958   4.866   4.262  14.353 -0.9833 -2.0372  0.4519
13515TIP3   OH261959   5.741   3.384  12.707 -0.1871  0.5550 -0.1481
13515TIP3    H161960   5.697   3.441  12.644 -0.1173 -0.1539 -0.8564
13515TIP3    H261961   5.703   3.406  12.792  0.8402  2.6430 -0.1950
13516TIP3   OH261962   4.285   1.161   3.915  0.3319  0.6233  0.2377
13516TIP3    H161963   4.359   1.219   3.931  0.9569  0.3811 -1.6788
13516TIP3    H261964   4.301   1.085   3.971  1.1000  0.9455  0.4535
13517TIP3   OH261965   5.866   5.640   5.897 -0.1169  0.4124  0.7828
13517TIP3    H161966   5.785   5.599   5.930 -1.3010  2.9765  1.2267
13517TIP3    H261967   5.900   5.688   5.972  1.4331  0.0011  0.3642
13518TIP3   OH261968   0.427   1.029   3.539  0.6664  0.3735  0.8290
13518TIP3    H161969   0.386   0.966   3.599  0.2164  1.2017  1.3922
13518TIP3    H261970   0.516   0.994   3.526  0.9166  0.4149  2.3192
13519TIP3   OH261971   4.583   5.259   3.535  0.5886 -0.6760 -0.3401
13519TIP3    H161972   4.529   5.209   3.597  2.2183  0.2725  1.9332
13519TIP3    H261973   4.570   5.216   3.451 -1.4726 -2.2010  0.7191
13520TIP3   OH261974   4.722   2.677   3.607  0.2944  0.0116  0.6001
13520TIP3    H161975   4.727   2.765   3.646 -1.1389  0.0715  0.6804
13520TIP3    H261976   4.709   2.619   3.682 -0.5257 -0.0817  0.3802
13521TIP3   OH261977   3.116   2.848   4.845 -0.5170  0.3638  1.1523
13521TIP3    H161978   3.047   2.797   4.887 -1.6770  1.8384  1.0514
13521TIP3    H261979   3.079   2.935   4.833  1.3389  1.1717  1.0440
13522TIP3   OH261980   5.389   3.799  13.833  0.8173 -0.0165  0.3056
13522TIP3    H161981   5.446   3.876  13.840  0.8261 -0.0321  0.4108
13522TIP3    H261982   5.425   3.737  13.897  1.2957 -0.4175 -0.3487
13523TIP3   OH261983   1.059   0.717   5.699  1.1018  0.7028 -0.3300
13523TIP3    H161984   1.063   0.630   5.659 -1.5873  0.5455 -0.3575
13523TIP3    H261985   1.088   0.703   5.789 -0.7575 -0.5516  0.1082
13524TIP3   OH261986   5.121   1.845   4.484 -0.0110  0.3083  0.1035
13524TIP3    H161987   5.105   1.861   4.577 -0.5300 -0.3321  0.1297
13524TIP3    H261988   5.213   1.868   4.472  0.4172 -0.8360  1.0588
13525TIP3   OH261989   5.710   0.718  16.305  0.1777 -0.0718  0.2325
13525TIP3    H161990   5.755   0.746  16.385 -0.3928 -1.2887  0.9814
13525TIP3    H261991   5.638   0.780  16.295  2.1311  2.1177 -1.1564
13526TIP3   OH261992   3.630   1.115  15.017  0.6542 -0.6192  0.1192
13526TIP3    H161993   3.659   1.205  15.002 -1.7704 -0.1205 -2.0067
13526TIP3    H261994   3.675   1.064  14.950 -0.7453 -0.3575 -1.0611
13527TIP3   OH261995   0.119   4.019  15.392  0.1165  0.5323 -0.0400
13527TIP3    H161996   0.167   3.945  15.356 -0.8871 -0.2182  0.1270
13527TIP3    H261997   0.034   4.017  15.346  0.3959  2.1006 -0.6669
13528TIP3   OH261998   1.283   5.493  13.231 -0.6002 -0.1081  0.1387
13528TIP3    H161999   1.355   5.525  13.286  0.1137 -3.4617  1.3041
13528TIP3    H262000   1.221   5.456  13.294 -3.2548  2.4366 -0.8824
13529TIP3   OH262001   1.730   0.825  13.269  0.3461  0.2700 -0.0634
13529TIP3    H162002   1.650   0.786  13.304 -0.6742  0.6906 -1.8611
13529TIP3    H262003   1.703   0.911  13.237  1.8584  1.0569  0.7217
13530TIP3   OH262004   3.511   6.124   4.957 -0.5176 -0.0055  0.4754
13530TIP3    H162005   3.479   6.038   4.986  1.1772 -0.2939  1.6066
13530TIP3    H262006   3.601   6.108   4.929 -0.0975  1.4438  0.9368
13531TIP3   OH262007   2.240   2.044  12.405 -0.1124 -0.6942 -0.2025
13531TIP3    H162008   2.311   2.097  12.441  0.2106 -1.0188 -0.3693
13531TIP3    H262009   2.171   2.108  12.386 -0.3746 -0.5327  1.1791
13532TIP3   OH262010   1.933   2.801  12.588 -0.9759  0.2613  0.8377
13532TIP3    H162011   1.842   2.775  12.572 -0.7428 -1.0104  1.5289
13532TIP3    H262012   1.933   2.896  12.574 -2.5801  0.3903  1.5439
13533TIP3   OH262013   3.883   1.327   3.394  0.6064 -0.8923  0.1512
13533TIP3    H162014   3.805   1.364   3.353  0.7891 -2.1526 -1.3934
13533TIP3    H262015   3.923   1.401   3.440 -0.4889  0.1874 -0.5806
13534TIP3   OH262016   4.463   5.905   0.928  0.5555  0.2533  0.2079
13534TIP3    H162017   4.379   5.950   0.914  1.1771  1.6151  0.7127
13534TIP3    H262018   4.491   5.879   0.841 -0.6623 -0.7281  0.0908
13535TIP3   OH262019   5.847   4.657   0.773 -0.2662 -0.1365  0.1413
13535TIP3    H162020   5.932   4.622   0.743 -0.2979  0.2856 -0.4554
13535TIP3    H262021   5.869   4.740   0.814 -0.2362 -0.6706  1.2300
13536TIP3   OH262022   3.944   1.819  11.721  0.2454 -0.1337 -0.1079
13536TIP3    H162023   3.855   1.783  11.720  0.6203 -1.1840  2.0910
13536TIP3    H262024   3.953   1.858  11.808  1.4039  1.3696 -0.8847
13537TIP3   OH262025   2.797   1.821   4.285  0.6318  0.4494  0.4169
13537TIP3    H162026   2.718   1.787   4.245  1.3961 -0.9453  0.0679
13537TIP3    H262027   2.766   1.886   4.349 -0.6044  2.5667 -2.2498
13538TIP3   OH262028   5.890   4.376   1.312 -0.5958  0.4459  0.0811
13538TIP3    H162029   5.854   4.453   1.267 -1.7077  0.0336  0.2373
13538TIP3    H262030   5.974   4.361   1.270 -0.1424  2.0423  0.3667
13539TIP3   OH262031   5.762   5.205  11.243  0.9828 -0.2749  0.1167
13539TIP3    H162032   5.725   5.151  11.312 -0.7696  0.3023 -0.3471
13539TIP3    H262033   5.695   5.208  11.175  2.2757 -0.0099 -1.1808
13540TIP3   OH262034   4.298   6.640  12.670 -0.3900 -0.5376 -0.7287
13540TIP3    H162035   4.203   6.647  12.664 -0.4369 -0.4383  0.0706
13540TIP3    H262036   4.331   6.719  12.627 -0.6736 -0.4144 -0.7167
13541TIP3   OH262037   1.836   5.275  13.688  0.2685 -0.5334 -0.0612
13541TIP3    H162038   1.821   5.208  13.621 -1.9478  0.9635 -1.1427
13541TIP3    H262039   1.759   5.270  13.745  1.6509 -1.0990  1.7877
13542TIP3   OH262040   5.236   5.993  16.419 -0.5899 -0.3083 -0.0186
13542TIP3    H162041   5.179   6.070  16.425 -0.7313 -0.2974 -1.3590
13542TIP3    H262042   5.302   6.008  16.487 -0.7268  0.9167 -0.1359
13543TIP3   OH262043   2.088   1.287   2.845 -0.3070  0.0205 -0.0807
13543TIP3    H162044   2.111   1.372   2.883 -1.2937 -0.0825  0.7748
13543TIP3    H262045   1.992   1.289   2.838 -0.2539 -0.5711 -1.1500
13544TIP3   OH262046   6.679   5.216  13.809  0.1532  0.4244  0.5168
13544TIP3    H162047   6.727   5.200  13.727  0.2369  0.7054  0.5099
13544TIP3    H262048   6.724   5.291  13.848 -1.1095  1.5360 -0.1365
13545TIP3   OH262049   5.148   6.293   0.323  0.3551  0.4074  0.1668
13545TIP3    H162050   5.101   6.329   0.398 -0.3273  1.2675 -0.6692
13545TIP3    H262051   5.222   6.352   0.310  0.8397 -0.1094  0.5638
13546TIP3   OH262052   1.490   2.763   4.844 -0.3930  0.0456 -0.1700
13546TIP3    H162053   1.400   2.741   4.868 -0.8460  0.4171 -1.4741
13546TIP3    H262054   1.534   2.779   4.927 -1.8097  0.9491  0.4255
13547TIP3   OH262055   6.266   5.322   3.978 -0.5213 -0.0361 -0.0343
13547TIP3    H162056   6.257   5.241   4.029 -1.0771 -0.1013 -0.2372
13547TIP3    H262057   6.345   5.363   4.013  0.6208 -1.3997 -0.9259
13548TIP3   OH262058   6.415   4.983  16.275 -0.3863 -0.0535 -0.2285
13548TIP3    H162059   6.339   4.946  16.229 -1.9433  1.2713  1.1878
13548TIP3    H262060   6.402   4.957  16.367  1.7449 -1.1897 -0.2149
13549TIP3   OH262061   3.972   3.700   0.102 -0.0362 -0.3652 -0.8239
13549TIP3    H162062   4.066   3.705   0.084  0.0573  0.8741 -0.0978
13549TIP3    H262063   3.931   3.687   0.017  0.7394  0.0159 -1.2575
13550TIP3   OH262064   5.371   0.814   2.740 -0.1830 -0.1935 -0.5007
13550TIP3    H162065   5.320   0.737   2.766 -0.3959  0.5208  1.2383
13550TIP3    H262066   5.314   0.860   2.678  0.3638 -1.9478 -2.3713
13551TIP3   OH262067   1.604   3.472   4.369 -0.6438 -0.1213 -0.1123
13551TIP3    H162068   1.590   3.518   4.287 -0.1513  1.1730  0.5291
13551TIP3    H262069   1.546   3.515   4.431  1.6376  1.3250  1.0980
13552TIP3   OH262070   1.162   1.363  15.408 -0.3947  0.0958  0.0765
13552TIP3    H162071   1.069   1.380  15.393 -0.8642 -1.6698  0.7738
13552TIP3    H262072   1.192   1.321  15.328 -0.7962 -1.4649  0.7157
13553TIP3   OH262073   4.369   3.102  13.675  0.1281  0.0047  0.0037
13553TIP3    H162074   4.444   3.082  13.620 -0.0357 -0.3133 -0.1091
13553TIP3    H262075   4.370   3.034  13.742  2.0172  2.0836  2.1374
13554TIP3   OH262076   4.670   0.817  14.052  0.1517 -0.5469  0.5786
13554TIP3    H162077   4.670   0.903  14.093  0.1024 -0.7528  1.0257
13554TIP3    H262078   4.740   0.821  13.986 -0.0200 -0.0900  0.4254
13555TIP3   OH262079   4.186   4.700   2.488  0.4372  0.3669 -0.0115
13555TIP3    H162080   4.112   4.640   2.495  0.0848  0.9476  1.3726
13555TIP3    H262081   4.149   4.779   2.446  0.7102 -0.0404 -1.0462
13556TIP3   OH262082   1.232   1.668   0.641 -0.9456  0.2147  0.3476
13556TIP3    H162083   1.294   1.719   0.590  0.7219 -1.3328  0.7660
13556TIP3    H262084   1.242   1.699   0.731 -1.3112  0.4800  0.2966
13557TIP3   OH262085   5.047   3.407   1.239  0.1186  0.1623  0.4515
13557TIP3    H162086   4.975   3.468   1.254 -0.1010 -0.2999  1.3584
13557TIP3    H262087   5.010   3.337   1.185  0.3418  0.7659 -0.4931
13558TIP3   OH262088   4.910   1.991  16.577  0.0595 -0.3676 -0.0138
13558TIP3    H162089   4.969   2.048  16.628  0.8601 -0.5398 -0.7308
13558TIP3    H262090   4.854   1.950  16.643 -0.1597  0.8300  0.5604
13559TIP3   OH262091   5.664   2.264  16.366 -0.0929  0.2838 -0.0620
13559TIP3    H162092   5.736   2.315  16.330  0.1561 -1.3248 -1.9718
13559TIP3    H262093   5.585   2.311  16.339  0.1513  0.0302 -1.2475
13560TIP3   OH262094   2.622   1.956  12.933  0.6924 -0.5444  0.1405
13560TIP3    H162095   2.566   1.997  12.999 -0.4488 -1.0274 -0.5186
13560TIP3    H262096   2.646   2.028  12.874 -2.1093 -0.9305 -1.5794
13561TIP3   OH262097   4.206   4.815  16.926 -0.3117  0.7199 -0.4156
13561TIP3    H162098   4.125   4.860  16.952  0.1870  0.7623  1.0581
13561TIP3    H262099   4.196   4.803  16.831 -2.5743 -0.3341 -0.0735
13562TIP3   OH262100   5.985   4.413  16.210  0.6251  0.0311 -0.2855
13562TIP3    H162101   6.008   4.341  16.269  1.2361  1.7514  1.6538
13562TIP3    H262102   5.892   4.400  16.192  0.1386  0.0585  1.9805
13563TIP3   OH262103   3.525   0.476   2.366 -0.0869  0.5083  0.0016
13563TIP3    H162104   3.563   0.530   2.435  0.0192 -0.6391  0.8727
13563TIP3    H262105   3.580   0.491   2.290  1.7072 -0.5792  1.0404
13564TIP3   OH262106   6.174   1.613   0.926 -0.4051  0.7236  0.1022
13564TIP3    H162107   6.099   1.652   0.972 -0.4534  0.9431 -0.1635
13564TIP3    H262108   6.136   1.544   0.872 -0.2562 -0.0552  0.9854
13565TIP3   OH262109   6.404   1.043  11.887 -0.1124 -0.4850 -0.8089
13565TIP3    H162110   6.398   1.101  11.811  0.4333  0.4384 -0.1577
13565TIP3    H262111   6.474   0.981  11.864  0.1182 -0.1484 -1.0173
13566TIP3   OH262112   2.853   1.479   1.711 -0.3256 -0.3701  0.1344
13566TIP3    H162113   2.871   1.385   1.703  1.8710  0.1511 -1.6559
13566TIP3    H262114   2.804   1.501   1.632 -0.3612  0.1018  0.2880
13567TIP3   OH262115   4.631   6.230  10.978  0.6717 -0.1194  0.0530
13567TIP3    H162116   4.649   6.317  11.015 -0.9194  0.5656 -0.7404
13567TIP3    H262117   4.681   6.228  10.897 -0.5374  0.6778 -0.7210
13568TIP3   OH262118   0.364   3.197  13.540  0.1203  0.0553 -0.7127
13568TIP3    H162119   0.426   3.268  13.526  3.0799 -2.5863 -1.4468
13568TIP3    H262120   0.299   3.234  13.600  2.8721  2.5946  0.8418
13569TIP3   OH262121   1.856   6.671  13.541  0.1216  0.3746 -0.0369
13569TIP3    H162122   1.821   6.665  13.630 -0.2635 -0.6157 -0.2407
13569TIP3    H262123   1.779   6.661  13.485  0.5776 -0.7479 -0.4832
13570TIP3   OH262124   6.662   5.310   3.587  0.6022 -0.0358 -0.6798
13570TIP3    H162125   6.657   5.281   3.678 -1.3448 -1.7246 -1.2788
13570TIP3    H262126   6.590   5.372   3.578 -0.0076 -0.8301 -1.3765
13571TIP3   OH262127   6.260   2.065  11.035 -0.1390 -0.0254 -0.0806
13571TIP3    H162128   6.196   2.133  11.058 -1.0972 -1.6557  2.2143
13571TIP3    H262129   6.340   2.091  11.079 -0.6385 -0.6065  1.1926
13572TIP3   OH262130   6.198   1.273  17.025  0.1881 -0.4563 -0.1863
13572TIP3    H162131   6.276   1.270  17.082 -1.5581 -1.9390  2.2558
13572TIP3    H262132   6.183   1.366  17.010  1.4922 -0.0820  0.6566
13573TIP3   OH262133   1.557   0.858   4.527 -0.3949 -0.1313  0.5031
13573TIP3    H162134   1.531   0.950   4.526  1.8350  0.5339  0.7256
13573TIP3    H262135   1.482   0.812   4.563 -1.9641  1.4642 -0.6549
13574TIP3   OH262136   4.069   4.857   1.511  0.3940 -0.1375  0.2568
13574TIP3    H162137   3.985   4.813   1.495  0.0740  0.3785  0.4795
13574TIP3    H262138   4.061   4.941   1.464  1.7297 -1.1003 -1.7355
13575TIP3   OH262139   0.143   6.521  16.345 -0.2617 -0.1870 -0.4389
13575TIP3    H162140   0.190   6.603  16.359 -0.5666 -0.1538  0.4233
13575TIP3    H262141   0.111   6.497  16.432  1.0491 -1.9646 -0.4148
13576TIP3   OH262142   5.724   5.581   5.223 -0.5170 -0.2657  0.1936
13576TIP3    H162143   5.802   5.637   5.216  0.3370 -1.2538  1.4591
13576TIP3    H262144   5.685   5.582   5.136  0.9115  0.2797 -0.4522
13577TIP3   OH262145   3.697   2.253   3.133  0.4079 -0.1521  0.1351
13577TIP3    H162146   3.661   2.211   3.211  3.0279  0.2184  1.6008
13577TIP3    H262147   3.745   2.183   3.088 -0.7426 -0.2627 -0.9472
13578TIP3   OH262148   2.140   0.971   3.406  0.5982  0.1577  0.2296
13578TIP3    H162149   2.159   0.902   3.342 -1.5997  1.2867 -1.6953
13578TIP3    H262150   2.083   0.929   3.470  1.9276 -0.6736  0.9049
13579TIP3   OH262151   6.352   0.665   0.401 -0.3954 -0.0881 -0.3565
13579TIP3    H162152   6.391   0.580   0.422  1.2554  0.9436  0.9145
13579TIP3    H262153   6.427   0.721   0.378 -1.2326  1.5986  0.9051
13580TIP3   OH262154   2.190   4.810   5.150 -0.0851 -0.1262 -0.0199
13580TIP3    H162155   2.197   4.828   5.243 -0.7608 -2.4566  0.5284
13580TIP3    H262156   2.277   4.776   5.125  0.4070  1.4488 -0.4745
13581TIP3   OH262157   1.160   1.467  13.868  0.1380 -0.3686  0.3628
13581TIP3    H162158   1.118   1.489  13.952 -2.1408  1.3762 -1.1601
13581TIP3    H262159   1.247   1.508  13.873 -0.6994  1.3779  1.1559
13582TIP3   OH262160   5.258   4.040   0.639 -0.2630 -0.4219  0.5867
13582TIP3    H162161   5.241   4.092   0.717 -1.6217 -1.7462  1.1899
13582TIP3    H262162   5.265   3.950   0.671  0.6825 -0.7955 -0.6205
13583TIP3   OH262163   1.796   3.190  15.132 -0.2731  0.1012  0.1335
13583TIP3    H162164   1.805   3.285  15.137 -2.2329  0.4129 -1.6128
13583TIP3    H262165   1.740   3.168  15.207  0.1011  0.3225  0.4817
13584TIP3   OH262166   0.474   1.855   0.053  0.1070 -0.5357 -0.4208
13584TIP3    H162167   0.402   1.901   0.096 -0.7370 -3.4318  1.3763
13584TIP3    H262168   0.434   1.815  -0.025  0.3388 -0.1561 -0.7394
13585TIP3   OH262169   5.424   2.077   1.058 -0.2607 -0.2441  0.2398
13585TIP3    H162170   5.427   2.141   0.986  1.6237  1.6426  1.9416
13585TIP3    H262171   5.515   2.068   1.086 -0.8050 -1.9571  1.5691
13586TIP3   OH262172   3.469   6.153   1.699 -0.2337  0.1266  0.6369
13586TIP3    H162173   3.504   6.176   1.613  1.7501  1.1284  1.6699
13586TIP3    H262174   3.427   6.068   1.686 -1.4602  1.0650 -1.6765
13587TIP3   OH262175   1.066   6.606   5.519 -0.2380  0.1524  0.0648
13587TIP3    H162176   1.075   6.584   5.427 -1.7913  0.5519 -0.2091
13587TIP3    H262177   0.975   6.582   5.540  0.5928 -1.4788  1.9137
13588TIP3   OH262178   1.613   3.964   5.574 -0.8588  0.2125 -0.2333
13588TIP3    H162179   1.541   4.026   5.587 -0.4807  1.1341 -2.4106
13588TIP3    H262180   1.651   3.953   5.662 -2.7925  0.7593  0.6896
13589TIP3   OH262181   0.517   3.747  13.124 -0.6173  0.0792  0.4501
13589TIP3    H162182   0.571   3.676  13.160 -0.7565  0.5591  1.6523
13589TIP3    H262183   0.487   3.795  13.202 -2.3205  0.1490 -0.2452
13590TIP3   OH262184   3.090   4.414  14.905  0.3286  0.0479  0.1127
13590TIP3    H162185   3.035   4.355  14.956  1.8186 -0.3463  1.3021
13590TIP3    H262186   3.135   4.358  14.842  3.2222 -0.4553  2.5173
13591TIP3   OH262187   5.922   4.920  15.574 -0.4480  0.2843  0.1737
13591TIP3    H162188   5.983   4.989  15.600 -0.2781  0.5484 -0.9024
13591TIP3    H262189   5.892   4.883  15.657  0.8222  0.4516  0.7244
13592TIP3   OH262190   6.231   1.486   4.732  0.4074  0.5163 -0.4778
13592TIP3    H162191   6.322   1.458   4.726  0.4897  1.1236 -2.1196
13592TIP3    H262192   6.181   1.421   4.683  0.0893  0.8030 -0.5418
13593TIP3   OH262193   2.469   3.417   3.969 -0.3289  0.1036 -0.1299
13593TIP3    H162194   2.528   3.383   4.036  1.4505  1.5778 -0.8877
13593TIP3    H262195   2.395   3.453   4.018  0.4135  0.1299  0.9892
13594TIP3   OH262196   3.577   4.701  12.011  0.0170  0.0974  0.2629
13594TIP3    H162197   3.490   4.708  11.973 -0.3171  1.9118  1.3611
13594TIP3    H262198   3.577   4.615  12.054 -1.1781  0.0480  0.1785
13595TIP3   OH262199   2.306   6.257   0.714 -1.0321  0.1510 -0.1817
13595TIP3    H162200   2.372   6.317   0.748  0.6703 -0.7966 -1.7083
13595TIP3    H262201   2.249   6.240   0.789 -1.4451  3.4572  0.3357
13596TIP3   OH262202   6.759   1.239  16.171  0.0101 -0.2090  0.3025
13596TIP3    H162203   6.853   1.243  16.185  0.2488  0.0614 -1.2721
13596TIP3    H262204   6.731   1.159  16.216  1.1296 -0.7705  0.0075
13597TIP3   OH262205   4.593   4.503  12.692 -0.1563 -0.0321 -0.0366
13597TIP3    H162206   4.679   4.464  12.707 -0.7349 -0.0901  3.4433
13597TIP3    H262207   4.539   4.431  12.660  0.8528 -0.1725 -1.4696
13598TIP3   OH262208   4.724   4.992   1.086  0.2691 -0.0853  0.2673
13598TIP3    H162209   4.810   5.030   1.068  0.4073 -0.0100  1.0510
13598TIP3    H262210   4.735   4.898   1.070 -0.6572  0.4111 -3.8466
13599TIP3   OH262211   4.782   1.348   6.046  0.0685 -0.9333 -0.1728
13599TIP3    H162212   4.778   1.317   6.136  1.9885  0.7274  0.5274
13599TIP3    H262213   4.814   1.273   5.996  3.2798 -0.5640  1.2551
13600TIP3   OH262214   6.325   6.394   4.827 -0.5248  0.2654  0.5467
13600TIP3    H162215   6.338   6.315   4.879 -0.2330  0.2488  0.4506
13600TIP3    H262216   6.237   6.384   4.790 -0.6026  0.1238  0.7705
13601TIP3   OH262217   3.051   6.619  13.225 -0.0265  0.6517  0.7656
13601TIP3    H162218   3.079   6.667  13.148 -2.3807  1.3722  0.3117
13601TIP3    H262219   3.071   6.677  13.298  0.0068  0.9880  0.4892
13602TIP3   OH262220   6.460   2.289   3.572 -0.4773 -0.2603  0.2144
13602TIP3    H162221   6.539   2.335   3.601  0.1293 -0.7341 -0.6803
13602TIP3    H262222   6.388   2.347   3.598  0.1619  0.1912  0.9996
13603TIP3   OH262223   3.714   5.111   2.210 -0.6086 -0.0806 -0.0609
13603TIP3    H162224   3.675   5.195   2.186 -0.1660  0.3322  0.6620
13603TIP3    H262225   3.806   5.131   2.225 -0.5093 -0.6933  0.1359
13604TIP3   OH262226   5.917   0.811  16.450  0.4068 -0.3891 -0.3903
13604TIP3    H162227   5.904   0.888  16.394  0.1097 -0.3746 -0.3032
13604TIP3    H262228   6.001   0.775  16.422  2.2092  1.8885  1.7842
13605TIP3   OH262229   3.809   6.248   6.362 -0.4694 -0.0296 -0.6798
13605TIP3    H162230   3.808   6.231   6.456  1.3501  1.6967 -0.3084
13605TIP3    H262231   3.890   6.208   6.331 -1.4193 -1.2230 -1.6480
13606TIP3   OH262232   2.771   3.575  16.306 -0.5349  0.1409 -0.0915
13606TIP3    H162233   2.688   3.620  16.286  0.4539  1.2076 -1.9701
13606TIP3    H262234   2.815   3.568  16.221  0.7994 -1.4540  0.7167
13607TIP3   OH262235   1.551   0.823  14.202 -0.9104  0.2200  0.4036
13607TIP3    H162236   1.564   0.848  14.111  0.2407  0.0443  0.5119
13607TIP3    H262237   1.457   0.832  14.216 -0.9831  1.0863 -0.5534
13608TIP3   OH262238   6.739   6.774   5.520 -0.6700 -0.6402  0.7860
13608TIP3    H162239   6.668   6.709   5.517 -0.8790 -0.4687  1.9318
13608TIP3    H262240   6.776   6.766   5.607  0.4270 -0.3961  0.3519
13609TIP3   OH262241   5.858   4.461  14.443 -0.0420  0.5068 -0.5586
13609TIP3    H162242   5.931   4.419  14.487 -0.2123  0.8544  0.0537
13609TIP3    H262243   5.896   4.500  14.364  0.3821  0.4626 -0.3751
13610TIP3   OH262244   4.114   3.240   4.217 -0.1986  0.6518 -0.4000
13610TIP3    H162245   4.172   3.165   4.225 -1.5249 -0.4106 -0.6750
13610TIP3    H262246   4.145   3.286   4.139  0.5958  0.3961 -0.2489
13611TIP3   OH262247   0.017   0.526   1.968 -0.1444  0.0718 -0.0576
13611TIP3    H162248   0.001   0.543   2.061 -0.4778 -1.2762  0.1338
13611TIP3    H262249   0.097   0.576   1.948  0.3018 -0.1622  1.1103
13612TIP3   OH262250   0.131   5.950  15.446 -0.0181 -0.7669 -0.3525
13612TIP3    H162251   0.076   6.007  15.393  1.1707 -0.5016 -1.3214
13612TIP3    H262252   0.072   5.880  15.475 -0.9469 -0.2863 -1.0582
13613TIP3   OH262253   6.548   5.288   5.548  0.1440  0.1319 -0.1018
13613TIP3    H162254   6.624   5.293   5.606 -0.7994 -0.4094  1.2165
13613TIP3    H262255   6.546   5.373   5.504  0.0754  1.1056  1.7151
13614TIP3   OH262256   5.010   2.749   2.118  0.5740  0.3786  0.0412
13614TIP3    H162257   5.029   2.687   2.047  3.9637 -1.3288  2.2714
13614TIP3    H262258   5.047   2.832   2.088  2.0254 -0.3348 -0.1734
13615TIP3   OH262259   4.443   0.500   5.328 -0.2398 -0.4527 -0.9873
13615TIP3    H162260   4.470   0.460   5.246  2.5975  1.8129 -1.2620
13615TIP3    H262261   4.430   0.593   5.307 -0.3367  0.0028  0.9312
13616TIP3   OH262262   2.368   0.829  14.350  0.1828  0.2624 -0.0780
13616TIP3    H162263   2.335   0.744  14.377  0.6336  0.4899  1.2432
13616TIP3    H262264   2.347   0.835  14.257  1.1280 -1.7543 -0.4459
13617TIP3   OH262265   6.492   3.382   0.770 -0.3721  0.5628  0.7584
13617TIP3    H162266   6.451   3.317   0.713 -1.0553  1.2390  0.4672
13617TIP3    H262267   6.419   3.427   0.811  0.0967  1.3049  0.7873
13618TIP3   OH262268   5.126   5.895  15.380  0.0189 -0.1686 -0.5861
13618TIP3    H162269   5.089   5.955  15.315  0.0609 -0.0973 -0.5441
13618TIP3    H262270   5.192   5.947  15.425  0.4777 -0.4257 -0.9535
13619TIP3   OH262271   6.699   2.944  12.061  0.0290 -0.4932 -0.0459
13619TIP3    H162272   6.702   3.003  11.986  0.9026 -0.7193 -0.1887
13619TIP3    H262273   6.705   2.856  12.024 -0.4523 -0.6404  0.2245
13620TIP3   OH262274   2.734   6.251   2.752  0.6313 -0.1384  0.3269
13620TIP3    H162275   2.787   6.173   2.765 -0.3074 -0.8022  0.2546
13620TIP3    H262276   2.755   6.280   2.663 -1.0737 -1.9385 -0.7115
13621TIP3   OH262277   6.737   6.052  14.548  0.1723 -0.0887  0.2161
13621TIP3    H162278   6.686   5.984  14.591 -0.8666  0.0872 -0.7348
13621TIP3    H262279   6.806   6.004  14.501  0.1193 -0.4076  0.4618
13622TIP3   OH262280   4.499   3.036   1.169 -0.8912 -0.0909  0.2005
13622TIP3    H162281   4.562   2.994   1.109 -0.7608 -1.8800  1.5667
13622TIP3    H262282   4.418   2.988   1.156 -0.7540 -0.7682  1.7501
13623TIP3   OH262283   1.904   6.620  12.641  0.0489  0.0450 -0.2159
13623TIP3    H162284   1.949   6.695  12.677 -2.5191  1.4061  0.2941
13623TIP3    H262285   1.909   6.553  12.709 -2.2241  1.6059  1.5858
13624TIP3   OH262286   2.842   0.411   4.188 -0.1388 -0.4928  0.0440
13624TIP3    H162287   2.863   0.480   4.126 -0.5551  0.0300  0.4731
13624TIP3    H262288   2.917   0.408   4.248 -0.2619 -0.1811  0.2191
13625TIP3   OH262289   4.267   4.833   4.539  0.2370  0.2307  0.1508
13625TIP3    H162290   4.266   4.795   4.627  0.7986 -0.5763 -0.1927
13625TIP3    H262291   4.233   4.922   4.551 -0.2290 -0.0732  1.0936
13626TIP3   OH262292   2.652   3.319  16.475 -0.2037  0.1428  0.0682
13626TIP3    H162293   2.691   3.380  16.412  0.2456  0.4283  0.6162
13626TIP3    H262294   2.595   3.374  16.530 -1.2308 -0.2411 -0.6050
13627TIP3   OH262295   6.178   6.331   1.093  0.9135 -0.5590  0.3344
13627TIP3    H162296   6.223   6.270   1.151  0.5424 -1.1559 -0.0075
13627TIP3    H262297   6.242   6.350   1.024  1.0842 -0.4378  0.5261
13628TIP3   OH262298   2.335   6.176  12.669 -0.1485  0.2424 -0.1799
13628TIP3    H162299   2.296   6.238  12.730 -0.5115  0.2582 -0.4288
13628TIP3    H262300   2.266   6.111  12.654 -0.2847  0.5885 -1.0791
13629TIP3   OH262301   5.916   4.453  12.306  0.2452 -0.4225  0.2862
13629TIP3    H162302   6.006   4.456  12.274  0.6641  0.4725  1.4765
13629TIP3    H262303   5.874   4.383  12.256  1.5696 -0.7702 -0.3548
13630TIP3   OH262304   4.513   0.792  16.319 -0.4017 -0.3201  0.3060
13630TIP3    H162305   4.481   0.704  16.300  0.1055 -0.4943  0.2683
13630TIP3    H262306   4.489   0.806  16.411 -0.9744 -0.2819  0.1544
13631TIP3   OH262307   4.959   3.539   4.373 -0.2230 -0.0887 -0.1228
13631TIP3    H162308   4.904   3.542   4.452 -0.8037 -2.4990 -0.4059
13631TIP3    H262309   5.019   3.466   4.389 -0.1164 -0.3675 -1.7637
13632TIP3   OH262310   1.500   0.076   1.697  0.2343  0.3018 -0.0796
13632TIP3    H162311   1.446   0.055   1.773 -0.3922 -1.7728 -1.0659
13632TIP3    H262312   1.588   0.049   1.721  0.1178  0.0505  0.0604
13633TIP3   OH262313   4.487   3.334   4.656  0.4302 -0.2570  0.0977
13633TIP3    H162314   4.443   3.417   4.640 -1.3585 -1.0141  0.9618
13633TIP3    H262315   4.478   3.286   4.573 -2.0096 -1.1121  0.8075
13634TIP3   OH262316   6.561   0.734   3.157 -0.0626  0.2648 -0.1301
13634TIP3    H162317   6.569   0.662   3.095  0.2439  0.6465 -0.5290
13634TIP3    H262318   6.471   0.729   3.189 -0.0845 -0.2002 -0.2734
13635TIP3   OH262319   4.590   6.012  11.187 -0.0911 -0.5272  0.0181
13635TIP3    H162320   4.562   6.084  11.131  1.9950 -0.7066 -1.3007
13635TIP3    H262321   4.627   5.947  11.127  0.6042 -1.4780  1.4389
13636TIP3   OH262322   0.566   1.728   4.555  0.1116 -0.0484  0.2061
13636TIP3    H162323   0.480   1.744   4.595  0.5139  1.2103  0.6019
13636TIP3    H262324   0.546   1.688   4.470 -0.8568  0.0036  0.4026
13637TIP3   OH262325   4.322   0.324   0.230 -0.2110  0.0110  0.6995
13637TIP3    H162326   4.296   0.263   0.299 -0.8390 -0.4420  0.0701
13637TIP3    H262327   4.373   0.271   0.168 -0.9451  0.0617  0.0374
13638TIP3   OH262328   0.917   4.342  16.667  0.5058 -0.1136 -0.8426
13638TIP3    H162329   0.943   4.431  16.644  0.9541  0.2563  0.9784
13638TIP3    H262330   0.995   4.303  16.706 -0.0147 -0.9241 -0.5950
13639TIP3   OH262331   2.268   3.356   2.880 -0.3160  0.1009 -0.2785
13639TIP3    H162332   2.250   3.284   2.940 -0.5499  0.6717  0.3478
13639TIP3    H262333   2.357   3.384   2.903 -1.1340  1.6098  1.1761
13640TIP3   OH262334   5.787   4.850   5.981 -0.2906  0.3251 -0.0860
13640TIP3    H162335   5.797   4.886   5.893 -0.8112 -0.1937 -0.3600
13640TIP3    H262336   5.875   4.819   6.004 -0.7148 -2.0877 -1.5588
13641TIP3   OH262337   4.086   6.772   5.328 -0.3834  0.1114 -0.1649
13641TIP3    H162338   4.051   6.684   5.338 -1.6223  0.5454 -0.5937
13641TIP3    H262339   4.009   6.828   5.316  0.2621  1.5388  2.0572
13642TIP3   OH262340   3.526   3.485  11.192  0.3772 -0.4044  0.1372
13642TIP3    H162341   3.567   3.507  11.275 -0.2637 -0.3309  0.4322
13642TIP3    H262342   3.494   3.395  11.204  2.3234 -1.2777 -0.8087
13643TIP3   OH262343   0.102   2.974   0.957  0.7000  0.1153 -0.2270
13643TIP3    H162344   0.151   2.995   0.877  2.0420 -1.1094  0.2584
13643TIP3    H262345   0.162   2.920   1.009 -1.2191 -1.6024  0.2874
13644TIP3   OH262346   3.442   5.600  15.559  0.5670 -0.1485 -0.1215
13644TIP3    H162347   3.448   5.641  15.645  1.1744  0.4408 -0.4371
13644TIP3    H262348   3.486   5.661  15.500  2.4156 -1.7549 -0.4462
13645TIP3   OH262349   1.985   1.794  14.860  0.3452 -0.0261 -0.0273
13645TIP3    H162350   1.988   1.868  14.799 -0.7313  0.5960  0.6662
13645TIP3    H262351   2.002   1.832  14.946 -0.2431 -0.5669  0.3382
13646TIP3   OH262352   4.804   4.601  12.147  0.5072  0.2272  0.2054
13646TIP3    H162353   4.765   4.657  12.214  2.0209 -0.1513  1.4531
13646TIP3    H262354   4.834   4.524  12.195  1.6902 -0.0195 -0.8814
13647TIP3   OH262355   3.142   6.630  11.224 -0.6245 -0.0890  0.1526
13647TIP3    H162356   3.094   6.559  11.266  0.1285  0.8045  2.6355
13647TIP3    H262357   3.234   6.611  11.242 -0.1639 -0.4396 -2.3847
13648TIP3   OH262358   3.709   3.237  11.638 -0.1451 -0.0569 -0.5802
13648TIP3    H162359   3.707   3.320  11.685  0.4439  0.4902 -1.4942
13648TIP3    H262360   3.664   3.255  11.555 -2.1344 -1.2901  0.1948
13649TIP3   OH262361   2.500   3.854   4.202 -0.5267  0.0790  0.1557
13649TIP3    H162362   2.455   3.915   4.143  0.3339 -0.7128 -1.3618
13649TIP3    H262363   2.586   3.892   4.214 -0.5834  0.0588  0.6101
13650TIP3   OH262364   3.828   3.802   1.721 -0.1644  0.8874 -0.5001
13650TIP3    H162365   3.749   3.853   1.736 -1.2831 -0.6058 -1.2528
13650TIP3    H262366   3.802   3.711   1.734  2.1457  0.5577  2.1898
13651TIP3   OH262367   2.983   4.534   0.385  0.3526 -0.6080 -0.3375
13651TIP3    H162368   2.954   4.458   0.335  0.4488 -0.5456 -0.4880
13651TIP3    H262369   2.951   4.609   0.334 -0.8231 -0.5634  0.4504
13652TIP3   OH262370   5.753   5.795   6.611  0.4942 -0.1262  0.4827
13652TIP3    H162371   5.737   5.872   6.556  0.1560 -0.3372  0.2860
13652TIP3    H262372   5.679   5.793   6.672  1.8506  1.2373  2.2524
13653TIP3   OH262373   4.088   3.859  11.613  0.4981  0.2999 -0.4923
13653TIP3    H162374   4.102   3.837  11.705  1.0367  0.2352 -0.5875
13653TIP3    H262375   4.174   3.887  11.582  0.5069 -0.5161 -1.2081
13654TIP3   OH262376   2.523   3.566  16.085 -0.3362  0.1288  0.2657
13654TIP3    H162377   2.616   3.543  16.075 -0.6159 -0.8044 -0.1350
13654TIP3    H262378   2.477   3.509  16.024 -1.2958 -0.2280  1.3155
13655TIP3   OH262379   5.002   1.495   2.580 -0.2219  0.0432  0.0006
13655TIP3    H162380   4.953   1.541   2.512 -0.4108 -0.2651 -0.0754
13655TIP3    H262381   5.042   1.421   2.535  1.7877  1.2822 -0.3080
13656TIP3   OH262382   3.136   3.551  13.089  0.0874 -0.7088 -0.7513
13656TIP3    H162383   3.172   3.603  13.017 -1.2220  1.4168  0.1101
13656TIP3    H262384   3.041   3.555  13.076 -0.1336 -0.6985  0.8434
13657TIP3   OH262385   6.054   3.136  13.761 -0.7720 -0.2594 -0.3912
13657TIP3    H162386   5.976   3.086  13.739  0.7890 -2.8370 -0.3150
13657TIP3    H262387   6.117   3.113  13.692  0.0798  1.4261 -0.2015
13658TIP3   OH262388   5.487   1.373  13.095 -0.9542  0.5554 -0.4414
13658TIP3    H162389   5.499   1.284  13.060  1.3925  1.1645 -1.3145
13658TIP3    H262390   5.510   1.366  13.187 -0.1821  0.3775 -0.6473
13659TIP3   OH262391   1.630   5.087  14.257  0.1174 -0.0852 -0.5523
13659TIP3    H162392   1.716   5.046  14.271 -0.6394 -1.3743  0.4713
13659TIP3    H262393   1.619   5.088  14.162  0.0721 -2.4920 -0.6080
13660TIP3   OH262394   2.202   5.685   5.539 -0.5512 -0.2851  0.3149
13660TIP3    H162395   2.197   5.743   5.615 -0.8265  0.1022  0.0072
13660TIP3    H262396   2.124   5.631   5.545 -1.4025  0.8271 -0.5507
13661TIP3   OH262397   0.792   6.423   2.832  0.2751 -0.0509  0.6252
13661TIP3    H162398   0.713   6.475   2.813  0.9917  0.6234 -0.5807
13661TIP3    H262399   0.781   6.396   2.923  0.5510  3.4358  1.7860
13662TIP3   OH262400   3.251   3.830  16.196  0.1666  0.3011 -0.5782
13662TIP3    H162401   3.232   3.900  16.258 -1.3093  0.8173 -1.5813
13662TIP3    H262402   3.210   3.752  16.233  0.4942  0.2942 -0.2257
13663TIP3   OH262403   1.574   1.126  11.588 -0.7541 -0.3292 -0.1283
13663TIP3    H162404   1.644   1.153  11.648 -2.0868  0.8085  0.9604
13663TIP3    H262405   1.583   1.184  11.513  0.1106 -0.8901 -0.4709
13664TIP3   OH262406   0.073   1.712  16.895  0.8647 -0.2818  0.0976
13664TIP3    H162407   0.041   1.801  16.883  1.1693 -0.1832  0.0133
13664TIP3    H262408  -0.003   1.656  16.877  0.6658 -0.0376  0.1941
13665TIP3   OH262409   4.642   3.073  14.846 -0.2159 -0.1908  0.0663
13665TIP3    H162410   4.687   2.996  14.879 -0.6852 -0.3787  0.2726
13665TIP3    H262411   4.550   3.057  14.865 -0.6348 -0.8002 -2.3093
13666TIP3   OH262412   5.161   0.030  14.009  0.0697 -0.2671 -0.4887
13666TIP3    H162413   5.256   0.019  14.003  0.1454  0.1680 -0.0995
13666TIP3    H262414   5.136   0.071  13.926  0.1781 -0.6538 -0.7156
13667TIP3   OH262415   0.703   4.388   2.676 -0.0651 -0.1560  0.3832
13667TIP3    H162416   0.763   4.458   2.648 -0.9236 -0.0361 -1.2067
13667TIP3    H262417   0.752   4.307   2.662  0.4880  0.0482  1.0854
13668TIP3   OH262418   2.786   5.082  16.280 -0.2296  0.7294 -0.1878
13668TIP3    H162419   2.757   4.991  16.272  0.0241  0.4374  1.9097
13668TIP3    H262420   2.829   5.101  16.197  0.4699 -1.3474 -0.3283
13669TIP3   OH262421   5.622   5.293  16.389 -0.2087 -0.1972  0.5061
13669TIP3    H162422   5.610   5.225  16.323 -0.5734  0.0053  0.3664
13669TIP3    H262423   5.551   5.278  16.452  0.2004 -0.4560  0.9122
13670TIP3   OH262424   6.746   6.060  11.439  0.6076  0.3259  0.0310
13670TIP3    H162425   6.659   6.099  11.448 -0.2776 -1.7103  0.5783
13670TIP3    H262426   6.757   6.048  11.345 -0.8417 -1.8251  0.0969
13671TIP3   OH262427   6.554   4.800   4.554  0.1752 -0.2352 -0.1845
13671TIP3    H162428   6.477   4.816   4.608  0.6719  1.5583  0.0143
13671TIP3    H262429   6.611   4.875   4.570  2.7750 -2.3946  1.0810
13672TIP3   OH262430   2.617   0.453  16.265  0.3451 -0.5229 -0.2229
13672TIP3    H162431   2.545   0.397  16.294 -0.8975  1.0732 -0.1705
13672TIP3    H262432   2.666   0.472  16.346  0.1014 -0.5809 -0.0613
13673TIP3   OH262433   3.763   3.182  13.024  0.1264 -0.4037 -0.1613
13673TIP3    H162434   3.803   3.199  13.110 -0.7971  0.7150  0.0618
13673TIP3    H262435   3.672   3.159  13.045 -0.2022  0.2498 -0.8588
13674TIP3   OH262436   1.057   5.651   5.623  0.3007  0.1731 -0.1567
13674TIP3    H162437   1.108   5.724   5.587 -0.0301  1.3898  1.7617
13674TIP3    H262438   0.970   5.687   5.638  0.6642  0.0358  2.7146
13675TIP3   OH262439   1.466   0.826   1.013  0.1477  0.1820 -0.1628
13675TIP3    H162440   1.502   0.796   1.096  1.6748 -0.3713 -1.0166
13675TIP3    H262441   1.393   0.766   0.995 -0.9050  0.9799  1.3004
13676TIP3   OH262442   5.438   1.791  16.197  0.5903  0.4284  0.2072
13676TIP3    H162443   5.516   1.743  16.223  1.5447  1.9266  0.1669
13676TIP3    H262444   5.376   1.724  16.170  2.2624 -0.7092 -0.8386
13677TIP3   OH262445   0.246   1.795   0.391  0.4378 -0.2792 -0.0892
13677TIP3    H162446   0.236   1.721   0.331  1.3485 -0.2778 -0.2482
13677TIP3    H262447   0.303   1.762   0.461  0.5197  0.1474  0.0480
13678TIP3   OH262448   3.781   0.547   1.171 -0.2642  0.1835  0.0645
13678TIP3    H162449   3.793   0.456   1.142 -1.1287 -0.1597  0.7497
13678TIP3    H262450   3.705   0.578   1.122  1.5185  1.3566 -2.0094
13679TIP3   OH262451   6.564   5.660   4.108 -0.4762 -0.1466 -0.0578
13679TIP3    H162452   6.621   5.584   4.105 -1.5499 -1.0429  1.4448
13679TIP3    H262453   6.480   5.628   4.075 -1.1462  0.1681  1.3015
13680TIP3   OH262454   5.154   5.747   0.498 -0.3511 -0.1846  0.3680
13680TIP3    H162455   5.234   5.798   0.509 -0.3951 -0.3580  1.4894
13680TIP3    H262456   5.084   5.803   0.530 -0.4460 -0.7838  1.2362
13681TIP3   OH262457   0.358   0.324   0.209 -0.8207  0.0304  0.2539
13681TIP3    H162458   0.276   0.278   0.190 -0.1446 -0.0675 -2.6207
13681TIP3    H262459   0.422   0.254   0.223 -1.0547  0.1087  1.7694
13682TIP3   OH262460   5.567   1.701   0.814  0.0324 -0.3739 -0.3061
13682TIP3    H162461   5.576   1.783   0.864  0.3040 -0.6009  0.0157
13682TIP3    H262462   5.625   1.640   0.858 -2.0909 -1.4960  1.0345
13683TIP3   OH262463   4.973   5.249   3.120  0.2542  0.0450  0.2461
13683TIP3    H162464   4.920   5.232   3.197 -0.1386  1.0773  0.2109
13683TIP3    H262465   4.912   5.284   3.055  1.2206  2.7970  0.7485
13684TIP3   OH262466   2.225   6.565   1.999 -0.1674  0.0437  0.2896
13684TIP3    H162467   2.174   6.486   2.016 -0.4021  0.1003 -0.1469
13684TIP3    H262468   2.245   6.561   1.906  1.7407 -0.6322  0.7108
13685TIP3   OH262469   3.618   6.780   1.432  0.0602 -0.1621  0.2532
13685TIP3    H162470   3.579   6.848   1.377  0.8745  0.4107  0.3659
13685TIP3    H262471   3.712   6.788   1.416  0.1719 -1.1468  0.4087
13686TIP3   OH262472   6.451   1.413  12.880  0.0887  0.1188 -0.4405
13686TIP3    H162473   6.409   1.477  12.938  0.0522 -1.1193  0.9273
13686TIP3    H262474   6.506   1.361  12.938 -0.5428 -1.6372 -1.3968
13687TIP3   OH262475   6.250   0.735   4.162 -0.2488 -0.1297  0.0408
13687TIP3    H162476   6.273   0.710   4.252  0.9593  2.7540  0.5923
13687TIP3    H262477   6.164   0.776   4.170  0.3807  1.2027  0.0894
13688TIP3   OH262478   1.191   5.090   4.573 -0.2899  0.0937 -0.3054
13688TIP3    H162479   1.219   5.081   4.482  0.0552 -0.9578 -0.1018
13688TIP3    H262480   1.239   5.167   4.605 -1.7423  1.5190 -1.4982
13689TIP3   OH262481   4.801   1.059  10.387 -0.0337 -0.0106 -0.4972
13689TIP3    H162482   4.850   0.979  10.371 -1.3356 -0.6980 -1.0917
13689TIP3    H262483   4.801   1.069  10.482 -0.0772 -0.8560 -0.4058
13690TIP3   OH262484   0.659   1.122  14.073  0.6108 -0.0720 -0.8183
13690TIP3    H162485   0.645   1.068  14.150  1.7384  0.9527  0.1260
13690TIP3    H262486   0.655   1.212  14.105  0.7022  0.3800 -2.0201
13691TIP3   OH262487   5.661   1.599   4.988 -0.3577 -0.2574 -0.3819
13691TIP3    H162488   5.711   1.540   5.044 -0.9411 -0.9098 -0.5484
13691TIP3    H262489   5.668   1.685   5.031  1.6657 -0.1324 -0.8694
13692TIP3   OH262490   4.296   0.160  15.001  0.1204 -0.8145  0.1080
13692TIP3    H162491   4.203   0.141  15.014  0.4698 -1.8850  1.1697
13692TIP3    H262492   4.315   0.233  15.060 -0.2849  0.1211 -0.9072
13693TIP3   OH262493   4.998   2.235  16.069  0.1407  0.3971  0.0223
13693TIP3    H162494   5.038   2.232  16.156  0.1667  1.7183  0.0686
13693TIP3    H262495   4.972   2.326  16.058  0.2780  0.2742 -1.4197
13694TIP3   OH262496   5.108   5.528   5.810  0.0718  0.0209 -0.3152
13694TIP3    H162497   5.148   5.474   5.741  0.3439  0.2816 -0.3644
13694TIP3    H262498   5.183   5.570   5.854 -0.1175  0.0916 -0.0581
13695TIP3   OH262499   4.112   3.970   3.134  0.3318 -0.3058 -0.1797
13695TIP3    H162500   4.106   3.875   3.143 -0.1236 -0.2236  0.3773
13695TIP3    H262501   4.049   3.992   3.066 -1.1480 -0.1577  1.2240
13696TIP3   OH262502   6.020   2.934  11.228 -0.7195 -0.9108  0.2215
13696TIP3    H162503   5.983   2.866  11.173 -1.6808 -0.4094  0.2419
13696TIP3    H262504   6.037   2.890  11.312 -0.6346 -1.2996  0.0027
13697TIP3   OH262505   4.601   1.794  15.844 -0.1429  0.3767 -0.6073
13697TIP3    H162506   4.697   1.795  15.837  0.0107 -0.3323  1.1113
13697TIP3    H262507   4.577   1.883  15.869  0.1207  0.4176 -0.5012
13698TIP3   OH262508   3.960   6.186   3.671 -0.0684 -0.6656  0.0802
13698TIP3    H162509   3.993   6.155   3.586 -1.4034 -1.7796 -0.0591
13698TIP3    H262510   3.969   6.110   3.729 -0.3536 -0.3066  0.6001
13699TIP3   OH262511   5.706   3.071  16.964 -0.3212  0.3515 -0.2189
13699TIP3    H162512   5.617   3.105  16.953 -0.0332  0.5450 -2.0293
13699TIP3    H262513   5.693   2.979  16.989 -1.0413 -0.9364 -4.9004
13700TIP3   OH262514   1.740   4.266   2.355 -0.4721  0.5073 -0.2126
13700TIP3    H162515   1.760   4.297   2.267 -1.7358  1.2973 -0.2220
13700TIP3    H262516   1.812   4.206   2.376 -0.1115  0.3893 -1.7370
13701TIP3   OH262517   4.014   2.628   0.394  0.6165 -0.0116 -0.3961
13701TIP3    H162518   4.017   2.706   0.338  2.9818 -0.0002 -0.2871
13701TIP3    H262519   4.054   2.559   0.342 -2.8078 -1.5756 -1.0569
13702TIP3   OH262520   2.123   6.412   5.910 -0.2920  0.8358  0.1011
13702TIP3    H162521   2.073   6.348   5.860 -0.3170  1.3210 -0.5122
13702TIP3    H262522   2.148   6.367   5.990  0.4516 -0.2307 -0.7157
13703TIP3   OH262523   6.100   0.897   6.507  0.3836  0.0936  0.0920
13703TIP3    H162524   6.128   0.818   6.459 -0.9109  1.3296 -2.8535
13703TIP3    H262525   6.173   0.958   6.495  0.7141 -0.1049  1.0485
13704TIP3   OH262526   6.580   1.537  12.029 -0.4203  0.1806  0.1399
13704TIP3    H162527   6.517   1.509  11.963 -1.0769 -0.5179  1.0647
13704TIP3    H262528   6.527   1.568  12.102  0.2927 -0.6479  1.0298
13705TIP3   OH262529   1.645   1.163  16.882 -0.0227 -0.3411  0.2924
13705TIP3    H162530   1.696   1.208  16.814  0.6319  2.5942  2.5992
13705TIP3    H262531   1.711   1.119  16.936 -0.2109  0.3558  1.1058
13706TIP3   OH262532   3.908   4.522   3.151  0.1955  0.4550 -0.3172
13706TIP3    H162533   3.995   4.495   3.123 -0.3874  0.1426 -1.8679
13706TIP3    H262534   3.885   4.460   3.221  1.9675  1.7190  1.4296
13707TIP3   OH262535   6.206   0.871  16.309  0.3035  0.1439 -0.4151
13707TIP3    H162536   6.236   0.898  16.222  1.2952  0.4956  0.0207
13707TIP3    H262537   6.286   0.842  16.353 -0.5360 -2.3260 -0.4286
13708TIP3   OH262538   1.611   2.095   1.458  0.1074 -0.2564  1.0087
13708TIP3    H162539   1.533   2.038   1.450  1.0352 -1.2732 -1.4457
13708TIP3    H262540   1.684   2.034   1.457  1.0022  0.8069  1.6436
13709TIP3   OH262541   4.130   0.722  16.435 -0.0175  0.1782  0.5472
13709TIP3    H162542   4.064   0.790  16.423  0.0132  0.3472  1.3444
13709TIP3    H262543   4.079   0.641  16.440 -0.1655  0.3147  1.2217
13710TIP3   OH262544   0.254   1.712   1.677  0.2144  0.5196 -0.8932
13710TIP3    H162545   0.244   1.676   1.765  0.2126  0.5833 -0.8674
13710TIP3    H262546   0.316   1.654   1.634  0.5043  0.7073 -0.7281
13711TIP3   OH262547   1.957   4.180   4.266 -0.1534 -0.1309 -0.1279
13711TIP3    H162548   1.932   4.159   4.356  2.2875  2.5558  1.2667
13711TIP3    H262549   1.874   4.184   4.218 -1.4137 -2.6015  1.7389
13712TIP3   OH262550   1.175   2.419  12.222  0.1842  0.3018  0.3426
13712TIP3    H162551   1.129   2.503  12.222  0.0317  0.2195  0.2994
13712TIP3    H262552   1.259   2.437  12.264 -0.2439  0.2614  1.2400
13713TIP3   OH262553   4.593   4.774  17.227 -0.0823 -0.5047 -0.1163
13713TIP3    H162554   4.521   4.741  17.281 -0.3396 -1.1461 -0.8244
13713TIP3    H262555   4.643   4.695  17.204  0.6059 -0.1102  0.0334
13714TIP3   OH262556   1.377   0.728   4.760 -0.1768 -0.8774 -0.1069
13714TIP3    H162557   1.321   0.669   4.709 -0.7117  0.1472 -0.7177
13714TIP3    H262558   1.316   0.784   4.807  0.3375  0.0109 -0.5013
13715TIP3   OH262559   0.635   6.548  13.824  0.4345  0.2407  0.0625
13715TIP3    H162560   0.553   6.501  13.842  0.4508  0.5160  0.8897
13715TIP3    H262561   0.664   6.577  13.910  1.1223  0.6145 -0.2994
13716TIP3   OH262562   1.164   2.215   1.287 -0.6416  0.1205 -0.8105
13716TIP3    H162563   1.257   2.234   1.273 -0.6120  1.2790  0.8853
13716TIP3    H262564   1.146   2.246   1.375 -2.7824  0.4041 -1.3219
13717TIP3   OH262565   2.623   0.928   3.432  0.1322  0.0195 -0.1293
13717TIP3    H162566   2.597   0.988   3.362 -0.2779  1.3453  1.1366
13717TIP3    H262567   2.545   0.919   3.486  0.5884 -0.6193  0.4281
13718TIP3   OH262568   0.706   4.692  13.310 -0.0014 -0.0996  0.4794
13718TIP3    H162569   0.653   4.736  13.377  2.4205 -0.0073  2.4275
13718TIP3    H262570   0.745   4.764  13.260 -0.2590 -0.1419  0.2152
13719TIP3   OH262571   4.699   6.013  16.541  0.0723 -0.2492  0.1313
13719TIP3    H162572   4.709   5.978  16.629 -2.0135 -0.1142  0.4584
13719TIP3    H262573   4.730   5.942  16.484  2.2580  0.0044  0.9695
13720TIP3   OH262574   3.220   5.862   1.808 -0.5095  0.6396 -0.2877
13720TIP3    H162575   3.181   5.946   1.786 -0.1923  1.0719  0.7852
13720TIP3    H262576   3.149   5.812   1.847 -0.0001  1.4501  1.7242
13721TIP3   OH262577   3.504   5.137  10.322 -0.0873  0.4638  0.5737
13721TIP3    H162578   3.470   5.199  10.387  0.6474  2.6841 -1.0811
13721TIP3    H262579   3.442   5.142  10.249  1.1873  0.9738 -0.5003
13722TIP3   OH262580   2.967   3.628  14.146 -0.0711  0.7451 -0.2515
13722TIP3    H162581   2.995   3.718  14.129  2.0291  0.0717 -0.4798
13722TIP3    H262582   2.963   3.622  14.242 -3.2358  1.9360 -0.2342
13723TIP3   OH262583   2.276   2.954   0.003 -0.0719 -0.3708  0.1466
13723TIP3    H162584   2.211   2.893  -0.032  0.0006 -1.1006  1.2595
13723TIP3    H262585   2.246   2.973   0.092 -1.1143  2.6937 -0.7749
13724TIP3   OH262586   1.608   2.032  14.558 -0.1162 -0.0561  0.7223
13724TIP3    H162587   1.682   2.043  14.498 -0.4990  0.0840  0.2726
13724TIP3    H262588   1.646   1.989  14.635  0.2208 -0.9336  0.0679
13725TIP3   OH262589   1.520   1.495  11.905 -0.1275  0.3517 -0.6776
13725TIP3    H162590   1.447   1.504  11.967  0.5294 -0.4904  0.2457
13725TIP3    H262591   1.488   1.437  11.837 -0.3897  0.1627 -0.3909
13726TIP3   OH262592   3.689   2.765  17.206 -0.0685  0.5811  0.0790
13726TIP3    H162593   3.640   2.693  17.167  0.3038 -0.1344  0.9151
13726TIP3    H262594   3.634   2.793  17.280  1.0683 -0.6376  1.4024
13727TIP3   OH262595   1.260   5.954   2.084  0.3652  0.4304 -0.7268
13727TIP3    H162596   1.189   5.969   2.147  0.7482 -0.9224  0.0608
13727TIP3    H262597   1.238   6.009   2.009 -1.3528  0.2686 -0.3676
13728TIP3   OH262598   3.375   2.736  12.211  0.3284 -0.6392  0.1144
13728TIP3    H162599   3.393   2.748  12.304  0.8059  0.2397 -0.0866
13728TIP3    H262600   3.446   2.680  12.180  1.6950  1.2477 -0.2732
13729TIP3   OH262601   3.007   5.718   1.407  0.3679  0.4402  0.8812
13729TIP3    H162602   3.047   5.735   1.322 -1.6564  0.8722 -0.0271
13729TIP3    H262603   2.968   5.801   1.433 -1.6651 -0.4470  0.7728
13730TIP3   OH262604   5.976   0.637   5.302  0.0155 -0.1535 -0.4282
13730TIP3    H162605   5.985   0.542   5.313 -0.2695 -0.2675 -1.1607
13730TIP3    H262606   6.064   0.671   5.315  0.0657 -0.4861  0.1430
13731TIP3   OH262607   6.232   0.298  14.691  0.3518  0.0054  0.5483
13731TIP3    H162608   6.139   0.316  14.703  0.2018 -0.9845  0.9037
13731TIP3    H262609   6.242   0.206  14.715  1.2032 -0.2367 -0.7265
13732TIP3   OH262610   2.369   6.198  14.275 -0.4369 -0.5121 -0.2681
13732TIP3    H162611   2.400   6.256  14.345  0.9259 -0.4998 -0.8560
13732TIP3    H262612   2.296   6.245  14.235  0.4904  0.6927 -0.5673
13733TIP3   OH262613   4.308   0.755  14.022  0.5053  0.2612  0.1830
13733TIP3    H162614   4.231   0.720  13.977 -0.0035  0.2913  1.0110
13733TIP3    H262615   4.274   0.784  14.107  1.3215  0.8246  0.3161
13734TIP3   OH262616   4.003   6.410   0.488  0.5320 -0.3819 -0.0461
13734TIP3    H162617   4.034   6.325   0.519  1.5865 -0.3955 -1.1259
13734TIP3    H262618   3.962   6.450   0.566 -0.2234 -1.9668  0.3981
13735TIP3   OH262619   2.862   0.146  12.166  0.4765  0.3287  0.2064
13735TIP3    H162620   2.883   0.108  12.081  2.4423 -0.3491  0.9573
13735TIP3    H262621   2.929   0.214  12.179 -2.4732  3.5703 -0.7532
13736TIP3   OH262622   5.044   4.467   4.954  0.2503  0.0294  0.4493
13736TIP3    H162623   5.101   4.425   4.889 -1.1299  0.7220 -1.2736
13736TIP3    H262624   4.998   4.395   4.997 -0.6821 -0.3479 -1.1363
13737TIP3   OH262625   1.115   5.397   5.516  0.5216  0.1777  0.3745
13737TIP3    H162626   1.080   5.475   5.560  0.8361  0.2661  0.4688
13737TIP3    H262627   1.057   5.326   5.542  2.4292 -0.3747  3.3322
13738TIP3   OH262628   4.690   2.269   5.433 -0.4585  0.4767 -0.2885
13738TIP3    H162629   4.681   2.196   5.372 -0.0078  1.4085 -1.4987
13738TIP3    H262630   4.615   2.325   5.414 -0.1970  0.8766 -0.1391
13739TIP3   OH262631   4.697   4.173   1.114 -0.4302  0.0577 -0.2461
13739TIP3    H162632   4.756   4.101   1.135 -0.2684  0.4329  0.6271
13739TIP3    H262633   4.755   4.242   1.081 -0.7989 -0.9585 -3.2100
13740TIP3   OH262634   4.722   6.682  10.901  0.0624 -0.0543 -0.2685
13740TIP3    H162635   4.793   6.746  10.899 -0.3241  0.5290  2.6877
13740TIP3    H262636   4.760   6.605  10.943 -0.9842  0.2486  1.2926
13741TIP3   OH262637   0.311   0.315   2.406  0.0554  0.3891  0.3901
13741TIP3    H162638   0.231   0.267   2.428  1.2271 -2.1657 -0.6757
13741TIP3    H262639   0.281   0.389   2.354 -1.5376 -1.0791 -0.8301
13742TIP3   OH262640   6.216   0.611   1.735  0.1428 -0.0879  0.1186
13742TIP3    H162641   6.175   0.526   1.749  0.4695 -0.4599 -1.1818
13742TIP3    H262642   6.240   0.640   1.823  1.4058 -2.0254  0.4550
13743TIP3   OH262643   3.904   0.846  16.902 -0.2530 -0.6272 -0.5901
13743TIP3    H162644   3.916   0.926  16.952  1.1782 -0.3404 -1.3492
13743TIP3    H262645   3.874   0.782  16.966 -2.0881  0.6814 -0.1176
13744TIP3   OH262646   4.708   2.640  14.193 -0.0048 -0.6420  0.3923
13744TIP3    H162647   4.662   2.704  14.248 -0.0952 -0.0425 -0.3742
13744TIP3    H262648   4.788   2.684  14.166  0.0593 -0.9523  0.0731
13745TIP3   OH262649   0.412   5.243   4.892  0.4923 -0.1056 -0.4942
13745TIP3    H162650   0.469   5.173   4.861 -0.1052 -1.1565  0.7435
13745TIP3    H262651   0.341   5.198   4.938 -0.7528  1.2311 -1.0599
13746TIP3   OH262652   5.850   4.169  12.286  0.0284  0.1466 -0.0416
13746TIP3    H162653   5.923   4.152  12.346 -0.0048 -1.1464 -0.3629
13746TIP3    H262654   5.890   4.170  12.199 -0.1322  0.7511 -0.1126
13747TIP3   OH262655   0.713   0.446   3.442 -0.4365 -0.0623  0.0358
13747TIP3    H162656   0.714   0.433   3.347 -1.5870 -1.9392  0.2464
13747TIP3    H262657   0.646   0.385   3.473  0.6400 -0.1857  2.1558
13748TIP3   OH262658   1.008   3.016   0.471  0.2492  0.0676  0.2823
13748TIP3    H162659   0.940   2.954   0.497  0.5884 -1.4005 -2.1688
13748TIP3    H262660   1.089   2.980   0.508  0.1903  0.0515  0.3976
13749TIP3   OH262661   4.918   0.230   4.160  0.1244 -0.3157 -0.2013
13749TIP3    H162662   4.912   0.307   4.105  1.4247  0.8081  1.1961
13749TIP3    H262663   5.011   0.208   4.161  0.2117  0.0486  1.9962
13750TIP3   OH262664   6.728   1.212   6.243 -0.2946  0.7606 -0.6059
13750TIP3    H162665   6.721   1.263   6.324  2.0701 -2.9943  2.1233
13750TIP3    H262666   6.653   1.153   6.245  0.1008  0.2469 -0.8764
13751TIP3   OH262667   0.016   5.880  13.411 -0.3751  0.2759 -0.5969
13751TIP3    H162668  -0.061   5.832  13.441 -1.0222  1.4344 -0.3814
13751TIP3    H262669  -0.013   5.971  13.406  0.0454  0.3172 -3.5525
13752TIP3   OH262670   2.552   2.726  16.091 -0.3627  0.8942 -0.0570
13752TIP3    H162671   2.628   2.679  16.057 -1.0301  0.3943 -0.8723
13752TIP3    H262672   2.528   2.679  16.170 -0.0784  0.8059 -0.0230
13753TIP3   OH262673   1.766   1.570   0.009 -0.5336 -0.0511 -0.2616
13753TIP3    H162674   1.743   1.623   0.085  1.0816  0.1930  0.0674
13753TIP3    H262675   1.855   1.541   0.026 -0.1334  0.0682 -2.1132
13754TIP3   OH262676   1.302   2.717  13.187 -0.0512  0.2008 -0.8825
13754TIP3    H162677   1.364   2.763  13.130  0.1708 -0.2586 -1.0116
13754TIP3    H262678   1.291   2.631  13.146 -0.0355 -0.0641 -0.3334
13755TIP3   OH262679   6.168   4.416   3.019 -0.0202 -0.3550 -0.1280
13755TIP3    H162680   6.179   4.344   3.080 -2.3431  0.9128  1.8642
13755TIP3    H262681   6.241   4.474   3.037 -0.0867 -0.5229  0.6913
13756TIP3   OH262682   0.171   5.208   4.376 -0.0806 -0.3573 -0.3099
13756TIP3    H162683   0.186   5.181   4.466  0.7278 -1.0358 -0.6376
13756TIP3    H262684   0.213   5.293   4.368  2.4778 -1.6215 -0.8401
13757TIP3   OH262685   6.522   2.005   2.137 -0.3933  0.5338 -0.2736
13757TIP3    H162686   6.606   2.050   2.127 -1.4486  2.3145 -1.3280
13757TIP3    H262687   6.540   1.936   2.201  2.7210 -1.3414 -3.0304
13758TIP3   OH262688   5.958   6.244  14.678 -0.1842 -0.0385  0.1214
13758TIP3    H162689   5.999   6.162  14.706  1.1031  0.6917  0.3914
13758TIP3    H262690   6.026   6.289  14.627 -0.7812  0.9903  0.2199
13759TIP3   OH262691   2.903   4.239   6.096 -0.5837  0.0996  0.3754
13759TIP3    H162692   2.947   4.288   6.026 -0.0257 -0.5264  0.2778
13759TIP3    H262693   2.942   4.272   6.177  1.5761 -1.8730  0.2023
13760TIP3   OH262694   3.043   5.344  13.613 -0.0384  0.4351  0.2008
13760TIP3    H162695   2.974   5.406  13.634 -0.1417  0.4278 -0.1119
13760TIP3    H262696   3.052   5.350  13.518  0.7555  0.8295  0.2886
13761TIP3   OH262697   2.787   5.090   4.949 -0.2588 -0.1458 -0.6683
13761TIP3    H162698   2.721   5.050   4.892 -0.2638 -0.2444 -0.5933
13761TIP3    H262699   2.751   5.175   4.972 -0.1678 -0.0217 -0.9770
13762TIP3   OH262700   3.166   4.769   2.133 -0.2277  0.2410  0.1975
13762TIP3    H162701   3.114   4.812   2.065  0.0642  0.6055  0.2067
13762TIP3    H262702   3.167   4.832   2.205 -0.1963  0.0214  0.3878
13763TIP3   OH262703   6.486   6.280  12.908  0.4017  0.0102  0.0185
13763TIP3    H162704   6.475   6.219  12.836  2.1056  3.1885 -3.0788
13763TIP3    H262705   6.414   6.342  12.898  1.4998  1.3121  0.1629
13764TIP3   OH262706   4.701   0.530   1.435 -0.6896  0.5726  0.1858
13764TIP3    H162707   4.697   0.616   1.392 -2.0868  0.2608 -0.3401
13764TIP3    H262708   4.784   0.492   1.404 -0.4164  1.4313 -0.1622
13765TIP3   OH262709   1.796   0.629   3.695  0.4069  0.0419 -0.3717
13765TIP3    H162710   1.884   0.636   3.731 -0.3923 -0.9299  1.8224
13765TIP3    H262711   1.754   0.561   3.746 -1.2867 -0.2990 -2.1476
13766TIP3   OH262712   3.355   1.423  16.926 -0.1017  0.0023 -0.3469
13766TIP3    H162713   3.290   1.489  16.950  0.7254  0.8716 -0.4233
13766TIP3    H262714   3.430   1.474  16.897  0.1029 -1.0095 -1.6125
13767TIP3   OH262715   5.444   2.261  15.517  0.4573 -0.3837  0.3672
13767TIP3    H162716   5.465   2.187  15.574 -1.3207  0.2457  1.8691
13767TIP3    H262717   5.408   2.221  15.438 -0.7948 -1.1113  1.3010
13768TIP3   OH262718   2.718   5.392  16.720 -0.0797 -0.3053 -0.2598
13768TIP3    H162719   2.639   5.369  16.670 -0.9860  0.2116  0.8946
13768TIP3    H262720   2.786   5.402  16.654 -1.2818  0.4932 -1.3990
13769TIP3   OH262721   6.494   0.724   3.762 -0.2493 -0.1848  0.1340
13769TIP3    H162722   6.413   0.763   3.795 -0.0533  1.4391 -1.2499
13769TIP3    H262723   6.521   0.781   3.690  2.3198 -0.4888  0.7914
13770TIP3   OH262724   4.405   0.083   0.849 -0.3236  0.3994  0.3572
13770TIP3    H162725   4.447   0.169   0.843 -2.5946  1.5415  0.2475
13770TIP3    H262726   4.353   0.087   0.929  0.6207 -1.4120  1.1053
13771TIP3   OH262727   2.224   2.564   0.668  0.3150  0.3880 -0.0719
13771TIP3    H162728   2.192   2.630   0.730  0.5430 -0.0003  0.4693
13771TIP3    H262729   2.237   2.612   0.586 -0.5638  0.7847  0.0170
13772TIP3   OH262730   3.919   6.359  12.285  0.3290 -0.2520  0.0610
13772TIP3    H162731   3.845   6.375  12.225  1.2130 -0.2893 -1.0468
13772TIP3    H262732   3.960   6.445  12.294  0.0798 -0.2058  0.7859
13773TIP3   OH262733   2.819   0.440  11.938  0.3029 -0.0547 -0.5733
13773TIP3    H162734   2.729   0.420  11.964  0.3292 -1.0903 -1.2679
13773TIP3    H262735   2.809   0.482  11.852  0.4208  0.7216 -0.2116
13774TIP3   OH262736   5.802   0.454   6.286 -0.3267 -0.1786  0.6748
13774TIP3    H162737   5.744   0.391   6.241 -0.6523  0.5843  0.0113
13774TIP3    H262738   5.827   0.409   6.366 -0.8920 -1.0019  0.4086
13775TIP3   OH262739   5.470   4.739   0.482 -0.3670  0.4330 -0.6556
13775TIP3    H162740   5.408   4.789   0.536 -0.5989  0.4376 -0.9223
13775TIP3    H262741   5.449   4.647   0.501 -0.4926  0.4343 -0.7844
13776TIP3   OH262742   5.657   5.008  13.380 -0.5760 -0.2742 -0.0634
13776TIP3    H162743   5.703   4.924  13.382 -1.4374 -0.7183  1.9968
13776TIP3    H262744   5.689   5.056  13.456  1.7276  2.3107 -2.5352
13777TIP3   OH262745   5.818   6.015  16.826  0.1742  0.1830  0.2019
13777TIP3    H162746   5.912   6.029  16.839  0.3374  0.4051 -1.1611
13777TIP3    H262747   5.811   5.983  16.736 -1.1665  1.3363 -0.1271
13778TIP3   OH262748   2.037   4.018  15.039  0.0426 -0.4203 -0.3177
13778TIP3    H162749   2.111   4.030  14.979  0.1971 -1.1591 -0.2769
13778TIP3    H262750   2.077   3.997  15.123 -0.2385 -1.9628 -0.5590
13779TIP3   OH262751   0.738   0.812   2.665 -0.4029 -0.3145 -0.1567
13779TIP3    H162752   0.736   0.738   2.725 -1.8847 -0.3024 -0.1827
13779TIP3    H262753   0.695   0.883   2.713  3.2662  1.3504  0.9115
13780TIP3   OH262754   4.022   0.780   6.514 -0.8970  0.4383  0.5764
13780TIP3    H162755   3.978   0.730   6.445  0.3734  1.3294 -0.9240
13780TIP3    H262756   4.051   0.860   6.470  2.8740 -0.4598  1.2664
13781TIP3   OH262757   6.358   1.844  13.326 -0.8043  0.0954  0.0004
13781TIP3    H162758   6.368   1.813  13.416  0.6511 -3.3830 -1.2530
13781TIP3    H262759   6.432   1.904  13.314 -1.2903  0.9649  1.2650
13782TIP3   OH262760   0.366   6.427   5.746 -0.6554 -0.2282 -0.0942
13782TIP3    H162761   0.429   6.442   5.675 -1.4475  0.0752 -0.7419
13782TIP3    H262762   0.300   6.369   5.708 -1.5638  0.6537  0.1110
13783TIP3   OH262763   0.624   5.947  12.718 -0.0655  0.1722  0.4163
13783TIP3    H162764   0.701   5.889  12.713  0.2243  0.5366  0.6295
13783TIP3    H262765   0.552   5.893  12.686  0.3936  0.0306 -0.4053
13784TIP3   OH262766   5.388   2.302   4.764 -0.6361 -0.6326 -0.3824
13784TIP3    H162767   5.338   2.378   4.734  1.3837  0.7991 -0.2211
13784TIP3    H262768   5.358   2.288   4.854  0.0793  0.9292  0.1088
13785TIP3   OH262769   6.324   4.210   5.607 -0.0958  0.3382  0.0002
13785TIP3    H162770   6.262   4.185   5.675 -1.2860 -0.9894 -1.5102
13785TIP3    H262771   6.354   4.298   5.632 -2.1976  0.7952  1.0319
13786TIP3   OH262772   5.022   0.626  13.529  0.1317  0.8789  0.7168
13786TIP3    H162773   5.081   0.602  13.601  1.6327 -0.5561 -0.9337
13786TIP3    H262774   5.079   0.664  13.463 -0.6402 -1.1420 -1.1999
13787TIP3   OH262775   1.528   6.575  17.121 -0.4686  0.2831  0.1751
13787TIP3    H162776   1.609   6.567  17.070 -0.1662 -0.0003  0.6913
13787TIP3    H262777   1.549   6.638  17.190 -1.3393  1.8521 -0.9370
13788TIP3   OH262778   3.158   5.118   5.080 -0.4985 -0.1036 -0.0784
13788TIP3    H162779   3.129   5.208   5.069  0.5069  0.2748  0.3057
13788TIP3    H262780   3.242   5.113   5.035 -0.4278 -0.7835  0.1072
13789TIP3   OH262781   3.101   4.231  11.953 -0.1998 -0.6658  0.3726
13789TIP3    H162782   3.093   4.323  11.977 -0.8465 -0.8736  0.9801
13789TIP3    H262783   3.021   4.212  11.904 -0.1116 -0.9205  0.3287
13790TIP3   OH262784   6.389   1.538   3.169  0.6859  0.2897 -0.3794
13790TIP3    H162785   6.318   1.486   3.206  0.3863  0.7376 -0.3198
13790TIP3    H262786   6.408   1.496   3.085  0.3870  0.1384 -0.3728
13791TIP3   OH262787   4.030   5.976  12.054  0.1014 -0.7173 -0.1189
13791TIP3    H162788   4.027   6.062  12.012  2.0949 -0.4652  0.1858
13791TIP3    H262789   4.054   5.915  11.984 -0.0617 -0.8339 -0.0754
13792TIP3   OH262790   5.976   1.908   1.149 -0.1131  0.0279  0.1371
13792TIP3    H162791   5.936   1.823   1.132  1.2114 -0.4085 -0.9415
13792TIP3    H262792   5.927   1.969   1.093 -0.6030 -0.1435  0.3775
13793TIP3   OH262793   6.545   6.181   2.412 -0.8911  0.1022  0.2635
13793TIP3    H162794   6.501   6.207   2.331 -0.8089 -0.7513 -0.0696
13793TIP3    H262795   6.636   6.167   2.386 -0.5402  1.3273  0.8346
13794TIP3   OH262796   1.877   0.844   0.519 -0.2328 -0.0838  0.1360
13794TIP3    H162797   1.825   0.777   0.473 -0.6490  0.6344 -0.4472
13794TIP3    H262798   1.814   0.911   0.544  0.0817 -0.2249  1.3268
13795TIP3   OH262799   5.767   1.286   4.050  0.1097  0.1654 -0.2637
13795TIP3    H162800   5.746   1.195   4.027  1.3675  0.0655 -1.0624
13795TIP3    H262801   5.685   1.322   4.083 -0.5512 -1.0917 -0.5063
13796TIP3   OH262802   1.028   3.569   3.004  0.7573 -0.0375  0.2186
13796TIP3    H162803   0.937   3.571   3.032  0.4926  1.2491 -0.6693
13796TIP3    H262804   1.038   3.485   2.960  0.0213 -0.2223  0.4041
13797TIP3   OH262805   5.421   1.489  12.826  0.3416  0.8363  0.3134
13797TIP3    H162806   5.382   1.412  12.785  1.8217  0.8626 -1.2075
13797TIP3    H262807   5.419   1.470  12.920 -3.2153  0.8279  0.3104
13798TIP3   OH262808   3.741   6.289  12.090  0.2747 -0.1982  0.1641
13798TIP3    H162809   3.741   6.326  12.002 -2.7908  0.6585  0.4932
13798TIP3    H262810   3.777   6.201  12.078  0.2359  0.0244 -1.8876
13799TIP3   OH262811   6.771   1.074  16.546  0.1089  0.1198  0.3050
13799TIP3    H162812   6.727   1.154  16.515  0.4534  0.5986  1.0420
13799TIP3    H262813   6.722   1.049  16.624 -0.5308 -0.8808 -0.4010
13800TIP3   OH262814   5.895   5.889  16.285 -0.0272 -0.7173  0.4363
13800TIP3    H162815   5.950   5.872  16.362 -0.7393 -0.6439  0.9647
13800TIP3    H262816   5.893   5.984  16.278 -1.1834 -0.6736  1.2271
13801TIP3   OH262817   6.562   1.739  16.009 -0.5118  0.0115  0.5958
13801TIP3    H162818   6.539   1.667  16.069 -0.9036  1.4330  2.1870
13801TIP3    H262819   6.555   1.700  15.921 -1.7702 -1.6045  1.3843
13802TIP3   OH262820   3.791   3.758  12.583  0.3238 -0.1369  0.5665
13802TIP3    H162821   3.832   3.787  12.502 -2.2813  0.8443 -0.4605
13802TIP3    H262822   3.763   3.668  12.565 -1.6515  0.5998 -0.2320
13803TIP3   OH262823   5.675   0.024  14.948  0.0316  0.1846  0.8417
13803TIP3    H162824   5.736  -0.026  14.893  0.7630  0.6670  1.2127
13803TIP3    H262825   5.627  -0.043  14.997  0.0954 -0.2084  0.3740
13804TIP3   OH262826   1.462   6.684  15.788 -0.3449  0.1046 -0.2711
13804TIP3    H162827   1.549   6.662  15.822 -0.1677 -0.0289 -0.8019
13804TIP3    H262828   1.454   6.778  15.804 -1.2681 -0.3784  2.3506
13805TIP3   OH262829   1.827   6.434   3.934  0.2212  0.1486  0.1986
13805TIP3    H162830   1.750   6.460   3.984  0.2305 -0.3402  0.4681
13805TIP3    H262831   1.870   6.368   3.988  0.3229 -0.2592 -0.3735
13806TIP3   OH262832   0.071   4.579   5.647  0.0995 -0.1126  0.2214
13806TIP3    H162833   0.009   4.521   5.604  0.7079 -0.5106 -0.1309
13806TIP3    H262834   0.153   4.530   5.647  0.6104  0.7350 -0.0509
13807TIP3   OH262835   1.520   0.938  16.106  0.4171  0.1259 -0.3934
13807TIP3    H162836   1.521   0.879  16.030  0.2846 -0.8214  0.3282
13807TIP3    H262837   1.611   0.944  16.133  0.2777 -0.7438  0.2858
13808TIP3   OH262838   6.052   1.890  11.759 -0.4467  0.1733 -0.2174
13808TIP3    H162839   6.108   1.931  11.825  0.4473 -0.3633 -0.6234
13808TIP3    H262840   5.965   1.889  11.798  0.0047  0.1688  0.8156
13809TIP3   OH262841   5.750   2.558   0.217 -0.2936  0.3003 -0.3786
13809TIP3    H162842   5.834   2.597   0.195 -0.2592 -0.9622 -2.6906
13809TIP3    H262843   5.686   2.628   0.205  0.3345  1.0826  0.7606
13810TIP3   OH262844   2.979   2.146  14.703  0.5041 -0.3063 -0.1392
13810TIP3    H162845   3.038   2.220  14.688  0.6568 -0.2692  0.6084
13810TIP3    H262846   2.990   2.091  14.626  2.1962 -0.7319  0.3636
13811TIP3   OH262847   5.682   6.491   0.245 -0.5814  0.1773  0.4238
13811TIP3    H162848   5.646   6.577   0.224 -0.9039 -0.7388 -3.0084
13811TIP3    H262849   5.722   6.503   0.331 -2.8929  3.0621  1.2076
13812TIP3   OH262850   1.956   4.472  11.460 -0.4203 -0.1333  0.2871
13812TIP3    H162851   1.926   4.431  11.541 -0.0278 -0.5914  0.2001
13812TIP3    H262852   2.034   4.521  11.485 -0.5712  0.1135  0.2790
13813TIP3   OH262853   2.980   6.759   0.104 -0.1546 -0.5864  0.1374
13813TIP3    H162854   2.944   6.761   0.015 -0.9321  0.6866  0.4603
13813TIP3    H262855   3.046   6.691   0.102  0.4261  0.0066 -1.6656
13814TIP3   OH262856   3.363   1.054  16.031 -0.0049 -0.4880  0.1196
13814TIP3    H162857   3.444   1.066  16.081 -0.3070  2.0451  0.0464
13814TIP3    H262858   3.391   1.011  15.950  0.7558 -2.8746  1.6127
13815TIP3   OH262859   5.772   0.833  11.674  0.0645  0.5957 -0.1047
13815TIP3    H162860   5.799   0.786  11.595 -1.1966  1.0025 -0.7888
13815TIP3    H262861   5.854   0.862  11.713  0.6821  1.2615 -1.8166
13816TIP3   OH262862   3.282   5.846   3.285  0.4852 -0.4470 -0.2263
13816TIP3    H162863   3.353   5.865   3.347 -1.1613  1.2596  1.2150
13816TIP3    H262864   3.237   5.770   3.322 -2.2926  2.3255  2.3779
13817TIP3   OH262865   3.399   5.180  13.414  0.2686  0.3628 -0.1330
13817TIP3    H162866   3.465   5.111  13.412 -1.1365 -1.0051 -1.3102
13817TIP3    H262867   3.419   5.234  13.337 -0.0580 -0.1194 -0.5555
13818TIP3   OH262868   5.291   3.854   5.122 -0.5310 -0.0429 -0.2756
13818TIP3    H162869   5.305   3.945   5.097 -0.9834 -0.4850 -2.2094
13818TIP3    H262870   5.298   3.805   5.040 -1.2618 -1.6388  0.5869
13819TIP3   OH262871   3.201   0.894  13.305  0.0444  0.1399  0.4123
13819TIP3    H162872   3.118   0.913  13.349 -1.2360 -0.3258 -1.7532
13819TIP3    H262873   3.201   0.799  13.293 -0.3168  0.4087 -1.9065
13820TIP3   OH262874   4.126   3.892  15.311  0.0112 -0.3272 -0.0112
13820TIP3    H162875   4.050   3.942  15.281 -0.4013 -0.6970  0.4014
13820TIP3    H262876   4.188   3.897  15.239  0.2954  1.4510  0.3371
13821TIP3   OH262877   1.740   5.495  13.523  0.2115 -0.0681 -0.1777
13821TIP3    H162878   1.789   5.417  13.549 -0.5896 -0.0161  1.5650
13821TIP3    H262879   1.683   5.514  13.598  0.1696  2.0119 -0.6985
13822TIP3   OH262880   2.034   3.350   5.002  0.5416 -0.2595 -0.2191
13822TIP3    H162881   2.042   3.311   4.915  1.1155 -0.4539 -0.0789
13822TIP3    H262882   2.092   3.299   5.058 -0.9781 -1.1002  0.6202
13823TIP3   OH262883   1.723   0.177   5.896  0.5402 -0.0695 -0.1952
13823TIP3    H162884   1.791   0.140   5.839  0.0413 -0.6019 -0.4508
13823TIP3    H262885   1.738   0.136   5.981  0.5991 -0.1141 -0.2270
13824TIP3   OH262886   5.029   3.684   4.092  0.6556  0.2345  0.0850
13824TIP3    H162887   4.946   3.637   4.102  0.9992 -0.2803  0.5164
13824TIP3    H262888   5.051   3.712   4.181 -0.0169  2.0193 -0.2889
13825TIP3   OH262889   1.221   1.313  16.374 -0.1841  0.2993 -0.3381
13825TIP3    H162890   1.261   1.392  16.338  0.6813 -0.1629 -0.3896
13825TIP3    H262891   1.135   1.308  16.331 -0.3552  1.3504 -0.1378
13826TIP3   OH262892   1.987   0.476   1.409  0.2290  0.1307  0.1155
13826TIP3    H162893   1.963   0.549   1.466 -3.9641  0.8196 -2.3084
13826TIP3    H262894   1.915   0.414   1.418  1.4599 -1.5696 -1.3773
13827TIP3   OH262895   2.277   4.026   4.509 -0.0285 -0.4479  0.2743
13827TIP3    H162896   2.357   4.039   4.561 -0.3234  1.3579  0.2818
13827TIP3    H262897   2.216   4.091   4.541 -1.1550 -1.1110 -0.4842
13828TIP3   OH262898   5.406   1.729  14.833 -0.0538 -0.4311  0.0546
13828TIP3    H162899   5.331   1.670  14.821  1.0936 -1.9420  0.0358
13828TIP3    H262900   5.471   1.674  14.878  1.7331  0.2720 -1.6352
13829TIP3   OH262901   1.532   2.720   1.475 -0.3755  0.1088 -0.2767
13829TIP3    H162902   1.552   2.786   1.409  0.1964 -0.6023 -0.8263
13829TIP3    H262903   1.450   2.749   1.514  0.7748  2.1440  0.7736
13830TIP3   OH262904   0.214   5.618   4.872  0.0549 -0.2814  0.3025
13830TIP3    H162905   0.249   5.550   4.929 -0.1807 -0.3076  0.4137
13830TIP3    H262906   0.219   5.698   4.924  1.1631 -0.0447 -0.1333
13831TIP3   OH262907   1.658   4.489   3.049  0.2390  0.5149 -0.4030
13831TIP3    H162908   1.612   4.483   2.966  1.1191  0.2522 -0.8822
13831TIP3    H262909   1.690   4.400   3.065 -0.3759  0.4413  0.4842
13832TIP3   OH262910   1.821   1.252   4.630 -0.6033  0.1976  0.2584
13832TIP3    H162911   1.729   1.227   4.638 -0.1604 -1.7030 -0.2065
13832TIP3    H262912   1.836   1.258   4.535  0.0084 -0.5755  0.2985
13833TIP3   OH262913   3.794   0.461  12.780  0.8421 -0.4732  0.3058
13833TIP3    H162914   3.753   0.462  12.694 -0.5742 -2.0022  0.9384
13833TIP3    H262915   3.869   0.402  12.770 -0.1799 -1.8194  0.4838
13834TIP3   OH262916   0.288   1.619   0.185 -0.1355 -0.5750 -0.2057
13834TIP3    H162917   0.290   1.653   0.095  0.0997 -0.3557 -0.1155
13834TIP3    H262918   0.374   1.580   0.198  0.5708  1.2138  0.6359
13835TIP3   OH262919   1.062   3.519   2.534 -0.0298 -0.4307 -0.5013
13835TIP3    H162920   1.046   3.608   2.501 -0.7184 -0.4411 -0.2030
13835TIP3    H262921   1.020   3.462   2.471 -3.2416 -0.3696  1.4594
13836TIP3   OH262922   1.497   6.002  12.068 -0.2809 -0.2245 -0.2100
13836TIP3    H162923   1.409   6.001  12.032 -0.3575 -1.4759 -0.0211
13836TIP3    H262924   1.543   5.933  12.020 -0.2095 -1.4735  1.5903
13837TIP3   OH262925   3.028   1.855   0.406 -0.1332  1.0215 -0.0214
13837TIP3    H162926   3.105   1.872   0.460  0.3728 -0.3629 -0.3033
13837TIP3    H262927   2.995   1.942   0.384  1.0832  1.6189  0.4685
13838TIP3   OH262928   3.717   5.720   4.228 -0.1839 -0.0908 -0.1950
13838TIP3    H162929   3.806   5.708   4.261 -0.0431 -0.6279 -0.7673
13838TIP3    H262930   3.684   5.631   4.215 -1.2991  0.0781  1.3278
13839TIP3   OH262931   5.882   1.659   1.276 -0.2904 -0.7601 -0.1869
13839TIP3    H162932   5.824   1.614   1.214  0.1234 -2.0186  0.3221
13839TIP3    H262933   5.869   1.612   1.358  0.3574 -0.1066  0.2910
13840TIP3   OH262934   3.366   0.700   1.917 -0.7404  0.0705  0.2128
13840TIP3    H162935   3.369   0.740   2.004 -1.9498 -1.7159  1.1112
13840TIP3    H262936   3.373   0.774   1.857  0.4748  1.3114  1.8134
13841TIP3   OH262937   2.048   2.800   1.821 -0.2246 -0.0164  0.1999
13841TIP3    H162938   2.055   2.769   1.911  0.6564 -0.1404  0.0908
13841TIP3    H262939   1.993   2.878   1.827 -2.1736 -1.3802  0.5179
13842TIP3   OH262940   0.349   2.219  15.301 -0.1356 -0.0323  0.0473
13842TIP3    H162941   0.359   2.306  15.339  1.9153 -0.0047 -0.4813
13842TIP3    H262942   0.390   2.160  15.364 -0.1258 -0.4342 -0.3284
13843TIP3   OH262943   1.102   2.414  12.512  0.3514 -0.3645  0.1742
13843TIP3    H162944   1.049   2.472  12.565  0.2554  0.7080 -1.0638
13843TIP3    H262945   1.039   2.363  12.461  0.4452 -1.2939  0.9753
13844TIP3   OH262946   1.884   6.741  15.240 -0.0125  0.0819 -0.3115
13844TIP3    H162947   1.827   6.752  15.316  0.7534 -1.7656  0.5576
13844TIP3    H262948   1.966   6.706  15.276  0.3671 -0.7930 -1.9600
13845TIP3   OH262949   5.618   3.874  12.194 -0.3455 -0.4882  0.2242
13845TIP3    H162950   5.596   3.783  12.213 -2.2346 -0.3293 -1.0544
13845TIP3    H262951   5.583   3.923  12.269  0.0531 -0.7298  0.5729
13846TIP3   OH262952   4.566   0.977   2.960 -0.2860  0.1781 -0.4802
13846TIP3    H162953   4.490   0.925   2.986  0.3551  0.0609  1.2873
13846TIP3    H262954   4.538   1.024   2.881 -1.1704 -2.1317 -1.5715
13847TIP3   OH262955   4.740   5.118  11.169  0.3659 -0.4247 -0.0184
13847TIP3    H162956   4.771   5.036  11.130  0.4275  0.4297 -1.8061
13847TIP3    H262957   4.748   5.182  11.099 -0.1363  1.0181  1.2261
13848TIP3   OH262958   5.536   3.931   0.882 -0.5767  0.2463 -0.4291
13848TIP3    H162959   5.522   4.020   0.851 -0.5694  0.7297  0.9025
13848TIP3    H262960   5.449   3.903   0.913 -0.7024 -0.4234 -1.3581
13849TIP3   OH262961   5.434   5.949  13.498 -0.0226 -0.0789 -0.2718
13849TIP3    H162962   5.360   5.906  13.456 -1.4155  1.7226  0.2796
13849TIP3    H262963   5.394   6.012  13.559  1.9532  0.3373  0.6349
13850TIP3   OH262964   0.670   6.712  15.251  0.4341 -0.0797 -0.2210
13850TIP3    H162965   0.750   6.667  15.278  0.3200 -0.1642 -0.0146
13850TIP3    H262966   0.616   6.643  15.211  1.3528  0.3998 -2.3563
13851TIP3   OH262967   1.997   2.981   3.603  0.0335 -0.5559  0.3122
13851TIP3    H162968   2.025   3.034   3.678 -0.8302 -0.3252  0.4839
13851TIP3    H262969   1.903   2.966   3.618  0.1906 -1.8652  0.1020
13852TIP3   OH262970   2.725   6.530   5.718 -0.7493  0.5320  0.5916
13852TIP3    H162971   2.802   6.547   5.663 -0.2494 -0.2653  1.0377
13852TIP3    H262972   2.722   6.605   5.778 -0.1566  0.4446  0.7430
13853TIP3   OH262973   2.319   0.028  16.049 -0.7362 -1.0131  0.6825
13853TIP3    H162974   2.356   0.045  16.135 -0.1073  2.0780 -0.1546
13853TIP3    H262975   2.247   0.091  16.041 -1.7377 -2.2766 -0.4880
13854TIP3   OH262976   6.460   0.416   6.403  0.1575  0.1569 -0.3807
13854TIP3    H162977   6.376   0.377   6.424 -0.3011  0.6516 -1.2579
13854TIP3    H262978   6.469   0.489   6.465  0.1119 -0.1257 -0.0428
13855TIP3   OH262979   4.702   1.461   4.295 -0.3438  0.0876  0.0587
13855TIP3    H162980   4.732   1.534   4.241  0.0810  1.0006  1.4945
13855TIP3    H262981   4.760   1.389   4.271 -0.5747  0.2873 -1.1531
13856TIP3   OH262982   0.222   1.723   5.254 -0.8336  0.8556  0.3779
13856TIP3    H162983   0.128   1.708   5.246 -1.3039  3.3183  0.9752
13856TIP3    H262984   0.245   1.773   5.175  0.0145  0.1029  0.1379
13857TIP3   OH262985   6.258   4.862  12.840 -0.0083  0.5589  0.7280
13857TIP3    H162986   6.169   4.865  12.875 -1.7992  1.9696 -3.5515
13857TIP3    H262987   6.258   4.789  12.779  1.2842  1.5163 -0.4642
13858TIP3   OH262988   0.119   0.102   3.798 -0.0859 -0.0080  0.3031
13858TIP3    H162989   0.167   0.054   3.866  0.2283 -1.1155 -0.6811
13858TIP3    H262990   0.040   0.050   3.784  0.0766 -0.0409 -0.5105
13859TIP3   OH262991   4.471   5.627  13.588  0.0174  0.3368 -0.2095
13859TIP3    H162992   4.465   5.532  13.577 -0.0542  0.2475  0.6110
13859TIP3    H262993   4.418   5.646  13.665  1.0930  0.8963  0.3887
13860TIP3   OH262994   6.425   6.680  14.830 -0.0058 -0.8403  0.0186
13860TIP3    H162995   6.492   6.740  14.864 -0.0976 -1.2874  0.9893
13860TIP3    H262996   6.475   6.610  14.788  0.1172 -0.5168 -0.3752
13861TIP3   OH262997   1.383   3.424   3.322 -0.1646 -0.1929 -0.6064
13861TIP3    H162998   1.473   3.424   3.290 -0.3775  0.8306 -1.2172
13861TIP3    H262999   1.358   3.331   3.324  0.9990 -0.4926 -0.1542
13862TIP3   OH263000   6.403   2.147  10.587 -0.1544 -0.0402 -0.7033
13862TIP3    H163001   6.367   2.090  10.655 -0.1527  0.0022 -0.6653
13862TIP3    H263002   6.328   2.171  10.533 -0.5098  1.4889  0.4260
13863TIP3   OH263003   2.428   5.379  12.784 -0.0295 -0.2306 -0.0728
13863TIP3    H163004   2.484   5.422  12.848 -0.6358 -1.2757  1.1772
13863TIP3    H263005   2.409   5.447  12.720  0.1376  0.9815  1.1373
13864TIP3   OH263006   4.399   0.033   6.326  0.0921  0.0886  0.1811
13864TIP3    H163007   4.456   0.005   6.397  0.5314  0.5040 -0.0063
13864TIP3    H263008   4.452   0.095   6.275 -0.6867  0.8381  0.2763
13865TIP3   OH263009   0.694   0.399   2.090  0.6334  0.5827 -0.5268
13865TIP3    H163010   0.694   0.319   2.143  0.9040  0.8229 -0.1639
13865TIP3    H263011   0.786   0.414   2.070  0.4759  0.1161 -1.6411
13866TIP3   OH263012   0.492   0.367  12.234  0.7805  0.1321  0.0184
13866TIP3    H163013   0.547   0.436  12.198  2.5361 -1.5685 -0.6375
13866TIP3    H263014   0.405   0.384  12.198  0.8982  2.6653  0.8136
13867TIP3   OH263015   6.780   2.242   3.432  0.1174  0.0219  0.3572
13867TIP3    H163016   6.775   2.319   3.488 -0.7066 -0.2089  0.6068
13867TIP3    H263017   6.779   2.168   3.493 -0.1416 -0.2125  0.0691
13868TIP3   OH263018   4.824   2.468  11.992  0.4002 -0.5423 -0.4917
13868TIP3    H163019   4.745   2.456  11.939 -0.0938 -0.4855  0.2191
13868TIP3    H263020   4.798   2.533  12.058  1.0154 -0.5850 -0.2078
13869TIP3   OH263021   3.488   3.765  15.460 -0.4727  0.0333  0.3909
13869TIP3    H163022   3.476   3.817  15.380 -1.6082 -0.9499 -0.0903
13869TIP3    H263023   3.525   3.682  15.429  0.3496  0.1466  1.0464
13870TIP3   OH263024   0.107   1.225   5.250  0.5610 -0.0915  0.1668
13870TIP3    H163025   0.141   1.310   5.279 -1.1928 -0.2452  2.9284
13870TIP3    H263026   0.038   1.205   5.313 -2.1660 -1.4651 -3.1244
13871TIP3   OH263027   6.764   6.398  15.708  0.3441 -0.0410 -0.6152
13871TIP3    H163028   6.854   6.368  15.700  0.7207  0.7742  0.4467
13871TIP3    H263029   6.769   6.473  15.767 -0.8924  0.6289 -1.3294
13872TIP3   OH263030   4.341   0.974   0.177 -0.9081 -0.4377 -0.7940
13872TIP3    H163031   4.352   0.943   0.267  0.9802  0.8684 -0.5435
13872TIP3    H263032   4.299   1.059   0.186  0.1169  0.1045 -1.0921
13873TIP3   OH263033   5.198   4.927  14.845 -0.3307  0.1785  0.5952
13873TIP3    H163034   5.132   4.893  14.785 -0.6420 -0.5211  1.3132
13873TIP3    H263035   5.240   4.999  14.798 -0.7229 -0.2149 -0.3618
13874TIP3   OH263036   1.737   4.593  14.853  0.0797 -0.4242 -0.7596
13874TIP3    H163037   1.687   4.549  14.922  0.0286  2.4167  1.0593
13874TIP3    H263038   1.706   4.683  14.853  1.7461  0.2027 -2.9308
13875TIP3   OH263039   5.577   3.401  13.241 -0.0028  0.2734 -0.2443
13875TIP3    H163040   5.605   3.467  13.304  0.5787 -0.0953 -0.1130
13875TIP3    H263041   5.486   3.382  13.265  1.0348 -1.7989  2.1780
13876TIP3   OH263042   2.914   0.086   1.020  0.5746  0.2293  0.0194
13876TIP3    H163043   2.918   0.016   1.086  3.6854  1.1003  0.8515
13876TIP3    H263044   2.869   0.158   1.065 -0.7803 -0.4903 -0.1497
13877TIP3   OH263045   2.022   3.701  13.773 -0.0062  0.0092 -0.1186
13877TIP3    H163046   2.053   3.789  13.795  0.5842 -0.5480  1.3578
13877TIP3    H263047   2.097   3.658  13.734  0.2881 -0.4450  0.9226
13878TIP3   OH263048   0.731   0.748  13.209  0.0027  0.1206  0.4938
13878TIP3    H163049   0.788   0.672  13.224 -0.5862 -0.5380 -0.6034
13878TIP3    H263050   0.731   0.794  13.293  0.8556 -0.7557  0.9882
13879TIP3   OH263051   2.715   1.302  12.405 -0.2350  1.0203 -0.4959
13879TIP3    H163052   2.781   1.308  12.475  0.1110  1.9029 -0.8856
13879TIP3    H263053   2.665   1.383  12.412  0.5509  1.6675 -2.0035
13880TIP3   OH263054   3.882   4.846  13.940  0.3330 -0.1845 -0.4589
13880TIP3    H163055   3.793   4.882  13.937  0.2066 -0.4909 -0.3618
13880TIP3    H263056   3.875   4.768  13.994  0.9034  0.4716  0.5797
13881TIP3   OH263057   2.351   1.860  11.407  0.0713 -0.6854 -0.0818
13881TIP3    H163058   2.290   1.808  11.355  0.1231 -0.6373 -0.1932
13881TIP3    H263059   2.388   1.922  11.344 -2.2573  1.5540  0.6539
13882TIP3   OH263060   2.365   0.720  14.642  0.1837  0.2341  0.7642
13882TIP3    H163061   2.287   0.708  14.589  2.0783  1.3421 -2.4319
13882TIP3    H263062   2.348   0.800  14.692  0.3156  2.0493 -1.9877
13883TIP3   OH263063   2.237   0.367   1.861 -0.9858  0.0483  0.6390
13883TIP3    H163064   2.251   0.389   1.953  2.4705  0.7626  0.0091
13883TIP3    H263065   2.241   0.272   1.858  0.1379  0.0747  1.0692
13884TIP3   OH263066   0.161   1.748  13.069 -0.1300  0.1031  0.4133
13884TIP3    H163067   0.158   1.786  12.981  0.4298 -0.7813 -0.0019
13884TIP3    H263068   0.246   1.703  13.073 -1.0654 -1.7130  0.6087
13885TIP3   OH263069   3.950   2.441  14.552  0.3589 -0.0150 -0.1226
13885TIP3    H163070   3.896   2.416  14.627  2.5061  0.0928  1.5075
13885TIP3    H263071   3.898   2.507  14.506 -0.9104  0.0607  1.3689
13886TIP3   OH263072   4.436   6.122   5.549 -0.4771  0.4246  0.3443
13886TIP3    H163073   4.467   6.060   5.616 -0.5484  1.0088  0.9158
13886TIP3    H263074   4.439   6.207   5.591  0.2659  0.9143 -0.6689
13887TIP3   OH263075   4.061   0.961   6.327  0.1742 -0.3572 -0.2250
13887TIP3    H163076   3.973   0.955   6.290 -0.3276  0.2388  0.8240
13887TIP3    H263077   4.104   1.028   6.274 -0.8374  1.1517  0.8125
13888TIP3   OH263078   2.813   3.508  13.174  0.1540  0.1121  0.2729
13888TIP3    H163079   2.834   3.577  13.237  0.8561 -0.7440  0.9923
13888TIP3    H263080   2.787   3.433  13.228  0.0341 -0.3978 -0.4847
13889TIP3   OH263081   2.392   0.036  11.741 -0.3977 -0.3966 -0.2639
13889TIP3    H163082   2.487   0.022  11.745 -0.4229 -0.3754  0.7048
13889TIP3    H263083   2.360  -0.032  11.682  0.0282 -1.4909  0.7542
13890TIP3   OH263084   0.789   1.898   0.339 -0.7112 -0.0107 -0.4276
13890TIP3    H163085   0.760   1.822   0.288  0.1610 -1.0530  0.6224
13890TIP3    H263086   0.880   1.912   0.311 -0.5672  0.0643  0.0853
13891TIP3   OH263087   5.654   1.026  13.405  0.3449  0.4418  0.8518
13891TIP3    H163088   5.692   0.957  13.350  2.3577  1.1306  1.3355
13891TIP3    H263089   5.640   0.985  13.490 -3.6486 -0.8978 -0.3285
13892TIP3   OH263090   2.266   4.385   3.517  0.7589 -0.9356  0.1203
13892TIP3    H163091   2.261   4.309   3.459  1.1872  1.3367 -3.0206
13892TIP3    H263092   2.175   4.415   3.524  0.7732 -0.9198  0.2326
13893TIP3   OH263093   0.002   2.549  12.536 -0.7200  0.0156  0.4718
13893TIP3    H163094   0.050   2.583  12.612  0.2313  0.1709 -0.1926
13893TIP3    H263095  -0.058   2.484  12.573 -0.2854  0.1096  1.3639
13894TIP3   OH263096   6.333   1.476   1.767 -0.7119  0.3269 -0.6216
13894TIP3    H163097   6.327   1.390   1.808  3.2611  1.0855  1.9140
13894TIP3    H263098   6.299   1.536   1.833  0.3839  1.0445 -0.6920
13895TIP3   OH263099   1.026   5.989   3.452  0.0123 -0.2122  0.0450
13895TIP3    H163100   1.080   5.959   3.379  0.0255 -1.1033  0.4135
13895TIP3    H263101   1.033   6.085   3.449  0.2557 -0.2515 -0.9296
13896TIP3   OH263102   3.142   0.459   3.961 -0.1713 -0.5860 -0.5879
13896TIP3    H163103   3.140   0.501   3.875 -0.2206  0.3305 -0.1434
13896TIP3    H263104   3.058   0.479   4.000  0.8795  1.3436  0.7642
13897TIP3   OH263105   4.673   0.394  12.994  0.2974 -0.7728  0.1422
13897TIP3    H163106   4.759   0.426  13.024  0.9133 -1.6734 -0.6159
13897TIP3    H263107   4.694   0.337  12.920 -0.8020 -2.4017  1.0470
13898TIP3   OH263108   2.840   3.999   1.792  0.5428  0.8336  0.4081
13898TIP3    H163109   2.775   4.045   1.845  0.0705  0.8775 -0.2078
13898TIP3    H263110   2.821   3.906   1.809 -1.3421  0.7804 -1.7201
13899TIP3   OH263111   5.548   0.357   0.561  0.3916  0.1441 -0.1418
13899TIP3    H163112   5.560   0.268   0.526  3.1032 -0.4867  2.2314
13899TIP3    H263113   5.481   0.346   0.629  1.1196 -0.2065  0.5265
13900TIP3   OH263114   5.596   0.647  11.978 -0.0542  0.0817  0.0011
13900TIP3    H163115   5.564   0.737  11.977  2.0081  0.8162 -1.4131
13900TIP3    H263116   5.609   0.627  12.070 -0.1615  1.3455  0.2947
13901TIP3   OH263117   1.360   3.524  16.360 -0.5132  0.1563  0.5381
13901TIP3    H163118   1.270   3.529  16.328 -0.4211  1.1961  0.4445
13901TIP3    H263119   1.403   3.602  16.325  0.0092  0.4903  1.8958
13902TIP3   OH263120   1.891   0.620   1.625  0.6834  0.1201  0.1165
13902TIP3    H163121   1.912   0.538   1.671  0.0612 -1.0937 -1.7196
13902TIP3    H263122   1.923   0.689   1.683  2.6222 -1.4745  0.9774
13903TIP3   OH263123   2.703   1.508  11.094  0.2053  0.1994 -0.2419
13903TIP3    H163124   2.629   1.517  11.034  1.1808 -2.4585 -1.9003
13903TIP3    H263125   2.664   1.470  11.173 -0.1630 -1.5405 -1.2414
13904TIP3   OH263126   5.187   3.927  13.153 -0.2178  0.0643 -0.2306
13904TIP3    H163127   5.119   3.991  13.130  0.1612  0.2576 -0.8296
13904TIP3    H263128   5.269   3.970  13.129  0.0257 -0.7295 -0.8315
13905TIP3   OH263129   1.711   5.805  12.051 -0.0582 -0.2688 -0.1325
13905TIP3    H163130   1.773   5.848  12.111 -3.2052  0.1533  2.9916
13905TIP3    H263131   1.706   5.715  12.084 -2.2757  0.1296  0.6810
13906TIP3   OH263132   1.189   4.299   3.799  0.0637  0.4020  0.1248
13906TIP3    H163133   1.122   4.341   3.746  0.4614  2.6613  1.3640
13906TIP3    H263134   1.271   4.340   3.771  0.7130 -0.9284  0.0071
13907TIP3   OH263135   1.578   5.923   3.087  0.1482 -0.1479 -0.2718
13907TIP3    H163136   1.548   6.004   3.128 -0.0938 -0.2771 -0.1908
13907TIP3    H263137   1.499   5.887   3.047  0.3120 -0.2031 -0.5436
13908TIP3   OH263138   2.466   2.958   5.447 -0.3045  0.1211 -0.6366
13908TIP3    H163139   2.457   3.049   5.474  0.5519  0.0537 -0.0787
13908TIP3    H263140   2.396   2.944   5.384 -0.3811  1.1941 -0.7973
13909TIP3   OH263141   3.704   2.865  14.458  0.5228 -0.3094  0.5790
13909TIP3    H163142   3.655   2.941  14.490 -0.1170 -0.3466 -0.3004
13909TIP3    H263143   3.738   2.892  14.373  0.4102 -0.9640  0.3245
13910TIP3   OH263144   4.669   5.127   5.234 -0.0089  0.0979 -0.6078
13910TIP3    H163145   4.656   5.221   5.222 -1.0218 -0.1931 -1.9160
13910TIP3    H263146   4.703   5.096   5.150 -0.1700 -0.7976 -0.3517
13911TIP3   OH263147   3.451   3.974  11.661  0.0610  0.7283  0.2083
13911TIP3    H163148   3.449   3.963  11.756 -1.0335 -1.4457 -0.0345
13911TIP3    H263149   3.481   3.890  11.627  0.6502  1.5531 -1.3776
13912TIP3   OH263150   3.914   0.002  13.027 -0.2324 -0.7627 -0.1266
13912TIP3    H163151   3.991   0.058  13.017  0.4694 -1.7634 -0.3538
13912TIP3    H263152   3.873   0.033  13.108  0.0842  0.1447 -0.2965
13913TIP3   OH263153   4.568   0.682  15.719  0.0471  0.3025  0.1830
13913TIP3    H163154   4.474   0.694  15.709  0.2177  0.2813 -1.6427
13913TIP3    H263155   4.599   0.765  15.755 -0.7547  0.0895  1.3656
13914TIP3   OH263156   1.115   4.181  14.508  0.2851 -0.2019  0.0322
13914TIP3    H163157   1.191   4.134  14.544  0.4593  0.6625  0.7998
13914TIP3    H263158   1.073   4.220  14.584  0.6942  1.7140 -0.7124
13915TIP3   OH263159   4.357   1.239   3.480  0.9328  0.5596 -0.4484
13915TIP3    H163160   4.280   1.224   3.425  1.1126  0.0177 -0.5581
13915TIP3    H263161   4.373   1.154   3.521  0.6995  0.9962  0.5732
13916TIP3   OH263162   2.845   6.015   3.102 -0.4857 -0.1263 -0.0250
13916TIP3    H163163   2.852   6.027   3.007 -0.7328  2.6900  0.2715
13916TIP3    H263164   2.751   6.008   3.119 -0.4535 -0.4151  0.0362
13917TIP3   OH263165   5.702   0.205  12.140 -0.0964 -0.0127  0.1882
13917TIP3    H163166   5.766   0.267  12.102 -1.7995  2.6011  1.4201
13917TIP3    H263167   5.644   0.183  12.067  0.4096 -0.0008 -0.2195
13918TIP3   OH263168   3.271   6.734   0.777 -0.1355  0.3719  0.4507
13918TIP3    H163169   3.310   6.747   0.863  0.3768  0.7917  0.1574
13918TIP3    H263170   3.182   6.768   0.786 -0.3910 -0.4506  1.0781
13919TIP3   OH263171   0.344   2.875  15.580 -0.0886 -0.5768 -0.1361
13919TIP3    H163172   0.291   2.797  15.595 -0.8224  0.0324  0.4993
13919TIP3    H263173   0.310   2.940  15.641  1.4379 -0.1866  0.3276
13920TIP3   OH263174   2.956   3.167  16.831  0.4782 -0.3657  0.0361
13920TIP3    H163175   2.935   3.079  16.802 -0.1975 -0.7618  1.6537
13920TIP3    H263176   2.997   3.155  16.916  0.0751  0.8982  0.4279
13921TIP3   OH263177   0.469   6.714  15.456 -0.2163  0.5204 -0.0332
13921TIP3    H163178   0.456   6.790  15.512 -1.2064  1.6199 -1.6874
13921TIP3    H263179   0.546   6.737  15.403 -0.4193  0.3130 -0.4226
13922TIP3   OH263180   0.030   0.050   1.601  0.3629 -0.1120 -0.6733
13922TIP3    H163181   0.080  -0.006   1.542  0.3324 -1.9418  0.9566
13922TIP3    H263182  -0.021  -0.011   1.655  0.4313  1.4629  1.2617
13923TIP3   OH263183   1.427   3.291  14.422  0.4789 -0.7162  0.3123
13923TIP3    H163184   1.461   3.202  14.427  1.1959 -0.3514  1.9623
13923TIP3    H263185   1.345   3.288  14.472  1.0201 -0.2071  1.2322
13924TIP3   OH263186   0.399   1.143   6.219  0.0484  0.3879 -0.7376
13924TIP3    H163187   0.469   1.183   6.271 -1.4310  0.7603  1.0132
13924TIP3    H263188   0.424   1.050   6.214  1.4047  0.7723 -1.3819
13925TIP3   OH263189   2.545   2.571   3.841 -0.2882 -0.4939 -0.7615
13925TIP3    H163190   2.564   2.567   3.747  1.8415 -3.0807 -0.2993
13925TIP3    H263191   2.557   2.481   3.871  0.0513  0.4837  2.1671
13926TIP3   OH263192   5.106   4.177  14.818 -0.2648 -0.4508 -0.0563
13926TIP3    H163193   5.073   4.114  14.754 -1.3500 -0.7482  0.7904
13926TIP3    H263194   5.195   4.146  14.837 -0.3755 -1.0605 -0.5096
13927TIP3   OH263195   2.822   3.687  12.960 -0.2628  0.3940 -0.5364
13927TIP3    H163196   2.865   3.634  12.892 -0.8045  0.4714 -0.9486
13927TIP3    H263197   2.786   3.622  13.021  0.3537  0.3263 -0.2343
13928TIP3   OH263198   4.513   1.209  13.258 -0.0615  0.3496  0.3192
13928TIP3    H163199   4.580   1.216  13.325  0.1756 -0.7898  0.2189
13928TIP3    H263200   4.474   1.123  13.272  0.7744 -0.4074 -1.7009
13929TIP3   OH263201   5.246   1.220  14.634  0.3989  0.3154  0.4358
13929TIP3    H163202   5.317   1.253  14.689  1.1881 -1.3150  0.4362
13929TIP3    H263203   5.201   1.299  14.602  1.2876  1.3239  1.6312
13930TIP3   OH263204   5.796   6.656   4.742 -0.4296 -0.5619 -0.0831
13930TIP3    H163205   5.728   6.593   4.768  1.1694 -1.6329  1.6070
13930TIP3    H263206   5.785   6.730   4.802  0.4593 -1.1242  0.7765
13931TIP3   OH263207   0.945   3.154   0.244  0.5699 -0.1973 -0.6478
13931TIP3    H163208   0.961   3.107   0.326  0.5094  1.9297  0.6406
13931TIP3    H263209   1.032   3.161   0.204  0.9877  0.7563  0.3886
13932TIP3   OH263210   2.213   4.795  13.053 -0.1370  0.6300  0.5179
13932TIP3    H163211   2.307   4.784  13.041 -0.1683 -0.4123  1.1127
13932TIP3    H263212   2.194   4.750  13.136 -1.2703  0.1906  0.0397
13933TIP3   OH263213   5.240   3.924   4.588  0.2110 -0.0666  0.3114
13933TIP3    H163214   5.209   3.847   4.539 -2.2764  0.5048  0.9466
13933TIP3    H263215   5.229   3.997   4.527 -2.7547  0.6242  1.5899
13934TIP3   OH263216   2.608   0.444  12.149  0.3975 -0.3164 -0.3853
13934TIP3    H163217   2.540   0.481  12.092  0.0628  0.9473  0.8069
13934TIP3    H263218   2.582   0.353  12.161  0.7047 -0.7380 -2.5733
13935TIP3   OH263219   3.552   5.202   4.321  0.5961  0.3487 -0.2241
13935TIP3    H163220   3.519   5.186   4.233 -0.1014 -0.4599  0.1684
13935TIP3    H263221   3.518   5.129   4.373  1.0548  0.7769  0.6972
13936TIP3   OH263222   0.698   6.245  14.849 -0.6696  0.2362  0.1799
13936TIP3    H163223   0.706   6.229  14.943  1.5291  0.8499  0.1337
13936TIP3    H263224   0.725   6.336  14.838 -3.4352  1.0019 -0.7618
13937TIP3   OH263225   1.701   6.241  13.962  0.3403  0.1789  0.2193
13937TIP3    H163226   1.639   6.287  13.906 -0.4872  0.1250  1.0741
13937TIP3    H263227   1.716   6.157  13.919 -0.4460  0.0557  0.1934
13938TIP3   OH263228   4.295   1.918  11.796  0.5062 -0.1073  0.3068
13938TIP3    H163229   4.273   1.971  11.719  0.7222 -0.2843  0.1218
13938TIP3    H263230   4.228   1.941  11.861  1.3595  1.3532  0.6776
13939TIP3   OH263231   1.967   6.118   3.984 -0.7433  0.8257 -0.2812
13939TIP3    H163232   2.047   6.166   3.960 -1.2328  0.4162 -2.9658
13939TIP3    H263233   1.991   6.069   4.062  0.6355  3.2139  0.8606
13940TIP3   OH263234   0.962   4.441  11.195 -0.4477 -0.3819 -0.0697
13940TIP3    H163235   0.908   4.492  11.134  0.6007 -0.0653 -0.7446
13940TIP3    H263236   0.942   4.350  11.174  0.2931 -0.2801 -1.2409
13941TIP3   OH263237   1.576   0.488  13.494 -0.1457  0.2495  0.1223
13941TIP3    H163238   1.669   0.470  13.476 -0.0324  2.1540 -1.3309
13941TIP3    H263239   1.576   0.567  13.548 -0.9451  0.7090 -0.5331
13942TIP3   OH263240   4.354   0.974  13.230  0.1458  0.3926  0.3099
13942TIP3    H163241   4.298   0.992  13.154  2.2860  1.1900 -1.1276
13942TIP3    H263242   4.407   0.899  13.203  1.7854  1.4580  0.5206
13943TIP3   OH263243   0.952   4.440   3.609  0.0771 -0.5440  0.5858
13943TIP3    H163244   0.894   4.489   3.666 -0.2058 -0.2142  0.0183
13943TIP3    H263245   0.901   4.363   3.582  0.0366 -0.4495  0.3902
13944TIP3   OH263246   0.760   6.314   1.766 -0.1394  0.2319  0.5900
13944TIP3    H163247   0.695   6.296   1.834  0.8942 -0.9314  1.2933
13944TIP3    H263248   0.726   6.269   1.688 -1.3958  1.6818  0.2713
13945TIP3   OH263249   4.662   3.857   0.986  0.2188 -0.7912 -0.0971
13945TIP3    H163250   4.591   3.853   1.050  0.1041  0.5178 -0.1352
13945TIP3    H263251   4.649   3.779   0.931 -0.8990 -0.8077  0.1822
13946TIP3   OH263252   0.477   5.264  15.494 -0.5620  0.2055  0.2049
13946TIP3    H163253   0.521   5.181  15.475  2.3762  1.6101  0.5772
13946TIP3    H263254   0.392   5.238  15.531  0.2357 -2.6241  0.1715
13947TIP3   OH263255   2.726   5.437   1.804 -0.9038 -0.1654  0.2267
13947TIP3    H163256   2.804   5.489   1.782  2.4495 -3.4273  3.5824
13947TIP3    H263257   2.691   5.479   1.883 -1.4567  0.2351 -0.2335
13948TIP3   OH263258   5.652   5.467   2.004  0.2433  0.0614 -0.1915
13948TIP3    H163259   5.685   5.427   2.084 -1.4127 -1.2920 -0.1599
13948TIP3    H263260   5.650   5.561   2.024  0.1100 -0.2279  1.2495
13949TIP3   OH263261   6.207   1.095  12.067 -0.3875 -0.1403  0.4195
13949TIP3    H163262   6.194   1.074  12.160 -1.9516 -3.7944 -0.5255
13949TIP3    H263263   6.298   1.074  12.050 -0.3091 -0.2468  0.9508
13950TIP3   OH263264   2.047   1.417   2.453 -0.4044  0.8353 -0.2865
13950TIP3    H163265   2.078   1.328   2.471 -0.2397  0.5560 -1.9315
13950TIP3    H263266   2.036   1.456   2.540  1.8818  0.0223  0.3953
13951TIP3   OH263267   6.779   3.102   1.623  0.1783  0.0123 -0.1284
13951TIP3    H163268   6.865   3.061   1.607  0.8844  0.9161  1.2703
13951TIP3    H263269   6.780   3.181   1.569  0.7789  0.7253  0.9060
13952TIP3   OH263270   4.331   0.960   4.334  0.4571 -0.2735 -0.0554
13952TIP3    H163271   4.243   0.965   4.370 -0.1766 -0.5582 -1.5167
13952TIP3    H263272   4.376   0.898   4.391 -1.3592 -2.8898 -1.3495
13953TIP3   OH263273   3.967   4.225   4.873 -0.1176  0.2245 -0.2108
13953TIP3    H163274   3.922   4.309   4.876 -1.5988 -0.5971  1.1033
13953TIP3    H263275   4.045   4.237   4.927 -0.0991  0.8751 -0.3809
13954TIP3   OH263276   6.324   1.871   6.252 -0.0883 -0.0426 -0.2263
13954TIP3    H163277   6.385   1.812   6.297  1.6450  1.4224 -0.6037
13954TIP3    H263278   6.262   1.897   6.319  0.1278 -0.9693  0.3506
13955TIP3   OH263279   0.347   0.839   5.524  0.0913 -0.0708 -0.2364
13955TIP3    H163280   0.343   0.907   5.457  1.1482 -1.6335 -1.9393
13955TIP3    H263281   0.267   0.788   5.511  0.7206 -0.8995 -0.8971
13956TIP3   OH263282   1.566   6.589  12.305 -0.4703  0.1800 -0.2807
13956TIP3    H163283   1.619   6.659  12.343  1.8192 -1.8875  0.5131
13956TIP3    H263284   1.487   6.632  12.274 -0.5604  2.6220  3.0878
13957TIP3   OH263285   6.522   2.109   5.351  0.3221 -0.2126  0.1852
13957TIP3    H163286   6.588   2.040   5.359  0.6460 -0.2709 -2.3026
13957TIP3    H263287   6.455   2.072   5.293 -2.8745 -0.8011  4.1053
13958TIP3   OH263288   3.361   4.537   2.261 -0.0914  0.1443  0.1414
13958TIP3    H163289   3.330   4.448   2.282 -0.0384  0.2640  0.7583
13958TIP3    H263290   3.386   4.573   2.346  2.8976 -0.3783 -0.4439
13959TIP3   OH263291   4.095   6.238  15.084  0.0479 -0.0233  0.2808
13959TIP3    H163292   4.155   6.168  15.058 -0.8518 -0.6574 -0.0878
13959TIP3    H263293   4.104   6.243  15.179  1.3356  0.4755  0.1443
13960TIP3   OH263294   1.360   2.676  16.331  1.1390 -0.0469  0.5328
13960TIP3    H163295   1.306   2.738  16.380 -0.2157 -0.0662 -0.8738
13960TIP3    H263296   1.346   2.592  16.374 -0.4300 -0.1546 -0.1496
13961TIP3   OH263297   4.368   3.226   2.217 -0.0973 -0.1789 -0.2380
13961TIP3    H163298   4.461   3.206   2.232  0.8673  2.2829 -2.5760
13961TIP3    H263299   4.323   3.184   2.291  3.0384  0.1408  1.9702
13962TIP3   OH263300   3.485   4.232   2.502 -0.0651 -0.1111  0.4537
13962TIP3    H163301   3.525   4.213   2.587  0.3165 -1.9324 -0.0958
13962TIP3    H263302   3.555   4.274   2.452  0.3187 -0.7682  0.4210
13963TIP3   OH263303   3.101   5.722   3.697 -0.1168 -0.1110 -0.2674
13963TIP3    H163304   3.094   5.817   3.706 -0.2851 -0.1661  0.2156
13963TIP3    H263305   3.126   5.708   3.606  0.5113  0.4264 -0.1806
13964TIP3   OH263306   4.295   6.581   1.062 -0.0897 -0.1368  0.5323
13964TIP3    H163307   4.276   6.675   1.061 -0.9658 -0.2967  0.8986
13964TIP3    H263308   4.342   6.567   1.144  0.8528  0.1299  0.0359
13965TIP3   OH263309   2.726   3.699   3.450 -0.5051 -0.0207 -0.2432
13965TIP3    H163310   2.746   3.746   3.532 -2.5651 -1.4720  1.1459
13965TIP3    H263311   2.801   3.642   3.436  0.7339  1.5947 -0.4272
13966TIP3   OH263312   2.934   4.253  12.462  0.0318  0.3305  0.3555
13966TIP3    H163313   2.957   4.330  12.514  1.1151  0.5658 -0.4488
13966TIP3    H263314   2.990   4.259  12.384 -0.6678 -0.6809 -0.2428
13967TIP3   OH263315   3.010   2.320   3.705 -0.3253 -0.0639 -0.0813
13967TIP3    H163316   2.924   2.350   3.676 -0.2047  2.2893  1.8530
13967TIP3    H263317   2.992   2.238   3.752 -1.5273  0.5289  0.5058
13968TIP3   OH263318   5.093   6.656   1.412  0.1729  0.4537 -0.7882
13968TIP3    H163319   5.000   6.635   1.411 -0.2827  2.3830 -2.0161
13968TIP3    H263320   5.132   6.599   1.346 -0.2049 -0.0990 -0.5308
13969TIP3   OH263321   1.015   2.140  16.259  0.6204  0.1666 -0.2767
13969TIP3    H163322   1.030   2.052  16.293  0.0694  0.3629  0.4992
13969TIP3    H263323   1.080   2.195  16.305  0.1348  0.3694  0.1666
13970TIP3   OH263324   2.638   1.063   1.775 -0.2343  0.4734  0.3601
13970TIP3    H163325   2.666   1.095   1.860 -0.6221  0.7594  0.3868
13970TIP3    H263326   2.713   1.078   1.717  0.3510 -0.5579  0.8441
13971TIP3   OH263327   3.604   0.076   2.829 -0.3998 -0.3192 -0.6265
13971TIP3    H163328   3.647   0.121   2.902  0.4049 -1.4968 -0.3660
13971TIP3    H263329   3.564   0.147   2.778  0.4714  0.6592  0.0168
13972TIP3   OH263330   3.502   2.249  14.270 -0.9781 -0.3721 -0.5306
13972TIP3    H163331   3.562   2.276  14.341 -1.2009 -0.5323 -0.2818
13972TIP3    H263332   3.419   2.290  14.293 -1.8618 -2.9177  0.9327
13973TIP3   OH263333   3.285   5.428  11.679  0.2660  0.0616 -0.1531
13973TIP3    H163334   3.363   5.481  11.661  1.9911 -2.3229  0.1646
13973TIP3    H263335   3.246   5.468  11.756  1.5786  0.8299  0.1273
13974TIP3   OH263336   3.769   4.564  16.357 -0.2022  0.5460 -0.0975
13974TIP3    H163337   3.725   4.483  16.382  0.2726 -0.3725 -2.1090
13974TIP3    H263338   3.855   4.558  16.399  0.3043 -0.6065 -1.2697
13975TIP3   OH263339   3.441   6.270   0.114  0.0635 -0.3882  0.0507
13975TIP3    H163340   3.394   6.348   0.083  0.6057  0.8363  2.2222
13975TIP3    H263341   3.385   6.233   0.182 -0.2669 -2.0057 -1.0899
13976TIP3   OH263342   2.318   3.313   1.201 -0.5408 -0.4188 -0.2784
13976TIP3    H163343   2.327   3.250   1.273 -0.7163 -0.6862 -0.4887
13976TIP3    H263344   2.239   3.363   1.223  0.9061  1.3624  1.1319
13977TIP3   OH263345   3.220   0.668   5.838 -0.1944  0.2002 -0.8588
13977TIP3    H163346   3.179   0.582   5.826 -0.3046  0.1900 -0.4273
13977TIP3    H263347   3.187   0.698   5.923  1.3281 -0.1714 -0.1220
13978TIP3   OH263348   1.310   4.797  13.822 -1.8853 -0.2512  0.4611
13978TIP3    H163349   1.379   4.780  13.759 -1.7116 -1.3364  0.9248
13978TIP3    H263350   1.229   4.780  13.774 -1.8008  0.1855  0.1644
13979TIP3   OH263351   2.926   0.621   4.041  0.0145 -0.4719 -0.3192
13979TIP3    H163352   2.858   0.665   3.989 -1.2080 -0.4878  1.2282
13979TIP3    H263353   2.981   0.692   4.073 -1.9787  0.0110  2.2117
13980TIP3   OH263354   2.852   2.907   3.909 -0.2195  0.1263 -0.6459
13980TIP3    H163355   2.807   2.892   3.826  1.0253 -2.8598 -0.8435
13980TIP3    H263356   2.945   2.905   3.887  0.1456 -1.6565  0.9490
13981TIP3   OH263357   0.733   1.800   1.993 -0.1949  0.1099 -0.2887
13981TIP3    H163358   0.674   1.813   2.067 -0.2404  1.5965 -0.5701
13981TIP3    H263359   0.680   1.754   1.928 -0.5664  0.0360  0.0640
13982TIP3   OH263360   5.177   2.488  12.468  0.0208 -0.0462  0.2581
13982TIP3    H163361   5.127   2.419  12.425  2.1708  0.5185 -3.2891
13982TIP3    H263362   5.268   2.463  12.457  0.7512  1.8556  1.6078
13983TIP3   OH263363   4.994   5.437  16.329  0.0592  0.3889  0.1581
13983TIP3    H163364   5.084   5.419  16.304  0.9561 -0.1828  3.6045
13983TIP3    H263365   4.999   5.465  16.420 -3.2494  0.3752  0.4198
13984TIP3   OH263366   6.389   2.674  12.945  0.5252  0.2863  0.4316
13984TIP3    H163367   6.422   2.602  12.999 -1.2486 -0.9546 -0.0483
13984TIP3    H263368   6.430   2.660  12.859 -2.0192 -1.9543 -0.5073
13985TIP3   OH263369   1.468   1.245   0.494  0.1839 -0.0480 -0.1986
13985TIP3    H163370   1.397   1.241   0.430  0.3496  1.3479 -0.4970
13985TIP3    H263371   1.424   1.241   0.579 -0.1011 -1.0576 -0.3917
13986TIP3   OH263372   2.616   1.736   1.602  0.0050  0.0580  0.4407
13986TIP3    H163373   2.680   1.693   1.546  2.3888 -1.0056  3.8145
13986TIP3    H263374   2.531   1.701   1.574  1.1729 -0.9239 -1.9955
13987TIP3   OH263375   1.688   5.945  10.585 -0.4157  0.2279 -0.5884
13987TIP3    H163376   1.725   5.994  10.659  0.9204  1.2005 -1.8614
13987TIP3    H263377   1.726   5.858  10.592  0.0436  0.4453 -0.3734
13988TIP3   OH263378   0.617   5.152   5.818  0.0444 -0.3872  0.3033
13988TIP3    H163379   0.712   5.146   5.805  0.2562  1.2835  1.0092
13988TIP3    H263380   0.600   5.092   5.891  0.9905  1.4216  2.0719
13989TIP3   OH263381   1.794   0.859  11.961  0.0409 -0.6687  0.6197
13989TIP3    H163382   1.760   0.949  11.961 -1.9947 -1.4167 -0.6648
13989TIP3    H263383   1.848   0.854  11.882 -1.3791 -1.1222 -0.3338
13990TIP3   OH263384   2.262   1.259   6.014  0.2471 -0.3136  0.0422
13990TIP3    H163385   2.230   1.171   5.993  1.2687 -0.1084 -2.5865
13990TIP3    H263386   2.278   1.258   6.108  0.4590 -3.0182 -0.0027
13991TIP3   OH263387   2.177   1.657   2.044 -0.6931 -0.4498  1.0699
13991TIP3    H163388   2.214   1.574   2.075  1.4464 -0.4589 -1.3818
13991TIP3    H263389   2.243   1.692   1.985 -3.1913  1.2066 -0.8173
13992TIP3   OH263390   0.186   1.755  16.612  0.3108 -0.3689 -0.1087
13992TIP3    H163391   0.215   1.668  16.638 -0.9552 -0.9933 -0.7511
13992TIP3    H263392   0.093   1.757  16.633  1.1638  2.4119  4.0678
13993TIP3   OH263393   3.457   2.529   3.765  0.1058 -0.3689 -0.2422
13993TIP3    H163394   3.526   2.498   3.707  1.5214  1.9004  0.1684
13993TIP3    H263395   3.403   2.585   3.710 -0.7730 -1.2307 -0.2767
13994TIP3   OH263396   3.764   0.673   5.807  0.1241 -0.5524  0.6348
13994TIP3    H163397   3.799   0.727   5.736  0.5677 -0.5481  0.8516
13994TIP3    H263398   3.718   0.601   5.763 -1.9407  0.9130  0.3469
13995TIP3   OH263399   1.748   3.738   1.925  0.0915  0.3840  0.8113
13995TIP3    H163400   1.674   3.740   1.986  0.4120  0.5551  1.1923
13995TIP3    H263401   1.708   3.716   1.841 -0.2234 -0.8259  1.2610
13996TIP3   OH263402   3.577   2.705   5.031 -0.0512 -0.0397  0.8906
13996TIP3    H163403   3.485   2.722   5.009  0.1818 -0.2381 -0.2446
13996TIP3    H263404   3.575   2.619   5.073 -0.2252 -0.6379 -0.3124
13997TIP3   OH263405   2.001   0.519  11.276  0.4932 -0.4958  0.1049
13997TIP3    H163406   2.007   0.446  11.337 -0.8832 -0.2836  0.4967
13997TIP3    H263407   1.937   0.578  11.315  1.1932  0.6694 -0.4754
13998TIP3   OH263408   0.056   1.459  13.636  0.0319 -0.2007 -0.3202
13998TIP3    H163409  -0.011   1.469  13.703  1.5163  1.0123  1.0086
13998TIP3    H263410   0.012   1.483  13.554 -1.6064 -1.0600  0.2924
13999TIP3   OH263411   4.391   0.850  16.073 -0.3200 -0.2256 -0.0081
13999TIP3    H163412   4.315   0.791  16.079  0.3397 -1.0906 -0.0232
13999TIP3    H263413   4.436   0.839  16.157 -1.3797  1.9173  0.8662
14000TIP3   OH263414   5.970   3.218   4.942 -0.3906 -0.4214  0.2122
14000TIP3    H163415   5.917   3.259   5.010  0.4853 -0.3692  0.8647
14000TIP3    H263416   5.948   3.125   4.947 -2.3161 -0.0935 -1.2144
14001TIP3   OH263417   3.162   3.483   5.357  0.2013  0.0943  0.4044
14001TIP3    H163418   3.234   3.473   5.295 -0.3439 -1.0784 -0.0738
14001TIP3    H263419   3.161   3.576   5.379 -0.0379  0.6773 -1.9113
14002TIP3   OH263420   2.912   0.601   5.387 -0.2775 -0.0480  0.7761
14002TIP3    H163421   2.889   0.551   5.309 -3.3020  0.2464  1.4238
14002TIP3    H263422   2.913   0.537   5.458 -0.8928  0.2448  1.0541
14003TIP3   OH263423   3.259   3.632   2.200 -0.0537 -0.3474  0.7297
14003TIP3    H163424   3.246   3.680   2.282  0.3831  0.6443  0.2279
14003TIP3    H263425   3.175   3.638   2.155 -0.0954 -0.3401  0.8073
14004TIP3   OH263426   2.982   1.630   4.439 -0.6018 -0.4046  0.8213
14004TIP3    H163427   3.013   1.659   4.525 -0.0496  0.6094  0.2964
14004TIP3    H263428   2.919   1.697   4.412  0.7578  0.4065 -0.4472
14005TIP3   OH263429   4.633   0.036  12.328  0.5763  0.0008  0.0555
14005TIP3    H163430   4.566  -0.008  12.275 -0.9307  0.6762  1.3804
14005TIP3    H263431   4.659  -0.030  12.392 -0.5010  0.4878  1.0039
14006TIP3   OH263432   3.041   5.226   6.152  0.1721 -0.1244 -1.2897
14006TIP3    H163433   3.060   5.267   6.237  1.4359  2.0691 -2.5739
14006TIP3    H263434   2.950   5.252   6.133  0.4207  0.7309 -1.3367
14007TIP3   OH263435   5.812   3.742  15.277  0.3089  0.6799  0.2070
14007TIP3    H163436   5.740   3.759  15.337  1.6494  0.3781  1.9492
14007TIP3    H263437   5.805   3.810  15.210 -0.6021  1.6301  1.2613
14008TIP3   OH263438   5.631   6.218  16.931 -0.4771  0.4656 -0.0291
14008TIP3    H163439   5.585   6.267  16.863 -1.3274  0.5893  0.6131
14008TIP3    H263440   5.681   6.152  16.885  1.7490  2.7491 -1.0369
14009TIP3   OH263441   3.048   4.306   0.942  0.1977 -0.0100 -0.3303
14009TIP3    H163442   2.969   4.299   0.889  0.2689 -1.7927 -0.2251
14009TIP3    H263443   3.025   4.261   1.024  0.2994  2.1422  0.9177
14010TIP3   OH263444   1.457   2.871  10.937 -0.0955 -0.3272  0.0043
14010TIP3    H163445   1.524   2.813  10.899  1.8232  1.7064  0.1597
14010TIP3    H263446   1.495   2.899  11.020  0.6020  3.8615 -1.6094
14011TIP3   OH263447   0.796   2.894   2.941  0.3761  0.5515  0.4410
14011TIP3    H163448   0.782   2.813   2.991  0.7768  0.7445  0.8767
14011TIP3    H263449   0.708   2.923   2.918  0.3216 -1.6610 -2.4230
14012TIP3   OH263450   4.640   2.930   1.698 -0.2674  0.5489  0.2467
14012TIP3    H163451   4.667   2.943   1.789  0.6853  0.5998 -0.0373
14012TIP3    H263452   4.716   2.889   1.656 -1.1354 -0.6098 -0.2431
14013TIP3   OH263453   2.712   5.628   2.452  0.0586  0.0115 -0.1285
14013TIP3    H163454   2.721   5.711   2.498 -1.4740  0.1225  0.0168
14013TIP3    H263455   2.750   5.563   2.510  0.6654  0.5312  0.0505
14014TIP3   OH263456   4.836   1.242   3.774 -0.1888 -0.4241 -0.4595
14014TIP3    H163457   4.878   1.314   3.821 -1.7053  0.1615  0.0404
14014TIP3    H263458   4.894   1.167   3.788  1.9402  0.9202 -1.8444
14015TIP3   OH263459   2.305   0.302   0.114  0.2887 -0.6282  0.1802
14015TIP3    H163460   2.351   0.384   0.099 -2.2868  0.8813  0.2811
14015TIP3    H263461   2.329   0.276   0.203  0.1380  0.6584  0.6028
14016TIP3   OH263462   2.174   0.852   2.036  0.4434  0.3011  0.5463
14016TIP3    H163463   2.124   0.931   2.012  0.6981 -0.3861 -2.4844
14016TIP3    H263464   2.265   0.881   2.039  0.4008  0.4159  0.7051
14017TIP3   OH263465   4.003   1.947   1.438  0.4469  0.4441 -0.0638
14017TIP3    H163466   4.009   1.964   1.532 -0.3112 -0.8913  0.2291
14017TIP3    H263467   4.051   1.865   1.425 -1.5455 -0.6940 -0.4539
14018TIP3   OH263468   6.131   0.783   5.567  0.8064 -0.3264 -0.0089
14018TIP3    H163469   6.116   0.816   5.656  0.7916 -2.1452  0.6818
14018TIP3    H263470   6.134   0.862   5.513 -1.3019  0.6811  1.2786
14019TIP3   OH263471   6.230   6.256  11.451 -0.6408 -0.2719  0.2438
14019TIP3    H163472   6.198   6.222  11.534 -1.8920  0.5223  0.1050
14019TIP3    H263473   6.236   6.179  11.394 -0.8344 -0.6550  0.7414
14020TIP3   OH263474   4.182   1.658   0.580  0.8206  0.0935  0.4467
14020TIP3    H163475   4.220   1.741   0.608  1.8012 -0.1205 -0.2109
14020TIP3    H263476   4.214   1.594   0.644 -0.8200  0.3779  1.5974
14021TIP3   OH263477   5.042   1.558  14.351  0.3055  0.0374  0.1185
14021TIP3    H163478   4.964   1.607  14.377  0.2099 -0.4962  0.8348
14021TIP3    H263479   5.078   1.608  14.278 -1.1761 -0.1503 -0.7748
14022TIP3   OH263480   2.265   4.821  16.355 -0.3975  0.3017 -0.2515
14022TIP3    H163481   2.290   4.905  16.315 -0.5684 -1.1477 -3.6023
14022TIP3    H263482   2.184   4.798  16.310 -1.8093 -0.3927  2.5873
14023TIP3   OH263483   2.245   1.921  11.648  0.1040 -0.0873 -0.0856
14023TIP3    H163484   2.317   1.873  11.690  0.5377  0.6705  0.0471
14023TIP3    H263485   2.250   1.896  11.556  0.1837 -0.4670  0.0173
14024TIP3   OH263486   6.488   6.745  11.064 -0.4717 -0.2146 -0.1716
14024TIP3    H163487   6.531   6.671  11.021  0.6673 -0.3544  1.1565
14024TIP3    H263488   6.559   6.807  11.081 -1.1470  0.4656  0.1897
14025TIP3   OH263489   1.850   4.386   6.025 -0.1363 -0.2737 -0.1391
14025TIP3    H163490   1.898   4.325   6.081  0.4297  0.6794  0.4266
14025TIP3    H263491   1.817   4.453   6.085 -1.9331 -0.7341 -0.5603
14026TIP3   OH263492   2.028   5.368  12.897 -0.3307 -0.4618 -0.2364
14026TIP3    H163493   2.050   5.368  12.990 -0.6178 -2.2979 -0.1509
14026TIP3    H263494   2.083   5.299  12.859  0.0107  0.4693 -1.4948
14027TIP3   OH263495   4.433   2.832  15.923 -0.2368  0.1397 -0.4840
14027TIP3    H163496   4.499   2.787  15.975 -1.0644  0.3134  0.7398
14027TIP3    H263497   4.352   2.784  15.941 -0.8424  1.1985 -0.3500
14028TIP3   OH263498   3.037   5.673   0.053  0.2003  0.3096 -0.0364
14028TIP3    H163499   3.118   5.700   0.012  0.2078 -0.5971 -0.6298
14028TIP3    H263500   3.006   5.599   0.001 -1.1670  0.8288 -0.0050
14029TIP3   OH263501   4.493   4.267  15.535 -0.3226  0.2589 -0.1257
14029TIP3    H163502   4.587   4.255  15.532 -0.3845  0.0347 -1.7173
14029TIP3    H263503   4.456   4.184  15.503 -0.9631  1.2757 -2.1505
14030TIP3   OH263504   2.239   4.360   1.325  0.0790  0.5803 -0.2688
14030TIP3    H163505   2.181   4.329   1.395 -1.5006  1.1039 -1.3217
14030TIP3    H263506   2.325   4.365   1.366 -0.2120 -2.1765  0.7820
14031TIP3   OH263507   4.191   0.648  16.110  0.0451  0.0425 -0.6371
14031TIP3    H163508   4.229   0.629  16.195 -0.9784  0.5654 -0.0582
14031TIP3    H263509   4.195   0.565  16.063  0.9759 -0.1502 -0.2362
14032TIP3   OH263510   4.397   5.522  17.021  0.2947  0.4077  0.9042
14032TIP3    H163511   4.448   5.473  16.956  0.0812  1.0719  0.2294
14032TIP3    H263512   4.463   5.565  17.075  0.4669  0.3512  0.7427
14033TIP3   OH263513   3.245   1.053  10.637 -0.5473 -0.4164  0.2229
14033TIP3    H163514   3.212   1.129  10.685  3.3006  2.0208 -0.7786
14033TIP3    H263515   3.266   0.989  10.705 -2.1299  0.0838  1.2081
14034TIP3   OH263516   3.001   5.131  11.359 -0.0490 -0.8592  0.1639
14034TIP3    H163517   3.066   5.066  11.332  0.5182 -0.3868  0.3717
14034TIP3    H263518   2.960   5.158  11.277  0.5411 -0.6137 -0.0545
14035TIP3   OH263519   0.557   3.726   5.444 -0.5755 -0.4516  0.2799
14035TIP3    H163520   0.633   3.693   5.397 -0.7324 -0.9668  0.3927
14035TIP3    H263521   0.482   3.693   5.394 -0.7295  0.5521 -0.1831
14036TIP3   OH263522   0.949   5.734  16.334 -0.1593  0.3753 -0.2126
14036TIP3    H163523   0.860   5.701  16.316 -1.2390  1.6166  2.6042
14036TIP3    H263524   0.944   5.827  16.315  0.6969  0.3488 -0.5656
14037TIP3   OH263525   0.633   4.438  14.991  0.1946 -0.2096  0.0001
14037TIP3    H163526   0.709   4.453  15.047  0.1443 -0.6563  0.1869
14037TIP3    H263527   0.635   4.510  14.929  1.8240 -1.2310 -1.1617
14038TIP3   OH263528   0.171   3.635  10.658  0.3274 -0.3518 -0.0330
14038TIP3    H163529   0.114   3.583  10.601 -0.4203  0.5891 -0.1575
14038TIP3    H263530   0.255   3.639  10.612 -0.1553  0.0659 -0.8799
14039TIP3   OH263531   3.894   1.410  12.646 -0.3586 -0.0308  0.1024
14039TIP3    H163532   3.883   1.503  12.627 -2.4069 -0.6362 -1.8162
14039TIP3    H263533   3.973   1.384  12.598 -1.3313  0.1153 -1.5975
14040TIP3   OH263534   3.744   1.891   3.645  0.4112 -0.0368  0.0951
14040TIP3    H163535   3.735   1.977   3.687 -0.6319 -0.0143 -0.1629
14040TIP3    H263536   3.838   1.882   3.628  0.7125  0.3925  1.5101
14041TIP3   OH263537   0.990   2.133   2.571 -0.7593 -0.1158  0.2822
14041TIP3    H163538   0.919   2.194   2.592 -0.3721  0.2877  0.4208
14041TIP3    H263539   0.974   2.058   2.627 -0.1349  0.6550  1.5020
14042TIP3   OH263540   2.585   5.394  12.513  0.3643 -0.9806 -0.4695
14042TIP3    H163541   2.676   5.414  12.493 -0.5615  1.8938 -2.0928
14042TIP3    H263542   2.547   5.367  12.429 -0.4141 -1.6779  0.0965
14043TIP3   OH263543   4.685   3.283   1.972  0.0796 -0.1030 -0.0968
14043TIP3    H163544   4.595   3.252   1.971  0.6153 -1.8445  1.7389
14043TIP3    H263545   4.689   3.342   2.048  0.5228 -0.1475 -0.0808
14044TIP3   OH263546   3.347   1.853  13.076  0.3706  0.1430 -0.0680
14044TIP3    H163547   3.306   1.940  13.078  0.3192  0.2220 -3.0433
14044TIP3    H263548   3.281   1.795  13.115  0.3791  1.3874  1.8796
14045TIP3   OH263549   6.311   6.317  13.785 -0.2181  0.3082 -0.5489
14045TIP3    H163550   6.283   6.355  13.868 -0.6434  0.1280 -0.6118
14045TIP3    H263551   6.393   6.272  13.806 -0.5796 -0.1570 -0.1218
14046TIP3   OH263552   5.017   1.032   4.065 -0.3112  0.1911 -0.0120
14046TIP3    H163553   5.047   1.120   4.088 -0.2897  0.2697 -0.3452
14046TIP3    H263554   5.034   1.024   3.971 -2.6459  0.7905 -0.5268
14047TIP3   OH263555   5.093   4.844  11.545 -0.0147 -0.2195 -0.4038
14047TIP3    H163556   5.137   4.888  11.473  1.6982  0.0047  0.7458
14047TIP3    H263557   5.059   4.915  11.599 -0.2117 -0.3705 -0.3257
14048TIP3   OH263558   5.710   0.951  13.103  0.2115 -0.4371 -0.6855
14048TIP3    H163559   5.748   0.876  13.149  1.3244 -0.5889 -1.8242
14048TIP3    H263560   5.774   1.021  13.113 -1.8594  1.1381  2.3813
14049TIP3   OH263561   4.316   1.906  14.692  0.6843 -0.1214 -0.0836
14049TIP3    H163562   4.230   1.948  14.696 -0.0477 -1.5478 -0.5632
14049TIP3    H263563   4.378   1.976  14.712 -0.6549  0.6641  1.4461
14050TIP3   OH263564   5.236   1.615  16.119  0.7485 -0.7901 -0.0412
14050TIP3    H163565   5.144   1.607  16.144  1.3549 -2.6223  1.7285
14050TIP3    H263566   5.270   1.526  16.123  2.5824 -0.1579 -0.8463
14051TIP3   OH263567   0.033   2.920   4.678 -0.1758  0.2633 -0.4024
14051TIP3    H163568  -0.015   2.854   4.628 -0.2365 -1.6727  2.0920
14051TIP3    H263569  -0.028   2.993   4.686 -0.8835 -0.1941 -1.4612
14052TIP3   OH263570   5.953   5.272   0.100  0.0950 -0.3776  0.3098
14052TIP3    H163571   6.044   5.267   0.071 -0.1885 -2.7789 -0.2926
14052TIP3    H263572   5.930   5.364   0.092  2.1515  0.0833 -0.5488
14053TIP3   OH263573   4.878   1.930   6.183 -0.3123  0.0135  0.3207
14053TIP3    H163574   4.795   1.969   6.157  0.7061 -0.0680 -3.2963
14053TIP3    H263575   4.939   2.005   6.187 -0.0702 -0.2092  0.8445
14054TIP3   OH263576   6.483   4.336  15.119 -0.6854 -0.4078 -0.0094
14054TIP3    H163577   6.471   4.346  15.024 -1.5517  1.1638  0.2541
14054TIP3    H263578   6.408   4.283  15.147 -1.2164  0.3265 -0.0070
14055TIP3   OH263579   6.502   3.720   5.479  0.2842 -0.1472 -0.7311
14055TIP3    H163580   6.417   3.679   5.495  0.6052 -0.7871 -0.6510
14055TIP3    H263581   6.560   3.682   5.545  0.4836  0.7644 -0.3749
14056TIP3   OH263582   4.662   3.442  14.152  0.0600  0.2220 -0.1195
14056TIP3    H163583   4.644   3.422  14.244 -1.6660  1.1275 -0.2382
14056TIP3    H263584   4.758   3.436  14.144  0.6176  3.7463  2.6304
14057TIP3   OH263585   3.952   0.888   1.892 -0.1010  0.6735 -0.0198
14057TIP3    H163586   4.035   0.932   1.911  0.2763 -0.0039 -0.1182
14057TIP3    H263587   3.901   0.898   1.973  0.1203  0.9662  0.0871
14058TIP3   OH263588   3.925   4.886  12.208  0.3423 -0.1794  0.4522
14058TIP3    H163589   3.989   4.926  12.268  0.9914 -0.1735 -0.2338
14058TIP3    H263590   3.841   4.922  12.236  0.5824 -0.4971  1.6274
14059TIP3   OH263591   4.861   0.804  13.845 -0.1299  0.5972 -0.3351
14059TIP3    H163592   4.824   0.798  13.757 -0.1047 -1.8094 -0.2193
14059TIP3    H263593   4.951   0.772  13.836  0.1014  1.0105  0.4292
14060TIP3   OH263594   4.051   4.550  12.693  0.1721  0.0252  0.3524
14060TIP3    H163595   4.097   4.536  12.776  0.5095  2.4761  0.6282
14060TIP3    H263596   4.003   4.468  12.678  0.5923 -0.6924  2.6330
14061TIP3   OH263597   2.373   3.991   1.599  0.2913  0.0059  0.1960
14061TIP3    H163598   2.410   4.031   1.520  1.2341  2.6344  1.8685
14061TIP3    H263599   2.433   3.920   1.620  0.9552  0.3260 -0.5727
14062TIP3   OH263600   2.581   6.691  15.352 -0.0470  0.2982  0.1829
14062TIP3    H163601   2.487   6.696  15.338  0.1071 -0.9445 -1.5023
14062TIP3    H263602   2.600   6.597  15.352  0.8550  0.4183  3.0396
14063TIP3   OH263603   4.241   0.577   6.974  0.3130  0.7247 -0.2228
14063TIP3    H163604   4.148   0.578   6.998  0.1496 -0.7918 -0.7289
14063TIP3    H263605   4.244   0.619   6.888 -0.3828 -2.0190 -1.6670
14064TIP3   OH263606   6.490   2.371   3.188  0.1037  0.0363 -0.0596
14064TIP3    H163607   6.440   2.319   3.125  2.6665 -3.0058  0.2918
14064TIP3    H263608   6.473   2.328   3.273  1.3832  0.4550  0.4109
14065TIP3   OH263609   3.726   6.529   5.889 -0.4190 -0.2235 -0.1695
14065TIP3    H163610   3.702   6.466   5.956  0.9695 -0.3929  0.1814
14065TIP3    H263611   3.762   6.603   5.938 -1.8736  0.7916 -0.5828
14066TIP3   OH263612   2.690   6.188  14.870  0.5630  0.0147 -0.5574
14066TIP3    H163613   2.767   6.244  14.878  1.0488 -0.6435 -0.5006
14066TIP3    H263614   2.667   6.190  14.778 -1.4408  2.9247 -0.0446
14067TIP3   OH263615   0.429   1.274   5.733  0.2167 -0.2790  0.4451
14067TIP3    H163616   0.498   1.296   5.671 -0.4349  0.8166  0.1043
14067TIP3    H263617   0.472   1.277   5.818  0.7757 -0.3737  0.1684
14068TIP3   OH263618   2.470   3.976  13.739  0.2617 -0.3039 -0.5187
14068TIP3    H163619   2.522   3.987  13.660  0.3573  0.4941 -0.3488
14068TIP3    H263620   2.391   3.929  13.710  0.6419 -0.6869 -0.9421
14069TIP3   OH263621   5.724   4.996  16.884  0.1637  0.3558 -0.3744
14069TIP3    H163622   5.806   4.991  16.933  1.4863  0.4328 -2.4845
14069TIP3    H263623   5.662   5.036  16.944  1.9227  1.1441  0.9667
14070TIP3   OH263624   6.041   2.633   1.781 -0.2980 -0.0037 -0.1948
14070TIP3    H163625   5.990   2.661   1.857  1.2305  0.2262  0.7725
14070TIP3    H263626   6.022   2.698   1.713 -1.9571 -0.4195 -0.1446
14071TIP3   OH263627   0.658   4.254  15.521 -0.1106 -0.7114 -0.0492
14071TIP3    H163628   0.613   4.248  15.605  0.1694  0.9702  0.2382
14071TIP3    H263629   0.590   4.241  15.456 -0.4409 -1.3783  0.4204
14072TIP3   OH263630   3.071   3.916   4.772 -0.9540 -0.0232 -0.1131
14072TIP3    H163631   3.101   3.849   4.835  0.0602 -0.7231 -1.3249
14072TIP3    H263632   3.098   3.999   4.812  0.4944 -0.5118 -0.0293
14073TIP3   OH263633   3.704   6.778   5.037 -0.0862  0.5201 -0.1387
14073TIP3    H163634   3.760   6.700   5.032 -1.4961 -0.4549 -0.9495
14073TIP3    H263635   3.671   6.779   5.126 -0.9335 -0.4438 -0.4281
14074TIP3   OH263636   4.226   4.070   4.764 -0.5744  0.1363  0.7529
14074TIP3    H163637   4.306   4.044   4.717 -1.1418 -0.4962  0.1248
14074TIP3    H263638   4.196   4.149   4.721 -1.1067 -0.4567  0.0212
14075TIP3   OH263639   1.897   1.921   4.018  0.4507 -0.0211  0.1652
14075TIP3    H163640   1.832   1.992   4.022  0.8933  0.4588 -0.9825
14075TIP3    H263641   1.846   1.843   3.996 -0.0903 -0.1376  1.7568
14076TIP3   OH263642   3.093   3.796  12.531 -0.1811 -0.5790  0.0219
14076TIP3    H163643   3.152   3.865  12.501 -0.0214 -0.7618 -0.0869
14076TIP3    H263644   3.011   3.841  12.551 -0.0335 -0.3402  0.0809
14077TIP3   OH263645   4.997   1.496  15.655 -0.3170  0.2794  0.1473
14077TIP3    H163646   5.001   1.540  15.570 -0.4004 -4.4424 -2.4682
14077TIP3    H263647   5.053   1.548  15.712 -1.0947  4.1834 -2.4653
14078TIP3   OH263648   1.194   4.850  16.703  0.4320 -0.0226 -0.2709
14078TIP3    H163649   1.205   4.760  16.732  1.2261 -0.0863 -0.7665
14078TIP3    H263650   1.116   4.848  16.648  0.7890 -0.5240 -0.7633
14079TIP3   OH263651   6.568   4.156   5.385  0.4170  0.8346  0.0206
14079TIP3    H163652   6.504   4.128   5.451  1.2050 -0.1983  0.3512
14079TIP3    H263653   6.626   4.081   5.375  1.6415  1.8051 -0.1975
14080TIP3   OH263654   5.109   4.291  12.678  0.4086  0.1997 -0.5748
14080TIP3    H163655   5.159   4.294  12.596 -0.3225 -1.9194 -1.1272
14080TIP3    H263656   5.123   4.202  12.712  0.7920  1.0883  1.6678
14081TIP3   OH263657   2.963   2.906   0.941 -0.3816  0.4412 -0.2988
14081TIP3    H163658   3.050   2.935   0.969 -1.2946  1.8467  1.1648
14081TIP3    H263659   2.907   2.982   0.955 -2.5139 -1.4743  2.0204
14082TIP3   OH263660   3.303   3.512  16.274  0.1717 -0.1317  0.8611
14082TIP3    H163661   3.268   3.426  16.297 -2.8240  0.2480 -1.9783
14082TIP3    H263662   3.252   3.573  16.326  1.8521  0.0156  2.3761
14083TIP3   OH263663   1.205   3.061  14.576  0.3507  0.1205 -0.1910
14083TIP3    H163664   1.234   3.150  14.595  1.4696 -0.4092  0.5980
14083TIP3    H263665   1.277   3.022  14.527 -1.1974  0.4471 -2.8146
14084TIP3   OH263666   4.515   2.086  10.997 -0.6468  0.1704  0.1036
14084TIP3    H163667   4.485   2.040  11.076 -2.4599  0.4948 -0.3845
14084TIP3    H263668   4.436   2.125  10.960  0.4726  1.5344 -0.9081
14085TIP3   OH263669   0.509   2.249  17.196 -0.7116 -0.5115 -0.7054
14085TIP3    H163670   0.511   2.325  17.255 -0.3303 -2.6150  2.0901
14085TIP3    H263671   0.593   2.205  17.210 -0.8414 -1.3610 -2.4410
14086TIP3   OH263672   2.688   4.656  16.347 -0.5453  0.2524 -0.7701
14086TIP3    H163673   2.733   4.728  16.302 -1.1373 -0.3922 -2.4337
14086TIP3    H263674   2.596   4.682  16.346 -0.3954  1.0077  1.5790
14087TIP3   OH263675   3.688   1.106   2.562 -0.4674 -0.6688 -0.2271
14087TIP3    H163676   3.697   1.031   2.621  2.5720  0.3253  0.6424
14087TIP3    H263677   3.606   1.148   2.589 -1.1672 -2.4874  0.6068
14088TIP3   OH263678   0.907   5.016   4.204  0.0171  0.1095 -0.0090
14088TIP3    H163679   0.871   5.104   4.215 -0.5610 -0.1765  0.3884
14088TIP3    H263680   0.853   4.977   4.134  0.4207  0.1525 -0.3440
14089TIP3   OH263681   0.863   2.152   1.044  0.3176 -0.1506  0.0976
14089TIP3    H163682   0.865   2.124   1.136  0.1968 -0.3166  0.0495
14089TIP3    H263683   0.955   2.146   1.016  0.5424  1.0296  0.5457
14090TIP3   OH263684   4.091   0.486  15.481  0.2269  0.2222  0.0849
14090TIP3    H163685   4.113   0.512  15.571  0.4506 -1.1301  0.4343
14090TIP3    H263686   3.998   0.504  15.473 -0.0047 -0.5904  0.9220
14091TIP3   OH263687   2.190   4.100   3.016  0.0953 -0.0339  0.1500
14091TIP3    H163688   2.265   4.072   3.070 -0.3261 -0.0162  0.7548
14091TIP3    H263689   2.189   4.195   3.024  0.5759  0.0406 -0.6281
14092TIP3   OH263690   6.029   1.833  14.893  0.6474 -0.0852  0.2183
14092TIP3    H163691   6.010   1.741  14.908 -0.5042  0.5089  2.7216
14092TIP3    H263692   6.111   1.849  14.941  0.5125  0.3195  0.3204
14093TIP3   OH263693   2.907   4.747  14.188  0.7026  0.1258 -0.3445
14093TIP3    H163694   2.982   4.792  14.148  1.5781  0.0062  1.1332
14093TIP3    H263695   2.856   4.715  14.114  2.4122 -0.2902 -1.3579
14094TIP3   OH263696   5.542   4.582   4.562 -0.3501  0.4486  0.4649
14094TIP3    H163697   5.605   4.639   4.518  0.4387 -1.5576 -1.1000
14094TIP3    H263698   5.485   4.550   4.492 -0.3132 -1.2406  1.1704
14095TIP3   OH263699   4.028   0.666   1.012  0.1830 -0.3826  0.4043
14095TIP3    H163700   3.998   0.670   1.103 -1.0664  2.0748 -0.0564
14095TIP3    H263701   4.099   0.731   1.008 -1.1145  0.9846 -0.8182
14096TIP3   OH263702   5.757   1.689  12.415  0.4641 -0.5757  0.7602
14096TIP3    H163703   5.726   1.680  12.325 -4.0451 -0.9846  2.2092
14096TIP3    H263704   5.764   1.783  12.428 -1.0824 -0.4407  0.6565
14097TIP3   OH263705   3.152   2.471   1.280  0.4929 -0.3149  0.1389
14097TIP3    H163706   3.246   2.486   1.282  0.3783  0.9088 -1.9443
14097TIP3    H263707   3.139   2.402   1.216 -0.1777  0.9926 -1.1594
14098TIP3   OH263708   6.359   6.253  15.744 -0.4045 -0.5389 -1.0454
14098TIP3    H163709   6.282   6.303  15.715 -0.9428 -0.3872  0.5901
14098TIP3    H263710   6.324   6.167  15.768 -0.1298 -0.3488  0.0516
14099TIP3   OH263711   1.350   1.858   6.200  0.1074  0.7042  0.7101
14099TIP3    H163712   1.296   1.809   6.263 -0.2633 -0.2546 -0.3257
14099TIP3    H263713   1.417   1.901   6.254 -0.8943  0.8426  1.8756
14100TIP3   OH263714   6.105   1.418  15.175 -0.6162 -0.1097  0.5966
14100TIP3    H163715   6.181   1.463  15.212 -0.8524  1.3452 -0.6208
14100TIP3    H263716   6.121   1.416  15.081 -0.7640 -2.3489  0.5782
14101TIP3   OH263717   6.757   5.528  12.133  0.4298 -0.1063 -0.0690
14101TIP3    H163718   6.800   5.442  12.127  1.8785  0.5937  0.1037
14101TIP3    H263719   6.826   5.588  12.160 -0.4388  1.2385 -0.7589
14102TIP3   OH263720   6.372   1.945  16.009  0.0877  0.5285  0.5923
14102TIP3    H163721   6.364   1.945  16.104  0.1958 -1.3256  0.6175
14102TIP3    H263722   6.444   1.885  15.991  0.6188  1.5002 -0.6332
14103TIP3   OH263723   1.888   2.275   5.243 -0.0303 -0.4221  0.2424
14103TIP3    H163724   1.813   2.332   5.264 -1.1869 -0.5353 -3.3079
14103TIP3    H263725   1.857   2.187   5.262 -0.4676 -0.3888 -0.3076
14104TIP3   OH263726   4.739   1.999  11.728 -0.6349 -0.8230  0.0151
14104TIP3    H163727   4.661   1.987  11.782 -1.2815 -0.8633 -0.9196
14104TIP3    H263728   4.721   1.949  11.649  0.3142 -0.7724 -0.2347
14105TIP3   OH263729   5.080   0.662   4.559  0.3533 -0.0571  0.1743
14105TIP3    H163730   5.087   0.581   4.611 -0.8656  0.2156  0.8028
14105TIP3    H263731   5.011   0.642   4.496 -0.6430  0.8049  0.9647
14106TIP3   OH263732   4.569   4.204  15.854  0.0062 -0.1092 -0.0310
14106TIP3    H163733   4.591   4.142  15.785 -0.2513 -0.4206  0.1605
14106TIP3    H263734   4.622   4.281  15.836  0.4652 -0.4567 -0.1649
14107TIP3   OH263735   1.954   3.802  11.760  0.4089  0.1007 -0.3809
14107TIP3    H163736   1.858   3.810  11.760  0.3434 -0.3298  1.5429
14107TIP3    H263737   1.982   3.857  11.833  1.2968 -2.6808  1.4841
14108TIP3   OH263738   0.509   0.922  13.514 -0.3089 -0.9795 -0.0555
14108TIP3    H163739   0.497   0.861  13.587  0.8777 -0.2776  0.7485
14108TIP3    H263740   0.422   0.959  13.500 -0.6771 -1.5787  0.5989
14109TIP3   OH263741   4.018   2.430  15.567 -0.0027 -0.4533 -0.2610
14109TIP3    H163742   4.093   2.374  15.588  0.3930  0.5430  1.0456
14109TIP3    H263743   3.942   2.378  15.591  0.4028  0.0504  2.2257
14110TIP3   OH263744   5.872   3.197  17.198 -0.3702 -0.5627 -0.3263
14110TIP3    H163745   5.832   3.118  17.162 -0.5586 -0.0022 -1.3745
14110TIP3    H263746   5.942   3.218  17.137  1.1636 -1.1915  1.1717
14111TIP3   OH263747   2.502   0.928  16.488  0.2872  0.2248  0.0704
14111TIP3    H163748   2.594   0.933  16.463  0.4697  1.1503  0.8705
14111TIP3    H263749   2.454   0.939  16.406  0.8859 -1.1265 -0.4691
14112TIP3   OH263750   1.741   3.157  14.548 -0.5671 -0.2566 -0.1826
14112TIP3    H163751   1.732   3.100  14.472 -1.4363  1.6576 -1.5530
14112TIP3    H263752   1.818   3.123  14.594 -0.9497 -2.4086 -1.0317
14113TIP3   OH263753   3.017   1.474   5.879  0.3100  0.0470  0.1237
14113TIP3    H163754   2.957   1.546   5.861  2.0093  1.3480 -0.5981
14113TIP3    H263755   2.988   1.438   5.962  0.1068  2.3394  1.0940
14114TIP3   OH263756   1.085   4.378  17.180  0.1646  0.1310  0.0150
14114TIP3    H163757   1.141   4.453  17.196  2.5695 -1.5778 -0.0287
14114TIP3    H263758   1.088   4.366  17.085  0.2572 -0.3435  0.0749
14115TIP3   OH263759   3.311   5.744   4.536 -0.0566  0.8681  0.0791
14115TIP3    H163760   3.298   5.650   4.528 -0.6231  0.8765  0.8860
14115TIP3    H263761   3.324   5.759   4.629 -0.0188  1.5945 -0.0405
14116TIP3   OH263762   3.663   2.567  11.579  0.0911  0.1928 -0.4018
14116TIP3    H163763   3.703   2.654  11.583 -0.7343  0.5289  1.0203
14116TIP3    H263764   3.712   2.521  11.511  1.4295  1.3264 -0.2262
14117TIP3   OH263765   6.063   0.114  10.856  0.3766  0.6482 -0.2104
14117TIP3    H163766   6.093   0.023  10.852 -0.4373  0.4373 -1.4968
14117TIP3    H263767   6.053   0.140  10.765  1.8531  2.4534  0.1103
14118TIP3   OH263768   6.767   5.491  15.646  0.2796 -0.2514  0.8317
14118TIP3    H163769   6.791   5.579  15.675  1.6374 -0.2131 -0.3468
14118TIP3    H263770   6.849   5.441  15.649  0.4871 -0.2945 -2.6581
14119TIP3   OH263771   0.932   4.665   4.702  0.7531  0.2524 -0.2223
14119TIP3    H163772   0.992   4.661   4.776 -0.7279  1.6180  1.0913
14119TIP3    H263773   0.869   4.732   4.725  0.6180  1.1805 -3.0285
14120TIP3   OH263774   4.264   6.728  14.220 -0.0392  0.1780  0.5703
14120TIP3    H163775   4.272   6.823  14.227  1.0918  0.3623 -2.3309
14120TIP3    H263776   4.338   6.693  14.271  0.8730  0.9560 -0.1955
14121TIP3   OH263777   1.897   0.886  14.437  0.0929  0.2541 -0.4668
14121TIP3    H163778   1.881   0.892  14.532  0.9586  1.6951 -0.4031
14121TIP3    H263779   1.992   0.882  14.429  0.0472  0.9274 -1.3245
14122TIP3   OH263780   5.448   4.875  14.565  0.5158  0.1670 -0.1232
14122TIP3    H163781   5.479   4.834  14.646  0.0970  0.3792  0.1491
14122TIP3    H263782   5.395   4.949  14.595  0.7233  0.5109 -0.5996
14123TIP3   OH263783   1.286   1.076   4.641  0.1122  0.3130  0.9619
14123TIP3    H163784   1.194   1.055   4.657 -0.4203  1.5998 -0.3405
14123TIP3    H263785   1.285   1.135   4.566  2.0752 -0.4144  0.3233
14124TIP3   OH263786   0.061   0.613   1.284  0.4484 -0.4842  0.2788
14124TIP3    H163787   0.155   0.598   1.290  0.5256  0.1260  0.6868
14124TIP3    H263788   0.029   0.546   1.224  1.0611 -1.0338  0.5712
14125TIP3   OH263789   5.989   2.086  12.098  0.3606 -0.4379  0.2353
14125TIP3    H163790   6.074   2.108  12.135  0.6971 -0.9846 -0.2036
14125TIP3    H263791   5.933   2.069  12.174  0.6902 -0.2509  0.5189
14126TIP3   OH263792   3.493   5.933  14.583  0.5816  0.4840  0.0038
14126TIP3    H163793   3.436   5.962  14.513  2.2891 -0.5027 -1.8413
14126TIP3    H263794   3.437   5.878  14.639 -0.5567  0.5005 -1.1023
14127TIP3   OH263795   6.585   3.517  16.232 -0.3177 -0.2370 -0.4851
14127TIP3    H163796   6.544   3.596  16.198 -0.5525 -0.7135 -1.3084
14127TIP3    H263797   6.679   3.532  16.223 -0.3234  0.5393  0.6964
14128TIP3   OH263798   3.759   6.217   3.382 -0.4827  0.3781 -0.5196
14128TIP3    H163799   3.736   6.191   3.471  0.9489 -0.4271 -0.3764
14128TIP3    H263800   3.789   6.308   3.390  1.1837 -0.2001  0.0962
14129TIP3   OH263801   6.096   2.976   3.842 -0.1310 -0.1442 -0.3206
14129TIP3    H163802   6.069   2.886   3.858 -1.5428  0.5198  1.1396
14129TIP3    H263803   6.167   2.993   3.905 -0.0906 -0.1223 -0.3711
14130TIP3   OH263804   5.555   2.202  11.708 -0.0055  0.4727 -0.2602
14130TIP3    H163805   5.507   2.242  11.781  0.6112  1.5917 -0.4592
14130TIP3    H263806   5.568   2.274  11.646  3.0667  0.5155  0.3605
14131TIP3   OH263807   1.862   2.156  14.433 -0.0133  0.6420  0.2698
14131TIP3    H163808   1.815   2.165  14.350 -0.6689 -0.7885  0.4703
14131TIP3    H263809   1.951   2.132  14.409 -0.3391 -0.3017 -0.0137
14132TIP3   OH263810   4.927   1.233   0.935 -0.2547 -0.1226  0.0506
14132TIP3    H163811   4.897   1.188   0.856 -1.3599  0.1268  0.3101
14132TIP3    H263812   5.004   1.185   0.964 -0.0050 -0.3681 -1.0350
14133TIP3   OH263813   1.045   0.751  16.981 -0.0818 -0.4440 -0.1008
14133TIP3    H163814   1.019   0.766  16.891  0.2839 -1.0237 -0.3083
14133TIP3    H263815   1.123   0.696  16.975  0.9033  0.8548  0.5321
14134TIP3   OH263816   0.576   1.818  16.923 -0.2074  0.1446  0.2006
14134TIP3    H163817   0.666   1.852  16.919 -0.2916  0.2460 -1.0933
14134TIP3    H263818   0.585   1.727  16.948  0.1325  0.6659  2.0366
14135TIP3   OH263819   1.386   1.449  13.395  0.0966 -0.3022  0.6100
14135TIP3    H163820   1.364   1.531  13.351  0.4625 -0.2489  0.5277
14135TIP3    H263821   1.336   1.382  13.348  1.4536 -0.4202 -0.6793
14136TIP3   OH263822   5.594   5.117   5.886  0.4200  0.0890 -0.6192
14136TIP3    H163823   5.554   5.077   5.963 -0.2238  0.6922 -0.6328
14136TIP3    H263824   5.598   5.047   5.821  1.4245 -0.5591  0.1203
14137TIP3   OH263825   6.410   2.519   6.198  0.2865 -0.5994 -0.5698
14137TIP3    H163826   6.343   2.451   6.201 -0.1028 -0.2273 -0.7607
14137TIP3    H263827   6.493   2.471   6.200  0.0178 -1.1062 -1.2817
14138TIP3   OH263828   1.746   4.936  16.491  0.6284  0.3466 -0.5819
14138TIP3    H163829   1.776   4.999  16.426  0.2685 -0.7726 -1.8749
14138TIP3    H263830   1.654   4.920  16.469  1.3772 -2.5308 -1.9404
14139TIP3   OH263831   3.443   6.050  17.045 -0.2415  0.3761  0.2745
14139TIP3    H163832   3.525   6.071  17.089 -0.7684  1.7555  0.6371
14139TIP3    H263833   3.379   6.042  17.116 -0.3179 -1.3165  0.0415
14140TIP3   OH263834   6.117   1.381   5.799 -0.3670 -0.4384  0.5721
14140TIP3    H163835   6.041   1.413   5.848 -0.3438 -1.0613  1.0235
14140TIP3    H263836   6.187   1.441   5.823 -0.9191  0.6634 -0.5294
14141TIP3   OH263837   3.927   3.612   3.566 -0.1691  0.0009  0.0321
14141TIP3    H163838   3.933   3.616   3.470  2.9161 -2.7217  0.0488
14141TIP3    H263839   3.959   3.697   3.595  3.0507 -0.7190 -1.2606
14142TIP3   OH263840   1.656   5.378   3.677 -0.9345 -0.4036 -1.2028
14142TIP3    H163841   1.748   5.403   3.668 -0.1762 -2.3022  0.8148
14142TIP3    H263842   1.608   5.447   3.631  1.2653  2.9541  1.2542
14143TIP3   OH263843   1.283   0.601  11.991 -0.1751 -0.3395 -0.1181
14143TIP3    H163844   1.359   0.658  11.974  0.6165 -1.3108  0.0722
14143TIP3    H263845   1.230   0.607  11.912  0.2982  0.0588 -0.4102
14144TIP3   OH263846   0.703   2.324  14.539  0.3331  0.1939 -0.3549
14144TIP3    H163847   0.796   2.313  14.516  0.4198 -1.7625  0.7510
14144TIP3    H263848   0.700   2.407  14.586  2.2353 -1.3838  2.7667
14145TIP3   OH263849   3.286   1.978  17.079  0.0619  0.0802 -0.1484
14145TIP3    H163850   3.356   1.941  17.025 -0.6604 -0.3800 -0.7875
14145TIP3    H263851   3.299   1.939  17.166 -0.3362 -1.2232 -0.6657
14146TIP3   OH263852   6.391   3.908  11.743  0.1689  0.5551 -0.3298
14146TIP3    H163853   6.306   3.951  11.732  0.2799  1.3036  1.5053
14146TIP3    H263854   6.376   3.839  11.807  0.2623 -1.4299 -2.3918
14147TIP3   OH263855   5.685   2.727   1.029  0.0662  0.5457 -0.2854
14147TIP3    H163856   5.673   2.747   0.936  0.6035  1.3520 -0.1834
14147TIP3    H263857   5.628   2.652   1.045 -0.1141  0.4782 -1.2409
14148TIP3   OH263858   0.937   3.158  14.208 -0.4357  0.2300  0.1736
14148TIP3    H163859   0.901   3.074  14.182 -1.5792 -0.2505  3.1664
14148TIP3    H263860   1.031   3.150  14.190 -0.9330 -0.6202 -2.2108
14149TIP3   OH263861   6.262   4.126   3.695 -0.4803 -0.0090  0.0862
14149TIP3    H163862   6.246   4.039   3.731 -1.9933  0.3706  0.3705
14149TIP3    H263863   6.355   4.126   3.671 -0.2779 -1.4121  0.8459
14150TIP3   OH263864   3.466   4.114   5.797  0.9690  0.2958  0.0462
14150TIP3    H163865   3.372   4.117   5.813  0.7366 -1.5340 -0.9169
14150TIP3    H263866   3.498   4.200   5.824 -0.9187  0.7898  0.7318
14151TIP3   OH263867   6.596   4.936   5.633  0.0662  0.0488  0.1511
14151TIP3    H163868   6.683   4.895   5.629 -0.3165 -1.0856  2.4498
14151TIP3    H263869   6.614   5.030   5.625  1.3996 -0.2452 -0.5103
14152TIP3   OH263870   0.796   1.447  14.823  0.2762  1.0612 -0.4552
14152TIP3    H163871   0.774   1.413  14.910  0.1310  2.4849  0.0757
14152TIP3    H263872   0.892   1.446  14.820  0.3061  1.9904  0.1209
14153TIP3   OH263873   2.272   4.889   3.532 -0.5642  0.5608 -0.6389
14153TIP3    H163874   2.347   4.939   3.501 -0.5136  1.3931  0.7581
14153TIP3    H263875   2.200   4.953   3.535 -0.5591  0.5179  0.9344
14154TIP3   OH263876   3.542   0.876   4.710 -0.1977  0.8127 -0.4956
14154TIP3    H163877   3.575   0.786   4.705 -0.1731  0.5391  2.9925
14154TIP3    H263878   3.447   0.866   4.712 -0.2048  0.8917 -0.4780
14155TIP3   OH263879   4.031   6.433  15.791  0.6010  0.5932 -0.4265
14155TIP3    H163880   4.115   6.414  15.835  0.3782 -0.5194 -0.4686
14155TIP3    H263881   3.965   6.394  15.848 -0.0411  2.7982  0.4044
14156TIP3   OH263882   0.289   0.853  16.220 -0.1462  0.3350  0.4808
14156TIP3    H163883   0.240   0.813  16.292  0.8873  0.4002  1.2272
14156TIP3    H263884   0.370   0.883  16.260 -0.3242  1.9702 -0.3536
14157TIP3   OH263885   6.026   0.061  12.530 -0.0691 -0.3978 -0.1818
14157TIP3    H163886   6.122   0.062  12.536 -0.1533  1.0743  1.3362
14157TIP3    H263887   6.007   0.093  12.441  0.8432 -0.9392 -0.5765
14158TIP3   OH263888   6.251   4.597  15.063 -0.2929 -0.2535 -0.3953
14158TIP3    H163889   6.335   4.621  15.025 -0.3119  0.7572  0.1914
14158TIP3    H263890   6.202   4.558  14.990  0.0971  0.6184 -1.1397
14159TIP3   OH263891   4.351   1.710   4.493  0.4919 -0.4456  0.0600
14159TIP3    H163892   4.408   1.644   4.452  0.8884 -0.1489  0.1353
14159TIP3    H263893   4.264   1.693   4.455  1.0995  0.6497 -1.9241
14160TIP3   OH263894   3.241   5.745   2.640 -0.2210  0.0777  1.0066
14160TIP3    H163895   3.233   5.727   2.546  0.3834 -0.4327  1.0467
14160TIP3    H263896   3.310   5.811   2.646 -1.0346  0.9483  1.0148
14161TIP3   OH263897   2.234   3.969   5.219 -0.1959 -0.0864 -0.3371
14161TIP3    H163898   2.311   3.988   5.167 -0.8651 -0.3527 -1.4441
14161TIP3    H263899   2.167   4.029   5.186 -0.3318  0.4883  0.9416
14162TIP3   OH263900   1.078   2.461   0.971 -0.6983 -0.2256 -0.1245
14162TIP3    H163901   1.145   2.524   0.997 -0.2330 -0.4725 -0.7323
14162TIP3    H263902   1.094   2.444   0.878 -0.7805 -1.2917  0.0446
14163TIP3   OH263903   4.546   6.255  11.742 -0.1616 -0.0161 -0.3637
14163TIP3    H163904   4.471   6.247  11.682  1.1354 -3.2363 -1.6872
14163TIP3    H263905   4.595   6.330  11.708 -1.2656  0.3314 -1.2378
14164TIP3   OH263906   5.678   0.380  13.981  0.8475 -0.7267  0.1113
14164TIP3    H163907   5.768   0.409  13.973  1.4050 -2.1333  0.9578
14164TIP3    H263908   5.677   0.329  14.063 -0.8479 -0.1885  0.4388
14165TIP3   OH263909   0.623   4.919   0.445  0.1600  0.5975  0.0239
14165TIP3    H163910   0.626   4.957   0.533 -0.0993 -2.1139  1.2732
14165TIP3    H263911   0.715   4.912   0.419  0.3325 -0.0440  0.7700
14166TIP3   OH263912   6.464   5.592  14.064  0.5244  0.4436 -0.2902
14166TIP3    H163913   6.415   5.644  14.128  1.3996 -0.7182  1.3821
14166TIP3    H263914   6.400   5.569  13.998  0.0991  3.5249 -1.0110
14167TIP3   OH263915   6.772   0.530  12.579  0.2072 -0.3681 -0.7719
14167TIP3    H163916   6.779   0.570  12.492 -1.2386 -0.7937 -1.0951
14167TIP3    H263917   6.803   0.441  12.568 -1.6001 -0.9521 -1.2492
14168TIP3   OH263918   4.641   2.594  16.368  0.7228  0.0517  0.0629
14168TIP3    H163919   4.655   2.542  16.447 -0.3714 -0.3248  0.0171
14168TIP3    H263920   4.665   2.683  16.394 -0.3561  0.0748  1.0668
14169TIP3   OH263921   3.038   3.728   0.043 -0.0242 -0.0321  0.0869
14169TIP3    H163922   3.065   3.636   0.047 -1.2019 -0.3587  0.8817
14169TIP3    H263923   2.963   3.728  -0.016  0.5690  0.5723 -0.6680
14170TIP3   OH263924   2.387   1.843   1.326 -0.3838 -0.1506  0.1165
14170TIP3    H163925   2.305   1.830   1.279 -0.5822 -0.9204  0.6526
14170TIP3    H263926   2.377   1.791   1.406  0.7834 -0.5967 -0.0129
14171TIP3   OH263927   4.854   0.756   2.439  0.0999  0.4060 -0.0204
14171TIP3    H163928   4.772   0.717   2.471 -1.2610  1.3544 -2.2077
14171TIP3    H263929   4.875   0.823   2.504 -1.5914  1.0494 -0.1047
14172TIP3   OH263930   1.063   1.811  13.917 -0.2862  0.6468 -0.8210
14172TIP3    H163931   1.107   1.735  13.956 -0.1477  0.6426 -0.9831
14172TIP3    H263932   1.048   1.870  13.991 -0.5994  0.3637 -0.6570
14173TIP3   OH263933   4.886   3.751  16.870 -0.0923  0.1897  0.4202
14173TIP3    H163934   4.924   3.769  16.956 -0.3822 -0.5814  0.7186
14173TIP3    H263935   4.791   3.755  16.885 -0.1585 -0.9851  0.3785
14174TIP3   OH263936   5.721   0.542  16.880 -0.2681 -0.2083 -0.1914
14174TIP3    H163937   5.643   0.593  16.897  2.3462  3.6435  0.8373
14174TIP3    H263938   5.745   0.564  16.790  0.1669 -0.6234 -0.1802
14175TIP3   OH263939   6.654   6.211   0.951 -0.2064 -0.0398  0.3253
14175TIP3    H163940   6.630   6.297   0.985 -1.5897 -0.0013 -0.7392
14175TIP3    H263941   6.656   6.221   0.856  0.6897 -0.9146  0.2349
14176TIP3   OH263942   4.075   3.097  13.754  0.4809  0.3166  0.5047
14176TIP3    H163943   4.044   3.042  13.681 -1.3999  0.3735  1.2313
14176TIP3    H263944   4.136   3.159  13.713 -1.4809  1.1443 -1.2679
14177TIP3   OH263945   4.388   5.522  14.197 -0.3950  0.2105 -0.5680
14177TIP3    H163946   4.422   5.593  14.143 -0.7507 -0.8742 -2.2602
14177TIP3    H263947   4.324   5.477  14.141 -1.0850 -0.6852  0.9018
14178TIP3   OH263948   4.851   3.756   5.137 -0.1027 -0.4319 -0.8740
14178TIP3    H163949   4.816   3.780   5.051  1.0366  0.6488 -1.0572
14178TIP3    H263950   4.943   3.737   5.120  0.0316 -0.5918  0.0420
14179TIP3   OH263951   0.997   3.594  15.402  0.6154  0.2882  0.5034
14179TIP3    H163952   1.052   3.657  15.449 -0.5109  0.3053  1.7950
14179TIP3    H263953   1.048   3.512  15.403  1.3142  0.7133  0.2994
14180TIP3   OH263954   0.829   5.398   2.799  0.2808 -0.0422  0.2731
14180TIP3    H163955   0.893   5.366   2.863 -0.2330 -0.1103  0.7543
14180TIP3    H263956   0.811   5.487   2.826  2.9158  1.2552 -1.9963
14181TIP3   OH263957   5.195   6.690  12.603  0.1543 -1.0420  0.1611
14181TIP3    H163958   5.216   6.610  12.651  0.7082 -1.8305 -1.3668
14181TIP3    H263959   5.106   6.676  12.572 -0.6299 -0.0514  1.8915
14182TIP3   OH263960   6.092   1.552  11.289 -0.2222  0.7185  0.1927
14182TIP3    H163961   6.015   1.558  11.345  0.3533  0.6400  1.0130
14182TIP3    H263962   6.076   1.476  11.234 -0.2188 -0.0083  1.1769
14183TIP3   OH263963   5.070   4.025  12.023  0.0008  0.0740 -0.2203
14183TIP3    H163964   5.093   3.932  12.019 -0.7841 -0.0987 -0.9555
14183TIP3    H263965   5.114   4.058  12.101  0.7038 -0.7992 -0.2425
14184TIP3   OH263966   0.582   0.070  15.894 -0.7396 -0.0658 -0.5152
14184TIP3    H163967   0.574   0.075  15.989 -1.1278 -0.5194 -0.5242
14184TIP3    H263968   0.671   0.037  15.879 -1.1700 -1.3381 -0.2768
14185TIP3   OH263969   5.652   6.269   4.303 -0.3634  0.2247 -0.4430
14185TIP3    H163970   5.621   6.348   4.347  0.2930 -0.2657  0.9112
14185TIP3    H263971   5.744   6.286   4.283 -0.5304  0.2583 -1.1962
14186TIP3   OH263972   6.774   6.058  16.169  0.3472 -0.3196 -0.3953
14186TIP3    H163973   6.854   6.032  16.123  0.4845  0.8198 -0.8185
14186TIP3    H263974   6.752   6.143  16.131 -0.1630  0.1123  0.8632
14187TIP3   OH263975   0.306   2.641   2.078 -0.3451  0.3429  0.4569
14187TIP3    H163976   0.243   2.666   2.145 -0.2257  1.3634  0.1950
14187TIP3    H263977   0.263   2.570   2.030 -1.1764  0.8564  0.4472
14188TIP3   OH263978   5.019   5.306  10.580  0.1661 -0.0641 -0.6897
14188TIP3    H163979   4.981   5.342  10.660  2.1549  0.1637  0.1884
14188TIP3    H263980   5.090   5.366  10.558  1.9180 -2.0319 -0.6163
14189TIP3   OH263981   6.784   2.542   1.080 -0.4259 -0.0729  0.2553
14189TIP3    H163982   6.809   2.599   1.152 -1.2722  1.1707 -0.4219
14189TIP3    H263983   6.690   2.555   1.070 -0.0988  0.7871 -1.9311
14190TIP3   OH263984   5.471   0.392   0.227 -0.7868  0.4861  0.3950
14190TIP3    H163985   5.391   0.339   0.237  0.1739 -1.0147  0.3324
14190TIP3    H263986   5.504   0.403   0.316  0.4064 -1.2564  0.1984
14191TIP3   OH263987   2.738   1.577   6.125  0.0478 -0.5476 -0.1268
14191TIP3    H163988   2.793   1.515   6.076  1.8167 -1.8018  3.2552
14191TIP3    H263989   2.715   1.529   6.205 -1.1298  2.0872  1.1457
14192TIP3   OH263990   0.312   1.930   3.261  0.3525 -0.0666 -0.4102
14192TIP3    H163991   0.358   1.849   3.283  0.0613  0.1003  0.8487
14192TIP3    H263992   0.243   1.937   3.327 -0.6422  0.3821 -1.4700
14193TIP3   OH263993   0.395   3.271  12.972  0.6956  0.0957  0.1349
14193TIP3    H163994   0.448   3.351  12.974 -1.9519  1.9270  0.0274
14193TIP3    H263995   0.323   3.292  12.911 -1.0647 -1.6861  1.5282
14194TIP3   OH263996   4.302   4.907  15.367 -0.2313  0.1995  0.0182
14194TIP3    H163997   4.384   4.902  15.318 -1.1207 -0.4343 -1.4379
14194TIP3    H263998   4.327   4.941  15.453  1.8034 -1.5774  0.1675
14195TIP3   OH263999   5.568   4.879   2.802  0.0025 -0.1445 -0.7293
14195TIP3    H164000   5.635   4.935   2.761 -0.5095  0.1023 -1.2428
14195TIP3    H264001   5.502   4.940   2.834 -1.6986 -0.5149 -3.3130
14196TIP3   OH264002   1.631   6.289  12.862  0.1250 -0.2944  0.0010
14196TIP3    H164003   1.627   6.221  12.930 -1.8486 -1.1488 -0.9125
14196TIP3    H264004   1.588   6.249  12.787 -0.0679  1.5957 -0.9139
14197TIP3   OH264005   3.773   0.196  13.747  0.2106  0.2788 -0.4004
14197TIP3    H164006   3.844   0.141  13.715  0.8004  1.0919 -0.5134
14197TIP3    H264007   3.694   0.147  13.727  0.7388 -0.6477 -0.2546
14198TIP3   OH264008   2.974   2.414   2.085  0.7409 -0.7367  0.1603
14198TIP3    H164009   3.046   2.365   2.124 -0.9672 -3.4303  0.0700
14198TIP3    H264010   2.977   2.391   1.992 -0.8476 -1.7249  0.3306
14199TIP3   OH264011   3.619   1.711  15.247  0.1510  0.4279 -0.2044
14199TIP3    H164012   3.577   1.797  15.237  0.1203  0.4244 -0.1112
14199TIP3    H264013   3.696   1.715  15.191 -0.5091  0.0868 -1.1477
14200TIP3   OH264014   0.032   0.953  12.785  0.3295  0.2167 -0.3167
14200TIP3    H164015   0.048   0.962  12.879  0.1867 -1.4726 -0.1322
14200TIP3    H264016   0.080   0.874  12.759 -0.6615 -0.0336 -1.4195
14201TIP3   OH264017   3.776   5.394   1.292 -0.3570  0.0866 -0.5061
14201TIP3    H164018   3.699   5.352   1.254 -1.2789  1.9701 -0.7680
14201TIP3    H264019   3.781   5.357   1.380 -0.6268 -1.2194 -1.0211
14202TIP3   OH264020   5.925   1.241  12.366  0.4626 -0.8744  0.0060
14202TIP3    H164021   5.986   1.168  12.356  0.3272 -0.8679 -0.8471
14202TIP3    H264022   5.955   1.307  12.305  1.1016  0.1555  1.4041
14203TIP3   OH264023   0.967   5.982   3.707 -0.2772  0.0324  0.7878
14203TIP3    H164024   0.988   5.968   3.615  0.7028 -1.6395  1.2404
14203TIP3    H264025   1.051   6.005   3.748 -0.4526 -0.5651  1.5022
14204TIP3   OH264026   3.680   2.145  11.224  0.1303  0.6406  0.2881
14204TIP3    H164027   3.693   2.076  11.159  0.5030 -0.6882  1.7462
14204TIP3    H264028   3.588   2.170  11.215  0.5222  1.4441 -1.6763
14205TIP3   OH264029   5.418   2.963  15.295  0.4275 -0.3944  0.0283
14205TIP3    H164030   5.510   2.957  15.268  0.2096  1.3259 -1.2062
14205TIP3    H264031   5.369   2.934  15.218 -0.0622 -3.3254  1.3695
14206TIP3   OH264032   3.572   6.503  14.612  0.2389  0.4192 -0.0898
14206TIP3    H164033   3.594   6.509  14.519  0.6124  0.0600 -0.0289
14206TIP3    H264034   3.655   6.521  14.657  0.2337 -0.1731  0.1608
14207TIP3   OH264035   5.608   2.349   2.683  0.1727 -0.0506 -0.2862
14207TIP3    H164036   5.623   2.295   2.760 -1.5788  0.7552  0.6363
14207TIP3    H264037   5.635   2.437   2.709  2.2053 -0.2698 -1.5092
14208TIP3   OH264038   6.089   1.998  13.663 -0.0375 -0.1704  0.3751
14208TIP3    H164039   6.159   1.934  13.652 -1.1901 -1.3690 -0.0750
14208TIP3    H264040   6.012   1.946  13.684 -0.7852  1.1458  0.9543
14209TIP3   OH264041   0.771   3.030  15.732  0.3648 -0.5079  0.1095
14209TIP3    H164042   0.702   2.964  15.737  0.0874 -0.1323  1.5763
14209TIP3    H264043   0.725   3.113  15.733  0.8611 -0.2363  1.9684
14210TIP3   OH264044   5.015   1.993  12.857 -0.1597  0.2427 -0.3468
14210TIP3    H164045   5.026   2.013  12.950 -0.9018 -1.0984  0.0407
14210TIP3    H264046   5.076   1.922  12.840 -1.0198 -0.4492 -0.5567
14211TIP3   OH264047   2.771   4.881  13.057 -0.2595 -0.2545 -0.4890
14211TIP3    H164048   2.762   4.923  13.143  1.4542 -0.6087 -0.1114
14211TIP3    H264049   2.865   4.889  13.037 -0.5288 -0.8267 -1.9876
14212TIP3   OH264050   3.889   2.271   2.919 -0.0664  0.0984 -0.0537
14212TIP3    H164051   3.848   2.229   2.994 -0.1573  0.6188  0.1924
14212TIP3    H264052   3.982   2.275   2.941 -0.3068  1.7347  0.7675
14213TIP3   OH264053   6.649   2.216  15.552 -0.4342  0.4959 -0.8098
14213TIP3    H164054   6.682   2.264  15.627 -1.4462 -0.3617  0.2067
14213TIP3    H264055   6.720   2.157  15.528 -0.0218  0.9355 -0.6765
14214TIP3   OH264056   6.298   1.286  11.352 -0.4170  0.1964  0.2211
14214TIP3    H164057   6.351   1.260  11.277  0.6231  0.1921  0.9435
14214TIP3    H264058   6.248   1.207  11.374 -0.1904 -0.0186 -0.0212
14215TIP3   OH264059   6.365   3.015  11.259  0.3219  0.3774  0.0089
14215TIP3    H164060   6.391   3.011  11.351 -1.7378 -0.4921  0.5970
14215TIP3    H264061   6.325   2.929  11.242  1.4844  0.2119 -1.9502
14216TIP3   OH264062   5.877   3.513   5.498 -0.0346  0.1731 -0.3947
14216TIP3    H164063   5.816   3.524   5.425 -1.5984 -0.4246  0.7896
14216TIP3    H264064   5.847   3.434   5.543  2.6137 -1.0880 -0.7045
14217TIP3   OH264065   4.113   6.114   4.595 -0.1797 -0.8081  0.2139
14217TIP3    H164066   4.209   6.113   4.592 -0.1588 -2.1767  0.6949
14217TIP3    H264067   4.091   6.056   4.668 -1.3285  2.5287  2.6395
14218TIP3   OH264068   0.971   6.784   1.595  0.3837  0.2659 -0.2516
14218TIP3    H164069   0.919   6.711   1.562  0.3397  1.1675 -2.2147
14218TIP3    H264070   1.027   6.745   1.662 -1.0732 -1.1794  0.1628
14219TIP3   OH264071   1.035   3.832   2.758  0.2465  0.2730 -0.1740
14219TIP3    H164072   1.024   3.823   2.664 -0.6112  0.7027 -0.1251
14219TIP3    H264073   0.947   3.853   2.791  0.5078 -0.0019  0.7348
14220TIP3   OH264074   3.917   0.429   3.967  0.0624 -0.1597 -0.1006
14220TIP3    H164075   3.865   0.359   3.926  2.7078 -0.0915 -3.8193
14220TIP3    H264076   3.905   0.504   3.909  1.1322  1.0391  1.1936
14221TIP3   OH264077   0.046   2.897   6.021  0.4690 -0.2492  0.3868
14221TIP3    H164078   0.092   2.816   6.044 -0.9953 -0.2728  3.4673
14221TIP3    H264079   0.115   2.963   6.016  1.4523 -1.3043 -0.2918
14222TIP3   OH264080   5.454   5.676   3.644  0.3996  0.2542  0.2098
14222TIP3    H164081   5.373   5.701   3.687 -0.2058 -0.6833 -0.3570
14222TIP3    H264082   5.444   5.706   3.553  0.8768  0.5411  0.2484
14223TIP3   OH264083   6.071   4.095  16.046 -0.3692 -0.1632  0.4411
14223TIP3    H164084   6.025   4.066  15.968  0.7176 -0.1167 -0.2204
14223TIP3    H264085   6.027   4.051  16.118 -0.7610 -0.9517 -0.2812
14224TIP3   OH264086   6.017   2.108  13.977 -0.2641  0.4489  0.3186
14224TIP3    H164087   6.107   2.125  13.948  0.0529  0.3064  1.2204
14224TIP3    H264088   6.002   2.171  14.048 -0.4898 -0.2876  0.9275
14225TIP3   OH264089   5.329   1.361  15.159  0.3795  0.9047  0.0451
14225TIP3    H164090   5.320   1.443  15.208 -3.4324  0.5868  0.0209
14225TIP3    H264091   5.264   1.303  15.198  0.7003 -0.9912 -2.1862
14226TIP3   OH264092   1.468   1.235   4.466  0.5304  0.2386 -0.3200
14226TIP3    H164093   1.486   1.316   4.514 -1.2960  0.2906  0.3245
14226TIP3    H264094   1.450   1.264   4.377  1.5391  0.3677 -0.4908
14227TIP3   OH264095   4.167   4.413   2.310  0.5610  0.8586 -0.6026
14227TIP3    H164096   4.150   4.366   2.228  0.8248 -2.2702  1.0291
14227TIP3    H264097   4.081   4.448   2.335  0.1355  0.3916 -1.3756
14228TIP3   OH264098   1.573   0.424  12.908  0.4376 -0.1109 -0.7252
14228TIP3    H164099   1.657   0.392  12.875  1.4241 -0.3802  1.8985
14228TIP3    H264100   1.593   0.511  12.941 -0.2160 -0.3658  0.3419
14229TIP3   OH264101   0.736   4.745   1.208 -0.1749  0.4244  0.4226
14229TIP3    H164102   0.664   4.696   1.168  0.5664 -0.4984  0.1975
14229TIP3    H264103   0.740   4.714   1.298  0.8353 -0.5751  0.0517
14230TIP3   OH264104   4.231   4.577  15.530  0.7739  0.1782 -0.1925
14230TIP3    H164105   4.282   4.650  15.566  1.4666 -0.4949  0.2045
14230TIP3    H264106   4.143   4.590  15.566  1.1114  0.3243  0.5905
14231TIP3   OH264107   2.314   4.718   1.774  0.0495  0.1251 -0.6887
14231TIP3    H164108   2.269   4.645   1.731  0.3230  0.8478 -2.2090
14231TIP3    H264109   2.400   4.720   1.733  0.5559  0.4069  0.3759
14232TIP3   OH264110   4.517   2.722  12.013 -0.1342 -0.2410 -0.0227
14232TIP3    H164111   4.570   2.707  11.935 -0.8105  1.0054 -0.7410
14232TIP3    H264112   4.442   2.773  11.981 -2.5038 -3.1389  0.6857
14233TIP3   OH264113   0.471   0.020   6.530 -0.0798 -0.0009  0.2829
14233TIP3    H164114   0.380   0.049   6.537  0.4022  1.1798  1.9599
14233TIP3    H264115   0.522   0.101   6.529  0.9860 -0.6679 -0.2099
14234TIP3   OH264116   4.675   1.216  14.756 -0.0090 -0.3382  0.3120
14234TIP3    H164117   4.683   1.136  14.807 -0.3514 -0.6818 -0.1634
14234TIP3    H264118   4.758   1.224  14.710 -1.0224 -2.0301 -1.9385
14235TIP3   OH264119   2.629   4.683  12.439  0.2775  0.3241  0.1100
14235TIP3    H164120   2.692   4.632  12.489  1.0848  0.8635 -0.3404
14235TIP3    H264121   2.639   4.773  12.471 -0.0761  0.4554 -0.1410
14236TIP3   OH264122   1.388   4.055   0.771  0.0473 -0.4630 -0.4806
14236TIP3    H164123   1.393   4.051   0.866 -1.1129 -0.2806 -0.4129
14236TIP3    H264124   1.310   4.004   0.748 -0.0261 -0.0019 -1.2900
14237TIP3   OH264125   5.412   0.308  13.920  0.4550 -0.0534  0.1654
14237TIP3    H164126   5.488   0.334  13.971  0.1209 -0.4010  0.8420
14237TIP3    H264127   5.406   0.213  13.933  0.4313 -0.1661 -0.6036
14238TIP3   OH264128   2.413   2.309  11.997  0.3925 -0.6951 -0.8246
14238TIP3    H164129   2.438   2.369  11.927  0.6713 -2.5120 -2.3116
14238TIP3    H264130   2.452   2.348  12.076 -0.0126  1.4288 -1.6237
14239TIP3   OH264131   1.137   3.031   6.501 -0.0211 -0.0361  0.5058
14239TIP3    H164132   1.133   3.026   6.405  1.4335  0.0152  0.4239
14239TIP3    H264133   1.171   2.946   6.528  3.7858  1.3817  0.6284
14240TIP3   OH264134   1.799   0.961   4.654 -0.3532 -0.1785 -0.6132
14240TIP3    H164135   1.776   1.035   4.710  0.5815 -1.1309  1.0547
14240TIP3    H264136   1.715   0.925   4.627 -0.8231 -0.2273  0.8721
14241TIP3   OH264137   2.314   0.824   2.695  0.5777  0.2261  0.1094
14241TIP3    H164138   2.276   0.882   2.761  2.1443  1.9182 -0.4466
14241TIP3    H264139   2.369   0.764   2.746  1.8617  1.5882  0.3791
14242TIP3   OH264140   3.433   0.912  15.801  0.4938 -0.1275 -0.2196
14242TIP3    H164141   3.394   0.942  15.719 -0.0847 -0.0937  0.0703
14242TIP3    H264142   3.455   0.820  15.785 -1.0959 -0.5800  0.1308
14243TIP3   OH264143   0.024   4.646  12.190 -0.0874  0.7231 -0.2783
14243TIP3    H164144   0.007   4.711  12.122 -1.8779  0.7221  0.1360
14243TIP3    H264145  -0.043   4.662  12.256  0.0698 -0.8845  0.3060
14244TIP3   OH264146   4.925   1.271  10.779  0.2704 -0.6291 -0.0707
14244TIP3    H164147   4.939   1.338  10.712  0.5048 -2.2440 -1.6787
14244TIP3    H264148   4.883   1.199  10.732 -2.3075 -0.6275  2.1560
14245TIP3   OH264149   5.127   4.356  11.543 -0.1204  0.0273 -0.2022
14245TIP3    H164150   5.113   4.442  11.581  1.4933 -0.7404  2.2415
14245TIP3    H264151   5.201   4.367  11.484  0.2254  0.2841  0.2772
14246TIP3   OH264152   0.100   1.058   5.620  0.7314 -0.0976 -0.2270
14246TIP3    H164153   0.121   0.992   5.686 -0.4684  0.4028  0.6644
14246TIP3    H264154   0.129   1.141   5.658  0.5475  0.1223 -0.5622
14247TIP3   OH264155   2.883   4.640   4.665  0.1140  0.3800  0.1377
14247TIP3    H164156   2.887   4.553   4.704 -1.7420  0.8171  1.3389
14247TIP3    H264157   2.841   4.694   4.731 -0.2587  1.8306 -1.2593
14248TIP3   OH264158   2.606   5.688  11.323  0.8519 -0.0285 -0.9720
14248TIP3    H164159   2.653   5.744  11.385  0.2948  0.4974 -1.0206
14248TIP3    H264160   2.583   5.746  11.251  1.7123 -0.6981 -1.7969
14249TIP3   OH264161   0.470   1.078   2.438  0.1656  0.0151  0.4469
14249TIP3    H164162   0.510   1.077   2.351  0.7184 -1.5098  0.7081
14249TIP3    H264163   0.378   1.057   2.423 -0.2131  1.8816  0.0209
14250TIP3   OH264164   0.633   0.207   1.870  0.0067  0.4084 -0.3274
14250TIP3    H164165   0.722   0.201   1.905 -0.2540  0.7919  0.4057
14250TIP3    H264166   0.631   0.292   1.826 -0.3994  0.9732  0.7829
14251TIP3   OH264167   2.323   5.346  17.112 -0.1976 -0.1868 -0.2141
14251TIP3    H164168   2.258   5.407  17.077 -1.6164 -0.1853  2.3149
14251TIP3    H264169   2.388   5.338  17.042 -2.1493  0.9498 -2.2354
14252TIP3   OH264170   6.085   2.213   2.227 -0.0593  0.2534  1.2762
14252TIP3    H164171   6.074   2.304   2.200 -0.4749 -0.0020  0.5554
14252TIP3    H264172   6.122   2.170   2.150  0.1767 -0.1740  1.6305
14253TIP3   OH264173   1.695   4.913   3.642  0.5893  0.4102  0.4309
14253TIP3    H164174   1.600   4.906   3.629  1.2120 -1.2008 -4.2349
14253TIP3    H264175   1.721   4.989   3.591  2.5431 -3.0550 -4.1272
14254TIP3   OH264176   2.268   0.338   6.298 -0.2294  0.3553  0.0306
14254TIP3    H164177   2.244   0.302   6.383 -1.3752 -0.3383 -0.5845
14254TIP3    H264178   2.224   0.423   6.295  3.6103  2.5767  2.0797
14255TIP3   OH264179   2.959   4.594  12.346 -0.4038 -0.1369 -0.4174
14255TIP3    H164180   2.891   4.571  12.409 -1.1734 -0.9357 -1.5238
14255TIP3    H264181   3.041   4.578  12.392 -0.9306  1.6333  1.2251
14256TIP3   OH264182   2.204   3.491   0.562  0.2214  0.0727 -0.5640
14256TIP3    H164183   2.172   3.404   0.586  1.4974  0.1850  1.7412
14256TIP3    H264184   2.284   3.473   0.512  0.9854 -0.0806  0.6971
14257TIP3   OH264185   5.565   2.709  16.615 -0.8214  0.1953  0.0596
14257TIP3    H164186   5.513   2.723  16.694 -1.3895 -0.5815 -0.1706
14257TIP3    H264187   5.500   2.694  16.546 -0.3343  1.0055 -0.5897
14258TIP3   OH264188   5.456   0.274   2.082  0.6534 -0.6132  0.3670
14258TIP3    H164189   5.385   0.219   2.114 -0.6589 -0.0414 -1.5187
14258TIP3    H264190   5.526   0.212   2.061 -1.0124 -1.6685 -2.2772
14259TIP3   OH264191   3.903   5.443   5.066 -0.2672  0.4495  0.2881
14259TIP3    H164192   3.978   5.487   5.025 -0.6922 -0.5752 -1.6292
14259TIP3    H264193   3.939   5.359   5.096 -0.3935  0.4425  0.4202
14260TIP3   OH264194   3.324   3.574   4.955 -0.6400  0.4109 -0.7197
14260TIP3    H164195   3.360   3.537   4.874 -0.8617 -2.6224  0.5070
14260TIP3    H264196   3.234   3.596   4.934 -0.9172 -1.0519 -1.1124
14261TIP3   OH264197   1.394   0.255   0.712  0.1575 -0.0807  0.4260
14261TIP3    H164198   1.420   0.346   0.698 -1.5511  0.2868 -0.5153
14261TIP3    H264199   1.475   0.211   0.737  1.2502  1.4469 -0.3083
14262TIP3   OH264200   2.083   0.445  13.622 -0.1826  0.2006 -0.5481
14262TIP3    H164201   2.121   0.358  13.637  0.4049  0.4773 -0.4266
14262TIP3    H264202   2.101   0.493  13.703  1.1538  1.0302 -1.3132
14263TIP3   OH264203   5.228   2.849  10.111 -0.1918  0.2344  0.6138
14263TIP3    H164204   5.311   2.803  10.103 -0.0531  0.8808 -2.2584
14263TIP3    H264205   5.165   2.781  10.134  0.4705 -0.9457 -0.9731
14264TIP3   OH264206   4.817   4.397   5.103  0.8760 -0.2275  0.1394
14264TIP3    H164207   4.768   4.391   5.185  1.5183 -0.4283  0.5168
14264TIP3    H264208   4.799   4.486   5.071 -1.3643 -0.9794 -0.7831
14265TIP3   OH264209   6.137   1.045   4.833 -0.0223  0.5417 -0.0827
14265TIP3    H164210   6.071   1.067   4.898  0.7321  0.9783  0.5353
14265TIP3    H264211   6.092   1.054   4.749 -1.5247 -1.7687  0.4130
14266TIP3   OH264212   4.740   0.502  10.971 -0.0193 -0.0227 -0.3534
14266TIP3    H164213   4.813   0.519  10.911  0.2092 -0.6211 -0.2456
14266TIP3    H264214   4.781   0.479  11.054 -0.3393  0.8367  0.0523
14267TIP3   OH264215   2.937   5.143  12.667  0.2782 -0.2148 -0.3250
14267TIP3    H164216   2.966   5.188  12.588  1.5791  0.7681  0.7022
14267TIP3    H264217   2.857   5.189  12.692  0.5382  0.2719 -0.3801
14268TIP3   OH264218   3.119   5.747   6.648 -0.2870  0.4039  0.1781
14268TIP3    H164219   3.068   5.694   6.587 -0.1740  0.4587  0.0350
14268TIP3    H264220   3.138   5.689   6.721  0.1123  0.1495 -0.1253
14269TIP3   OH264221   5.985   3.135  16.071  0.0957  0.3793  0.2857
14269TIP3    H164222   6.021   3.208  16.122 -1.6160  0.4048  1.5170
14269TIP3    H264223   5.892   3.133  16.095  0.3784 -3.1176  1.4401
14270TIP3   OH264224   0.649   1.355   4.545  0.4652  0.1987 -0.6719
14270TIP3    H164225   0.557   1.345   4.567  0.6597 -0.9218 -0.3394
14270TIP3    H264226   0.694   1.358   4.629  0.8426 -0.4249 -0.8490
14271TIP3   OH264227   5.497   4.574  14.172 -0.4718 -0.5419  0.6627
14271TIP3    H164228   5.474   4.591  14.264  1.7626 -0.5025  1.2372
14271TIP3    H264229   5.561   4.641  14.151  1.0800 -2.2386 -0.0790
14272TIP3   OH264230   2.319   1.778   5.861 -0.0790  0.4917  0.3217
14272TIP3    H164231   2.236   1.736   5.836 -0.6933  1.6902  0.3311
14272TIP3    H264232   2.386   1.718   5.828 -0.9544 -1.0125  1.2244
14273TIP3   OH264233   0.310   4.239   2.640 -0.2636 -0.2097  0.0851
14273TIP3    H164234   0.342   4.151   2.618  0.0591  0.2925 -1.5298
14273TIP3    H264235   0.216   4.234   2.627 -0.2498 -0.3237  0.0226
14274TIP3   OH264236   1.455   0.216  12.015  0.1816  0.4648  0.2378
14274TIP3    H164237   1.375   0.266  11.997 -0.2349 -0.6024 -0.9052
14274TIP3    H264238   1.472   0.232  12.108 -2.4807 -0.9128  1.0130
14275TIP3   OH264239   2.236   1.309  14.877 -0.0851 -0.3776  0.1888
14275TIP3    H164240   2.180   1.232  14.870 -1.4647  0.6641 -0.5839
14275TIP3    H264241   2.268   1.323  14.788  0.5615 -0.3454  0.4219
14276TIP3   OH264242   3.224   3.116   2.604  0.0182  0.3850  1.0102
14276TIP3    H164243   3.286   3.053   2.566  1.0648  2.2829 -0.5305
14276TIP3    H264244   3.171   3.064   2.664 -0.9574 -2.5200 -2.2020
14277TIP3   OH264245   0.423   3.303  12.293 -0.7740  0.1147 -0.1876
14277TIP3    H164246   0.369   3.225  12.308 -0.1187  0.0832  2.3118
14277TIP3    H264247   0.507   3.268  12.264  0.0758 -0.2821  2.5626
14278TIP3   OH264248   6.783   0.095  12.952  0.3658 -0.4739 -0.8817
14278TIP3    H164249   6.726   0.165  12.984  1.0500  0.8612 -2.4571
14278TIP3    H264250   6.872   0.124  12.974  0.7447 -0.2035 -2.6377
14279TIP3   OH264251   3.174   3.256  17.024  0.3194 -0.3813 -0.0262
14279TIP3    H164252   3.125   3.216  17.096 -0.8460 -0.8420 -1.0483
14279TIP3    H264253   3.258   3.211  17.022  0.5210 -0.0669  1.3146
14280TIP3   OH264254   1.229   6.076   1.578  0.5010  0.3971  0.1203
14280TIP3    H164255   1.249   6.136   1.507  0.0908 -0.1734 -0.4864
14280TIP3    H264256   1.168   6.013   1.540  0.1449  0.1828  1.0226
14281TIP3   OH264257   3.202   6.398  14.160  0.6685  0.0725 -0.3699
14281TIP3    H164258   3.107   6.403  14.165  0.5789 -0.3410 -1.6602
14281TIP3    H264259   3.220   6.318  14.111  1.6782  0.3054 -0.3941
14282TIP3   OH264260   0.193   1.308   1.708  0.2951  0.1329  0.3624
14282TIP3    H164261   0.123   1.372   1.700  0.2058  0.5512  3.5957
14282TIP3    H264262   0.157   1.227   1.673 -1.0033  0.9102 -0.0986
14283TIP3   OH264263   4.551   1.542  11.675  0.3706 -0.0451 -0.1676
14283TIP3    H164264   4.459   1.571  11.673 -0.2015 -1.7412  0.8081
14283TIP3    H264265   4.547   1.448  11.658  1.6270 -0.7792  3.1676
14284TIP3   OH264266   6.086   3.365   3.226 -0.6945 -0.8580  0.2735
14284TIP3    H164267   6.124   3.421   3.157  0.1518 -0.8628  0.7180
14284TIP3    H264268   6.123   3.279   3.209  0.0252 -0.7183  1.1089
14285TIP3   OH264269   5.645   4.259  10.639 -0.3321 -0.1158  0.2460
14285TIP3    H164270   5.638   4.354  10.641  2.1574  0.1273 -0.0391
14285TIP3    H264271   5.738   4.243  10.619 -1.1868 -2.6027 -1.8909
14286TIP3   OH264272   5.899   2.389  17.157  0.4393  0.0362 -0.2492
14286TIP3    H164273   5.861   2.425  17.077  0.1722  0.5766  0.1231
14286TIP3    H264274   5.866   2.299  17.160 -0.8514  0.5130  0.0949
14287TIP3   OH264275   2.705   3.210  14.591 -0.0130  0.0488  0.3406
14287TIP3    H164276   2.709   3.114  14.588  0.2542  0.1136 -1.8989
14287TIP3    H264277   2.795   3.237  14.607  0.5935  0.0185 -2.8011
14288TIP3   OH264278   1.761   1.976   1.806 -0.0852 -0.0905 -0.2484
14288TIP3    H164279   1.680   2.011   1.769 -0.8451 -0.3867  1.1378
14288TIP3    H264280   1.779   2.031   1.882  0.3273 -0.8379  0.1951
14289TIP3   OH264281   1.208   2.916   3.956 -0.2424 -0.6178  0.1262
14289TIP3    H164282   1.282   2.912   3.895  0.2803 -4.0701  0.8930
14289TIP3    H264283   1.153   2.986   3.922  3.6665  2.5898 -0.0930
14290TIP3   OH264284   3.382   4.015   2.860 -0.0948  0.1124  0.1247
14290TIP3    H164285   3.441   4.020   2.936 -0.1342 -0.7704  0.2203
14290TIP3    H264286   3.416   4.080   2.799  0.8974 -0.2738  0.2516
14291TIP3   OH264287   4.900   1.941  11.980  0.4115 -0.0998  0.0973
14291TIP3    H164288   4.873   1.938  11.889  1.3600 -0.4851 -0.1763
14291TIP3    H264289   4.857   2.020  12.015 -1.7661 -1.1728 -0.0701
14292TIP3   OH264290   5.910   5.643  14.294  0.0984 -0.0369  0.0846
14292TIP3    H164291   5.930   5.729  14.332  0.1039 -0.4790  1.1088
14292TIP3    H264292   5.864   5.596  14.364 -1.4806 -0.2530 -1.0667
14293TIP3   OH264293   1.399   3.138  10.809 -0.0521 -0.1107  0.1555
14293TIP3    H164294   1.347   3.157  10.731 -0.1146  1.1248  0.4781
14293TIP3    H264295   1.389   3.044  10.824  0.6526 -0.5151 -1.8172
14294TIP3   OH264296   1.892   5.681   2.881  0.0174  0.3229 -0.7154
14294TIP3    H164297   1.849   5.758   2.843 -1.3300  0.0663  0.2064
14294TIP3    H264298   1.929   5.713   2.963  0.2589  0.2010 -0.7781
14295TIP3   OH264299   1.052   0.613   0.755  0.1520 -0.6760  0.9973
14295TIP3    H164300   0.990   0.558   0.804 -1.5148  0.0078 -0.2590
14295TIP3    H264301   1.062   0.692   0.808 -0.1450 -0.7440  1.1561
14296TIP3   OH264302   2.611   2.060   2.111  0.5266  0.0979 -0.0293
14296TIP3    H164303   2.602   2.133   2.172 -1.3316  0.1374 -0.3036
14296TIP3    H264304   2.653   2.097   2.034 -0.3446  0.8692 -0.1356
14297TIP3   OH264305   2.657   1.074   2.567 -0.2739  0.0721  0.1366
14297TIP3    H164306   2.685   1.105   2.481 -0.3488 -0.5984 -0.1318
14297TIP3    H264307   2.723   1.109   2.627  1.1124 -1.4086 -0.4796
14298TIP3   OH264308   3.214   1.148   3.246 -0.7938  0.1877 -0.0318
14298TIP3    H164309   3.289   1.127   3.302 -0.4665 -0.9720 -0.8838
14298TIP3    H264310   3.152   1.190   3.304  1.2852  2.9372  0.3106
14299TIP3   OH264311   5.074   4.898   5.024  0.1875 -0.4774 -0.2004
14299TIP3    H164312   5.127   4.949   4.964  1.1928  0.3716  1.3726
14299TIP3    H264313   5.121   4.903   5.108 -2.1359 -0.0676  1.1237
14300TIP3   OH264314   3.339   5.526  17.010  1.0653  0.2263 -0.3511
14300TIP3    H164315   3.341   5.431  17.024  0.1527  0.0135 -1.6613
14300TIP3    H264316   3.431   5.550  17.000  1.4083 -0.3173  1.2791
14301TIP3   OH264317   0.258   3.050   3.135 -0.5865  0.1215 -0.0534
14301TIP3    H164318   0.241   2.985   3.068  1.6706 -1.2050  0.5982
14301TIP3    H264319   0.310   3.117   3.090 -3.3045  1.7625 -0.8421
14302TIP3   OH264320   5.614   2.994   1.052 -0.0749 -0.8588 -0.1759
14302TIP3    H164321   5.583   2.907   1.078 -1.3962 -0.1239  0.7518
14302TIP3    H264322   5.542   3.053   1.075  0.0188  0.2461 -2.5659
14303TIP3   OH264323   0.260   1.704   4.141  0.4093  0.0010  0.5637
14303TIP3    H164324   0.296   1.689   4.053 -0.1359 -1.4343  0.5655
14303TIP3    H264325   0.185   1.761   4.128  0.7660  0.3810  0.1774
14304TIP3   OH264326   0.985   3.103  15.093 -0.3576 -0.1399 -0.2393
14304TIP3    H164327   1.008   3.020  15.052 -0.8054 -1.4470  2.0556
14304TIP3    H264328   0.902   3.129  15.053 -0.8277 -1.4278 -0.0970
14305TIP3   OH264329   3.596   1.351  17.195  0.0345 -0.0344 -0.4927
14305TIP3    H164330   3.577   1.443  17.212  0.3392  0.5278 -2.9799
14305TIP3    H264331   3.688   1.341  17.219  0.3396  0.6335 -1.3210
14306TIP3   OH264332   6.586   0.049  17.191 -0.7702  0.6387  0.0038
14306TIP3    H164333   6.617   0.024  17.277 -0.8490 -2.2389 -0.7422
14306TIP3    H264334   6.655   0.105  17.155  0.2999  0.0052  1.0457
14307TIP3   OH264335   1.073   5.713  10.670 -0.1180 -0.3054 -0.3851
14307TIP3    H164336   1.091   5.688  10.761 -1.9594  1.3516  0.4695
14307TIP3    H264337   1.027   5.637  10.633 -1.3721 -0.1089  0.7453
14308TIP3   OH264338   0.400   3.828   2.024  0.1219  0.7684 -0.0153
14308TIP3    H164339   0.332   3.804   1.960  0.4851  1.3019 -0.6101
14308TIP3    H264340   0.466   3.759   2.015  0.9166  1.6759 -1.3505
14309TIP3   OH264341   6.605   1.934  10.708  0.2847  0.0399 -0.1911
14309TIP3    H164342   6.513   1.961  10.706 -0.3603 -2.1379 -0.9300
14309TIP3    H264343   6.634   1.945  10.617  1.1807  2.0396  0.3040
14310TIP3   OH264344   0.764   0.325  13.126  0.1518 -0.0539 -0.0925
14310TIP3    H164345   0.803   0.377  13.195  1.5018  0.9927 -1.5960
14310TIP3    H264346   0.795   0.236  13.142  0.1764  0.1158  0.8255
14311TIP3   OH264347   4.263   0.113  11.197  0.7109  0.6046  0.1393
14311TIP3    H164348   4.208   0.043  11.230  0.2431  1.4859  1.2597
14311TIP3    H264349   4.349   0.072  11.185  1.6028  0.7566  4.8365
14312TIP3   OH264350   2.978   6.373  12.837  0.2493  0.1947 -0.1583
14312TIP3    H164351   2.885   6.381  12.855  0.4085  1.9098 -0.0073
14312TIP3    H264352   2.993   6.279  12.827 -1.5824 -0.0471 -0.6937
14313TIP3   OH264353   3.888   4.143  17.053  0.5695 -0.3841 -0.0644
14313TIP3    H164354   3.836   4.111  16.980  1.2972 -0.9518 -0.3406
14313TIP3    H264355   3.844   4.223  17.081 -0.5178 -0.9377 -0.1985
14314TIP3   OH264356   2.474   5.176   2.817  0.2174  0.2377  0.4115
14314TIP3    H164357   2.515   5.165   2.903  0.6841  1.0503  0.2981
14314TIP3    H264358   2.398   5.232   2.833  0.6176  0.8438  0.2098
14315TIP3   OH264359   6.636   1.864   0.621 -0.1831  0.3362  0.4112
14315TIP3    H164360   6.685   1.946   0.627 -0.3194  0.5156 -0.7562
14315TIP3    H264361   6.545   1.891   0.607 -0.0199  0.0045 -1.4452
14316TIP3   OH264362   1.089   2.166  15.721  0.2774  0.2693 -0.0364
14316TIP3    H164363   1.072   2.145  15.813  1.1810 -0.7628 -0.0983
14316TIP3    H264364   1.098   2.261  15.720 -0.5912  0.3720  0.7973
14317TIP3   OH264365   1.118   0.337  16.829  0.1994  0.3106 -0.1338
14317TIP3    H164366   1.033   0.381  16.827  0.2347  0.4461  1.0855
14317TIP3    H264367   1.138   0.327  16.922  1.5900  0.4138 -0.4094
14318TIP3   OH264368   2.841   4.419   5.762 -0.2765  0.0478  0.2672
14318TIP3    H164369   2.773   4.352   5.768 -0.5974  0.2128 -1.3007
14318TIP3    H264370   2.917   4.381   5.807 -0.6703 -1.0750 -0.0090
14319TIP3   OH264371   1.886   4.063  13.973 -0.3692  0.4824  0.2107
14319TIP3    H164372   1.967   4.038  13.929 -1.8534 -1.1080 -1.7035
14319TIP3    H264373   1.871   3.993  14.037 -2.5826 -1.6776 -2.5901
14320TIP3   OH264374   2.928   4.965   1.690  0.0519 -0.2513  0.5443
14320TIP3    H164375   2.921   5.028   1.762 -1.3288  0.7559 -0.4523
14320TIP3    H264376   3.020   4.969   1.663  0.2625  0.3674  1.3427
14321TIP3   OH264377   3.656   3.845  13.678 -0.4963 -0.2116 -0.2167
14321TIP3    H164378   3.628   3.903  13.608 -0.5850  0.6082  0.4908
14321TIP3    H264379   3.602   3.767  13.667 -4.1402  1.8551  1.9378
14322TIP3   OH264380   5.594   2.317   5.878  0.5772 -0.0058 -0.7570
14322TIP3    H164381   5.574   2.231   5.916  1.3419  0.3730  0.5186
14322TIP3    H264382   5.670   2.348   5.927  0.7987  1.0523 -1.7544
14323TIP3   OH264383   3.489   3.427  14.035  0.5026  0.2889  0.0327
14323TIP3    H164384   3.527   3.477  14.108 -0.3061 -0.1753  0.7865
14323TIP3    H264385   3.565   3.400  13.983  1.1156  0.4598  0.8156
14324TIP3   OH264386   0.626   4.125  16.824 -0.2632  0.1911  0.5146
14324TIP3    H164387   0.632   4.107  16.918  0.6515  0.1265  0.4452
14324TIP3    H264388   0.564   4.197  16.817 -0.4972  0.0545  1.1526
14325TIP3   OH264389   2.480   0.111   1.843 -0.1942  0.2476  0.1323
14325TIP3    H164390   2.416   0.102   1.914 -0.9679 -1.0362 -0.7103
14325TIP3    H264391   2.490   0.023   1.808  3.9357 -0.0774  1.8317
14326TIP3   OH264392   3.068   5.348   5.664  0.4530  0.3076  0.3311
14326TIP3    H164393   3.031   5.295   5.735 -0.0942  0.4000  0.1133
14326TIP3    H264394   3.158   5.366   5.692  1.2107 -2.1575 -0.3316
14327TIP3   OH264395   1.714   2.219  12.545  0.1943 -0.1704  0.4426
14327TIP3    H164396   1.745   2.309  12.549 -0.1266  0.0252 -1.2436
14327TIP3    H264397   1.792   2.165  12.558  0.0405  0.3000  3.9829
14328TIP3   OH264398   3.667   6.260   2.656 -0.0896 -0.3822  0.5579
14328TIP3    H164399   3.597   6.208   2.615 -0.8566 -0.7545  2.2825
14328TIP3    H264400   3.633   6.349   2.658  1.0764  0.1813 -2.0640
14329TIP3   OH264401   3.878   5.148  14.820 -0.3789 -0.0698 -0.6647
14329TIP3    H164402   3.878   5.244  14.819  0.0057 -0.0658 -0.4222
14329TIP3    H264403   3.939   5.123  14.751  1.1051 -0.1117  0.6238
14330TIP3   OH264404   3.382   5.428   0.092 -0.3198 -0.8910  0.9440
14330TIP3    H164405   3.440   5.455   0.020 -0.3084  0.5190  1.4725
14330TIP3    H264406   3.295   5.426   0.053 -0.1882 -1.0730  0.6525
14331TIP3   OH264407   3.394   1.373   1.757 -0.3862  0.0708  0.6214
14331TIP3    H164408   3.325   1.384   1.691 -0.3746 -1.4128  0.3442
14331TIP3    H264409   3.351   1.394   1.840 -1.0769 -0.4779  0.4087
14332TIP3   OH264410   3.952   1.940   4.016  0.3845  0.3401 -0.8901
14332TIP3    H164411   3.872   1.934   3.963  0.4483  0.2638 -0.9768
14332TIP3    H264412   3.921   1.972   4.101  0.2685  0.3642 -0.9406
14333TIP3   OH264413   2.153   3.423  16.543 -0.3588  0.3226  0.3056
14333TIP3    H164414   2.113   3.362  16.482  3.4695 -2.4938  0.4593
14333TIP3    H264415   2.131   3.510  16.509 -0.2803 -1.1714 -3.7257
14334TIP3   OH264416   6.024   0.528   3.036 -0.2487 -0.1374 -0.4160
14334TIP3    H164417   5.972   0.542   3.115 -1.1222 -1.4322 -0.7498
14334TIP3    H264418   5.995   0.595   2.975  1.5803  1.9359  0.8869
14335TIP3   OH264419   2.234   3.220  12.563 -0.2735 -0.0882 -0.0095
14335TIP3    H164420   2.168   3.151  12.567 -0.0125 -0.3649 -0.4854
14335TIP3    H264421   2.299   3.188  12.501 -0.7120  1.0545 -1.0931
14336TIP3   OH264422   1.927   0.867  14.719  0.3233 -0.2026  0.0785
14336TIP3    H164423   2.015   0.853  14.754 -0.4064  0.1312  2.0822
14336TIP3    H264424   1.884   0.782  14.726  0.0440 -0.0374  0.3910
14337TIP3   OH264425   2.703   0.069   2.937  0.2854 -0.6711 -0.2983
14337TIP3    H164426   2.614   0.037   2.924 -0.0345 -0.0209  0.2951
14337TIP3    H264427   2.723   0.047   3.028 -0.5648  2.3291  0.6641
14338TIP3   OH264428   0.828   6.635  17.203  0.2224  0.3769  0.3537
14338TIP3    H164429   0.814   6.720  17.244 -0.1415  0.2424  0.5095
14338TIP3    H264430   0.877   6.585  17.267  0.6396  0.5449  0.1679
14339TIP3   OH264431   2.931   0.193   4.963 -0.0814 -0.0654  0.3350
14339TIP3    H164432   2.854   0.182   5.018  0.8416 -3.5895  1.0209
14339TIP3    H264433   2.932   0.116   4.906  1.6328  1.1038 -1.2959
14340TIP3   OH264434   3.407   1.962   0.747 -0.1160 -0.6252 -0.4702
14340TIP3    H164435   3.432   1.936   0.836 -0.4014  1.0277  0.1091
14340TIP3    H264436   3.482   1.936   0.693  1.2703  0.8842  0.6808
14341TIP3   OH264437   3.567   5.696  14.359  0.1394  0.0608  0.0639
14341TIP3    H164438   3.476   5.668  14.367 -0.0336  0.6382  0.1423
14341TIP3    H264439   3.613   5.650  14.429 -0.4072  1.0533  1.1029
14342TIP3   OH264440   5.778   5.642  16.592 -0.1914  0.0922 -0.1092
14342TIP3    H164441   5.780   5.555  16.552 -1.2347 -0.2118  0.4689
14342TIP3    H264442   5.708   5.636  16.658  0.1922  1.1652  0.3990
14343TIP3   OH264443   0.676   2.266   2.244  0.3777 -0.2778  0.1282
14343TIP3    H164444   0.726   2.307   2.174  1.3874 -1.7174 -0.0229
14343TIP3    H264445   0.589   2.253   2.207  0.2781  0.9628 -0.0932
14344TIP3   OH264446   6.302   2.164   1.706 -0.2431 -0.3431 -0.5870
14344TIP3    H164447   6.315   2.157   1.801  0.8825 -0.7593 -0.7574
14344TIP3    H264448   6.331   2.253   1.685 -1.7315  0.2134 -0.3656
14345TIP3   OH264449   1.466   3.726   1.994  0.0793  0.2618 -0.1147
14345TIP3    H164450   1.427   3.640   2.005 -1.6380  0.6556 -2.6902
14345TIP3    H264451   1.492   3.752   2.082 -1.4186 -1.9276  1.0131
14346TIP3   OH264452   0.218   0.614   4.282 -0.9810 -0.1906  0.8790
14346TIP3    H164453   0.235   0.532   4.328 -0.2743 -1.1248 -0.9908
14346TIP3    H264454   0.140   0.597   4.230 -1.0008  0.4300  0.6987
14347TIP3   OH264455   0.165   0.395  14.360  0.2160 -0.0283  0.2755
14347TIP3    H164456   0.181   0.489  14.358  0.0847  0.0245  1.1791
14347TIP3    H264457   0.227   0.361  14.425 -0.2204 -0.4559  0.4793
14348TIP3   OH264458   3.650   6.767  15.141  0.2911 -0.0455  0.1499
14348TIP3    H164459   3.702   6.749  15.062 -0.1138  1.5581 -0.4976
14348TIP3    H264460   3.567   6.722  15.126  0.2563  0.1612 -0.3001
14349TIP3   OH264461   2.275   2.647  15.908  0.1433 -0.0024 -0.2291
14349TIP3    H164462   2.224   2.589  15.851  0.8887  0.5999 -1.5334
14349TIP3    H264463   2.224   2.727  15.913  0.5663  0.3150 -0.8950
14350TIP3   OH264464   3.995   1.579   5.151 -0.0025 -0.2602 -0.9133
14350TIP3    H164465   4.013   1.543   5.238 -0.0118  2.5662  0.3161
14350TIP3    H264466   4.004   1.505   5.092 -0.2776 -2.3149  1.5299
14351TIP3   OH264467   2.610   2.068   4.132  0.3722  0.5623 -0.3430
14351TIP3    H164468   2.640   2.093   4.220 -1.2322  1.9008 -0.1477
14351TIP3    H264469   2.554   1.992   4.147  1.5495 -0.3392 -0.4276
14352TIP3   OH264470   3.884   3.095   3.650 -0.7341 -0.0108 -0.2569
14352TIP3    H164471   3.864   3.184   3.679 -1.0812 -0.5793  1.2928
14352TIP3    H264472   3.823   3.040   3.698  0.6607 -1.2468  0.1184
14353TIP3   OH264473   4.238   6.273  17.204 -0.9088 -0.4319 -0.1964
14353TIP3    H164474   4.233   6.190  17.250 -0.0298 -0.5030 -0.2202
14353TIP3    H264475   4.147   6.303  17.197 -1.1175 -0.8280  0.8277
14354TIP3   OH264476   0.872   3.106   3.223  0.1046  0.6656  0.2942
14354TIP3    H164477   0.882   3.010   3.220 -0.0017  0.6157  1.4607
14354TIP3    H264478   0.795   3.124   3.170 -0.0652  0.0746  0.3364
14355TIP3   OH264479   6.510   0.425  12.010  0.4379 -0.0875 -0.1325
14355TIP3    H164480   6.602   0.418  12.036  0.1791  0.2585  0.9220
14355TIP3    H264481   6.493   0.345  11.962  1.3232 -0.1090 -0.4278
14356TIP3   OH264482   2.598   4.319   5.302  0.3447  0.1246  0.2499
14356TIP3    H164483   2.520   4.375   5.307  0.9908  0.9722  1.0223
14356TIP3    H264484   2.563   4.232   5.281 -0.7421  0.6402 -0.1508
14357TIP3   OH264485   6.442   3.635  12.225  0.1582 -0.4596  0.1295
14357TIP3    H164486   6.400   3.580  12.291 -0.4800 -0.1887 -0.0520
14357TIP3    H264487   6.399   3.720  12.233  0.0075 -0.4523 -0.6992
14358TIP3   OH264488   6.317   2.081  14.096  0.0749 -0.1855  0.1697
14358TIP3    H164489   6.303   2.091  14.002  1.5200  1.5858  0.1132
14358TIP3    H264490   6.259   2.146  14.137  0.9708  0.4771  0.3959
14359TIP3   OH264491   0.880   1.876   2.684 -0.1622 -0.4837  0.5865
14359TIP3    H164492   0.918   1.819   2.750 -0.6277 -1.3516  0.1049
14359TIP3    H264493   0.889   1.828   2.602 -0.1398  0.3295  0.1065
14360TIP3   OH264494   4.492   2.540   2.047 -0.3866  0.5560  0.2863
14360TIP3    H164495   4.412   2.490   2.061  0.8161 -1.6148 -0.3117
14360TIP3    H264496   4.534   2.543   2.133  1.2602 -2.6212 -0.3097
14361TIP3   OH264497   5.376   6.544   0.049 -0.8691  0.5128 -0.7878
14361TIP3    H164498   5.395   6.574  -0.040  1.4242  0.4635 -0.3274
14361TIP3    H264499   5.391   6.450   0.046 -0.9601  0.4857 -0.3754
14362TIP3   OH264500   0.785   3.998   3.104 -0.5519 -0.8406  0.1684
14362TIP3    H164501   0.745   3.985   3.190 -1.0429 -1.5989 -0.1687
14362TIP3    H264502   0.815   4.089   3.105  1.6004 -1.5190  2.0237
14363TIP3   OH264503   5.697   2.357  16.749 -0.4909 -0.1671  1.0458
14363TIP3    H164504   5.764   2.387  16.688 -0.3284  1.7354  2.1003
14363TIP3    H264505   5.614   2.367  16.702 -0.3640  1.2685  1.0884
14364TIP3   OH264506   4.081   3.428  16.682 -0.4126 -0.3101  0.4662
14364TIP3    H164507   4.028   3.361  16.726 -0.7863 -0.4068 -0.1283
14364TIP3    H264508   4.053   3.511  16.721 -0.2800 -0.4580  0.8722
14365TIP3   OH264509   5.822   0.472  13.273 -0.5610 -0.3860 -0.7623
14365TIP3    H164510   5.851   0.414  13.202  1.3814 -0.6338  0.1814
14365TIP3    H264511   5.827   0.560  13.235  0.9619 -0.4732 -0.7979
14366TIP3   OH264512   0.182   3.392   0.798 -0.3583  0.1478  0.0968
14366TIP3    H164513   0.201   3.354   0.712  0.1211  0.7589 -0.0686
14366TIP3    H264514   0.227   3.335   0.860 -1.1856 -0.6331 -0.0051
14367TIP3   OH264515   2.640   3.899  12.109  0.2407 -0.2762  0.2551
14367TIP3    H164516   2.555   3.931  12.141  0.2684 -0.4669  0.5232
14367TIP3    H264517   2.694   3.978  12.102 -0.1325 -0.0811 -0.4571
14368TIP3   OH264518   6.011   4.776   0.345 -0.4333  0.1030  0.4420
14368TIP3    H164519   6.071   4.724   0.291 -1.8656 -1.0161 -0.1259
14368TIP3    H264520   6.043   4.765   0.434  0.6450  0.1345  0.0653
14369TIP3   OH264521   4.794   6.414   3.738  0.2834 -0.1415  0.0310
14369TIP3    H164522   4.766   6.336   3.690 -0.1638  0.3709 -0.5510
14369TIP3    H264523   4.871   6.385   3.786  0.1415 -0.9384 -0.2010
14370TIP3   OH264524   1.770   5.494   1.028  0.6612 -0.5604  0.5185
14370TIP3    H164525   1.815   5.565   0.982 -3.2959  1.7732  0.0123
14370TIP3    H264526   1.768   5.522   1.119 -0.6677 -0.0900  0.3600
14371TIP3   OH264527   1.647   4.664  11.051  0.1154 -0.1609 -0.0144
14371TIP3    H164528   1.641   4.625  10.963 -1.8635 -0.9611  0.4298
14371TIP3    H264529   1.562   4.645  11.090  0.8767  0.4582  1.9753
14372TIP3   OH264530   0.639   3.113  16.811  0.1148  0.1481 -0.4212
14372TIP3    H164531   0.717   3.088  16.761  1.4936  0.6876  1.4043
14372TIP3    H264532   0.566   3.100  16.750  1.6478 -0.1189 -2.2385
14373TIP3   OH264533   6.331   2.877  16.275 -0.0095  0.0003  0.4943
14373TIP3    H164534   6.405   2.920  16.233 -0.5341  1.4711  1.0635
14373TIP3    H264535   6.259   2.886  16.212 -0.0109 -0.4362  0.4283
14374TIP3   OH264536   2.925   4.042   4.093  0.0198  0.2219  0.2674
14374TIP3    H164537   3.009   4.034   4.050 -0.3268  2.3091 -0.8457
14374TIP3    H264538   2.946   4.074   4.181  0.3722  1.2118 -0.1701
14375TIP3   OH264539   4.167   5.336   1.328 -0.3949  0.4655 -0.5007
14375TIP3    H164540   4.131   5.379   1.406  0.2889  0.3589 -0.1188
14375TIP3    H264541   4.260   5.361   1.329 -0.1917 -0.2900 -0.7774
14376TIP3   OH264542   1.523   0.245   5.521  0.1725 -0.2621  0.2896
14376TIP3    H164543   1.531   0.154   5.551  1.5664 -1.3089 -3.0183
14376TIP3    H264544   1.440   0.247   5.474  0.8078 -0.1925 -0.8355
14377TIP3   OH264545   2.466   4.147  14.791 -0.3510  0.0256  0.3806
14377TIP3    H164546   2.552   4.190  14.784 -0.1722  0.2375  3.0919
14377TIP3    H264547   2.439   4.132  14.701  3.1696 -1.3149 -0.5606
14378TIP3   OH264548   3.975   0.603  16.734  0.0619 -0.0057  0.4034
14378TIP3    H164549   3.902   0.662  16.719  0.0758 -0.0835  0.0419
14378TIP3    H264550   4.029   0.648  16.800 -0.0013  0.3151  0.2339
14379TIP3   OH264551   2.140   4.039  12.268 -0.1997  0.4794  0.5071
14379TIP3    H164552   2.064   4.096  12.281 -0.8103 -0.3560  0.7006
14379TIP3    H264553   2.102   3.956  12.239  0.7539  0.5137 -0.8369
14380TIP3   OH264554   6.725   3.827   0.994 -0.4275 -0.2140  0.6597
14380TIP3    H164555   6.778   3.748   0.983  1.1946  0.8557  0.4932
14380TIP3    H264556   6.767   3.892   0.937 -0.0005  1.5679  2.9192
14381TIP3   OH264557   5.068   3.480   3.907 -0.2768 -0.4746  0.2659
14381TIP3    H164558   5.012   3.510   3.836 -2.1939 -0.6324  1.6587
14381TIP3    H264559   5.087   3.560   3.957  1.7842 -0.2168 -0.8835
14382TIP3   OH264560   2.420   1.343   3.015 -0.3654 -0.1852  0.8683
14382TIP3    H164561   2.389   1.402   2.946  1.1135  0.7064  0.9515
14382TIP3    H264562   2.425   1.257   2.973 -0.2108  0.2085  0.0713
14383TIP3   OH264563   6.428   5.063  11.534  0.1254 -0.4411 -0.2448
14383TIP3    H164564   6.462   5.065  11.444 -0.0970  2.9462 -0.3277
14383TIP3    H264565   6.344   5.019  11.527  0.4925 -0.9554 -1.5717
14384TIP3   OH264566   2.655   1.423   3.138  0.2597  0.0284 -0.2489
14384TIP3    H164567   2.707   1.401   3.061  1.4354 -0.0436  0.5685
14384TIP3    H264568   2.565   1.431   3.104  0.5977 -1.0700 -1.4310
14385TIP3   OH264569   1.691   0.407   1.260 -0.0020  0.4909 -0.0320
14385TIP3    H164570   1.609   0.360   1.244  0.0206  0.5760 -0.3927
14385TIP3    H264571   1.715   0.382   1.349  0.6104 -1.1088 -0.6254
14386TIP3   OH264572   2.031   0.508   3.096 -0.0717  1.0469  0.0514
14386TIP3    H164573   2.022   0.461   3.179  1.1668  1.8276  0.6377
14386TIP3    H264574   2.034   0.439   3.030 -0.8641  0.4148  0.6622
14387TIP3   OH264575   1.341   5.899   5.305 -0.6984 -0.2001 -0.2379
14387TIP3    H164576   1.397   5.843   5.251  0.1121 -0.1768  0.5671
14387TIP3    H264577   1.252   5.872   5.282 -0.3915  0.2950 -2.0855
14388TIP3   OH264578   2.659   3.736   1.959  0.0448  0.5926  0.6566
14388TIP3    H164579   2.739   3.782   1.983  0.8380 -0.5763  0.2827
14388TIP3    H264580   2.683   3.684   1.882 -0.5250 -1.3423  1.7592
14389TIP3   OH264581   2.957   1.552   4.017 -0.5679  0.1922  0.6017
14389TIP3    H164582   2.865   1.531   4.006  0.0787 -2.1300 -0.7271
14389TIP3    H264583   2.970   1.632   3.965 -1.7249  0.3148  0.4822
14390TIP3   OH264584   1.925   2.388  13.168 -0.1428  0.2476  0.6018
14390TIP3    H164585   1.856   2.355  13.225 -0.6786 -0.6301 -0.5187
14390TIP3    H264586   1.879   2.440  13.102  0.4014  0.7881  0.6469
14391TIP3   OH264587   5.622   1.313   0.368 -0.0536 -0.0661  0.2045
14391TIP3    H164588   5.619   1.258   0.446  2.3495 -0.1063  0.3078
14391TIP3    H264589   5.708   1.355   0.371 -0.6347  1.3400 -1.4798
14392TIP3   OH264590   5.589   2.738   0.467 -0.9221 -0.2460 -0.5294
14392TIP3    H164591   5.628   2.758   0.383 -0.7845 -0.3352 -0.4877
14392TIP3    H264592   5.552   2.650   0.456  1.5555 -1.4626  0.3427
14393TIP3   OH264593   3.533   4.908  12.208 -0.5326 -0.2883 -0.4854
14393TIP3    H164594   3.574   4.889  12.292 -1.0084 -0.3152 -0.2605
14393TIP3    H264595   3.530   4.824  12.162 -0.9863 -0.4215 -0.2142
14394TIP3   OH264596   1.853   1.395  13.852  0.3295  0.6481  0.7864
14394TIP3    H164597   1.837   1.387  13.757  2.7654 -1.7888  0.5346
14394TIP3    H264598   1.918   1.466  13.859  1.3067 -0.2067  0.4853
14395TIP3   OH264599   2.843   4.580  16.992 -0.6200 -0.0577  0.2766
14395TIP3    H164600   2.858   4.501  16.941  0.5142  0.2277  0.1537
14395TIP3    H264601   2.929   4.602  17.028 -0.5407  2.1349 -1.1551
14396TIP3   OH264602   6.084   3.499  11.258 -0.2944  0.1952  0.1495
14396TIP3    H164603   6.148   3.461  11.197 -0.2365  1.6564 -0.7191
14396TIP3    H264604   6.098   3.451  11.340 -0.3769 -1.7940 -0.9777
14397TIP3   OH264605   4.601   6.061   1.417 -1.0345 -0.6348  0.0248
14397TIP3    H164606   4.577   6.020   1.334 -1.3099 -1.9959  0.7508
14397TIP3    H264607   4.695   6.047   1.424 -0.5553  1.7441 -1.2446
14398TIP3   OH264608   3.679   1.078   3.816  0.2241 -0.3860  0.2609
14398TIP3    H164609   3.625   1.005   3.785 -1.3303  1.1524 -0.7218
14398TIP3    H264610   3.710   1.121   3.736  1.6426 -0.3008  0.8338
14399TIP3   OH264611   5.086   2.522  12.009  0.0138 -0.0608 -0.5562
14399TIP3    H164612   5.070   2.550  12.100  0.5651  1.0763 -0.8078
14399TIP3    H264613   5.008   2.470  11.987 -0.2627 -0.1007  0.4674
14400TIP3   OH264614   5.470   0.527   3.723  0.1207  0.7423  0.0538
14400TIP3    H164615   5.506   0.615   3.713  2.0116  0.0912  0.8745
14400TIP3    H264616   5.505   0.478   3.649  2.3284 -0.3152  1.7375
14401TIP3   OH264617   0.757   6.654   0.323 -0.2330 -0.0797  0.3415
14401TIP3    H164618   0.799   6.723   0.373  0.8015 -2.8169  3.4253
14401TIP3    H264619   0.829   6.596   0.297 -1.1798 -0.5274 -1.3729
14402TIP3   OH264620   0.003   3.238   3.735 -0.4612  0.2499 -0.1689
14402TIP3    H164621  -0.010   3.271   3.824  1.6578  1.6975 -0.3618
14402TIP3    H264622   0.000   3.143   3.743  2.2315  0.3066  1.8699
14403TIP3   OH264623   3.131   3.179  14.461 -0.7064 -0.2603  0.0629
14403TIP3    H164624   3.100   3.187  14.371  0.5981 -0.3113 -0.4062
14403TIP3    H264625   3.107   3.090  14.487 -0.0942 -0.6275 -0.6215
14404TIP3   OH264626   3.513   0.016   0.257  0.5546 -0.3018 -0.3636
14404TIP3    H164627   3.422   0.029   0.283 -0.0389 -1.4162 -1.8717
14404TIP3    H264628   3.542   0.103   0.229  0.2748  0.2685  1.0709
14405TIP3   OH264629   2.556   0.334   0.239  0.0896  0.3130  0.2202
14405TIP3    H164630   2.631   0.394   0.248 -0.3400  0.9830 -0.5486
14405TIP3    H264631   2.496   0.360   0.308 -1.6745  3.1583 -2.2586
14406TIP3   OH264632   1.869   6.661   5.006 -0.0798 -0.2630 -0.2051
14406TIP3    H164633   1.824   6.622   5.080  0.5717  1.8594  1.3641
14406TIP3    H264634   1.810   6.647   4.932 -1.8378 -0.3789  1.1790
14407TIP3   OH264635   5.846   2.446  16.256  0.2685 -0.0871 -0.4612
14407TIP3    H164636   5.870   2.514  16.318 -1.5200  1.0349 -0.9673
14407TIP3    H264637   5.926   2.431  16.205  1.7184 -0.9187  1.9476
14408TIP3   OH264638   1.546   6.034   1.874 -0.5931 -0.2903 -0.7145
14408TIP3    H164639   1.515   5.993   1.794 -1.0033 -1.2735 -0.0509
14408TIP3    H264640   1.622   5.982   1.900  1.0343  1.4884 -1.7767
14409TIP3   OH264641   0.909   5.896  14.050 -0.0365 -0.1180 -0.3353
14409TIP3    H164642   0.860   5.879  14.130  2.1565 -1.8636  0.6914
14409TIP3    H264643   0.860   5.849  13.982 -1.1913  0.3025  0.1951
14410TIP3   OH264644   0.596   0.530  10.995  0.1277  0.6136  0.3910
14410TIP3    H164645   0.606   0.624  11.010 -0.0541  0.8728 -1.0093
14410TIP3    H264646   0.506   0.520  10.963  0.3516  0.0602 -0.0855
14411TIP3   OH264647   5.790   4.331  16.664  0.6987 -0.0019 -0.0887
14411TIP3    H164648   5.732   4.347  16.738  1.0169  1.0779 -0.0606
14411TIP3    H264649   5.871   4.298  16.703  0.4560 -0.5472 -0.0455
14412TIP3   OH264650   5.983   0.108   6.145 -0.0834 -0.8099  0.0543
14412TIP3    H164651   5.910   0.070   6.097 -1.5642  1.8653  0.1363
14412TIP3    H264652   5.954   0.107   6.237  1.0157 -2.0022  0.4078
14413TIP3   OH264653   3.764   4.614   1.091 -0.0584 -0.0963  0.0945
14413TIP3    H164654   3.736   4.615   0.999  0.4607  0.4871 -0.0574
14413TIP3    H264655   3.808   4.530   1.101  1.3007  0.5073 -0.6256
14414TIP3   OH264656   5.760   3.776   1.650  0.9581  0.0185 -0.6082
14414TIP3    H164657   5.838   3.831   1.642  1.1732 -0.3123 -0.7849
14414TIP3    H264658   5.761   3.745   1.741  1.4959 -0.6778 -0.8511
14415TIP3   OH264659   0.905   5.665  13.753 -0.7245  0.0338 -0.3904
14415TIP3    H164660   0.810   5.674  13.760 -0.8154  2.2593 -3.4282
14415TIP3    H264661   0.937   5.754  13.739  2.0927 -0.3805  2.8276
14416TIP3   OH264662   4.532   1.488  11.967  0.2709 -0.3073 -0.0994
14416TIP3    H164663   4.553   1.461  12.056  1.5955  2.0035  0.3464
14416TIP3    H264664   4.487   1.413  11.928 -0.5555 -1.2440  2.5810
14417TIP3   OH264665   2.983   0.055  14.160  0.1474  0.0200 -0.2018
14417TIP3    H164666   2.903   0.089  14.201  0.9292  0.8677  0.6502
14417TIP3    H264667   2.987   0.100  14.075  0.7002  1.4163  0.5446
14418TIP3   OH264668   3.004   5.886  15.353  0.1779  0.6565 -0.0287
14418TIP3    H164669   3.010   5.814  15.417 -0.3703  0.6515  0.0195
14418TIP3    H264670   2.916   5.921  15.365  0.0089  0.5384 -0.9152
14419TIP3   OH264671   4.644   3.966  14.342  0.0620 -0.1350  0.7594
14419TIP3    H164672   4.660   4.055  14.311 -1.7930  0.1988  0.6941
14419TIP3    H264673   4.553   3.948  14.318  0.8671 -2.6606 -0.7355
14420TIP3   OH264674   1.840   1.834  12.465 -0.2968  0.5985  0.4740
14420TIP3    H164675   1.910   1.819  12.401 -0.5760  0.0395  0.2940
14420TIP3    H264676   1.884   1.869  12.542  0.4768 -1.7271  1.1390
14421TIP3   OH264677   2.719   5.223   4.337  0.4682  0.0638  0.0139
14421TIP3    H164678   2.639   5.247   4.385  0.5853  0.6946 -0.0969
14421TIP3    H264679   2.740   5.136   4.369 -1.2783 -0.8773 -1.2916
14422TIP3   OH264680   5.078   1.736   2.974 -0.0600 -0.6212  1.0212
14422TIP3    H164681   5.008   1.693   3.023 -0.4650  2.4157  3.2510
14422TIP3    H264682   5.033   1.778   2.900  0.0615 -2.3570 -0.0510
14423TIP3   OH264683   0.131   0.776  11.752 -0.8446 -0.7836 -0.0838
14423TIP3    H164684   0.061   0.737  11.700  0.0202  1.1093 -2.8284
14423TIP3    H264685   0.204   0.714  11.745 -1.3572 -1.4493  0.4865
14424TIP3   OH264686   0.658   2.343  14.968  0.4557 -0.1058 -0.0130
14424TIP3    H164687   0.571   2.379  14.946  1.0074  2.2475  1.4559
14424TIP3    H264688   0.644   2.248  14.972 -1.6045  0.0756 -1.7167
14425TIP3   OH264689   1.346   2.047  13.805  0.4210  0.6936 -0.4218
14425TIP3    H164690   1.256   2.040  13.774  0.9869 -0.8380 -1.7316
14425TIP3    H264691   1.357   2.140  13.826 -1.5352  0.8438  0.0218
14426TIP3   OH264692   2.012   5.346  16.450 -0.4397  0.4603  0.3107
14426TIP3    H164693   1.934   5.401  16.456 -0.4447  0.5487 -0.5501
14426TIP3    H264694   1.988   5.277  16.388 -1.1023 -1.6195  2.7852
14427TIP3   OH264695   6.419   1.712  13.579  0.4891 -0.1899 -0.3650
14427TIP3    H164696   6.484   1.664  13.629  0.5011 -0.8812 -1.0317
14427TIP3    H264697   6.336   1.668  13.599  0.3824  0.0241 -0.3361
14428TIP3   OH264698   0.165   1.070   3.760 -0.0706  0.1143  0.3728
14428TIP3    H164699   0.125   0.984   3.767 -0.5415  0.4357  1.7749
14428TIP3    H264700   0.165   1.089   3.666 -0.9842 -0.9206  0.1555
14429TIP3   OH264701   6.415   4.731   2.198  0.0972 -0.2762  0.3755
14429TIP3    H164702   6.481   4.749   2.265  1.2874  0.2765 -0.9327
14429TIP3    H264703   6.450   4.657   2.149  0.4112  0.8937 -1.1949
14430TIP3   OH264704   6.064   2.086   0.063  0.0927 -0.2350  0.5974
14430TIP3    H164705   5.980   2.111   0.026  0.6487 -1.0895 -1.3203
14430TIP3    H264706   6.094   2.164   0.110 -0.5344  0.9863 -0.9869
14431TIP3   OH264707   4.611   3.141  13.961 -1.2036  0.1567  0.2111
14431TIP3    H164708   4.562   3.200  14.019 -1.0744  1.2463 -0.7622
14431TIP3    H264709   4.544   3.087  13.919 -1.3696 -0.0064  0.6827
14432TIP3   OH264710   6.293   3.669   3.634  0.0906 -0.0170 -0.1082
14432TIP3    H164711   6.379   3.694   3.600  0.4057 -1.6195 -0.5448
14432TIP3    H264712   6.244   3.641   3.556  0.5571 -2.9832  0.5721
14433TIP3   OH264713   5.605   3.631  11.127 -0.0614  0.5119  0.2215
14433TIP3    H164714   5.592   3.604  11.036 -1.5375  1.6447  0.0800
14433TIP3    H264715   5.698   3.613  11.144 -0.0814 -0.9007 -1.0894
14434TIP3   OH264716   3.929   3.168   1.418  0.4018  0.0353 -0.1577
14434TIP3    H164717   3.994   3.221   1.463  0.3020 -0.4135  0.5179
14434TIP3    H264718   3.856   3.161   1.480 -0.3251  0.5945 -0.9264
14435TIP3   OH264719   0.983   6.389   2.594 -0.2970 -0.1490 -0.2477
14435TIP3    H164720   0.908   6.394   2.653 -0.5416 -1.0711 -0.4595
14435TIP3    H264721   0.961   6.318   2.534  1.5441 -1.7151  0.8548
14436TIP3   OH264722   5.266   5.079  14.615  0.6377  0.2368 -1.1588
14436TIP3    H164723   5.193   5.140  14.620  0.8190  0.5083 -1.8587
14436TIP3    H264724   5.341   5.133  14.591  1.2813  0.1402  0.5473
14437TIP3   OH264725   1.118   3.589   1.537  0.2513  0.6272  0.3393
14437TIP3    H164726   1.184   3.589   1.606  0.0683  0.4448  0.5132
14437TIP3    H264727   1.147   3.657   1.476  0.8277  0.2517  0.1995
14438TIP3   OH264728   3.673   6.002  11.927 -0.2884 -0.3056 -0.8671
14438TIP3    H164729   3.728   6.011  11.849 -0.0470 -1.2631 -0.8193
14438TIP3    H264730   3.589   6.039  11.901 -0.8180 -2.3769 -2.2525
14439TIP3   OH264731   3.687   5.107  17.154  0.0951 -0.5830 -0.1968
14439TIP3    H164732   3.693   5.029  17.210  1.5173 -0.3933 -0.0751
14439TIP3    H264733   3.778   5.127  17.131 -0.2664  1.0351 -0.2493
14440TIP3   OH264734   5.010   1.365  15.150 -0.2103 -0.1267 -0.6861
14440TIP3    H164735   5.015   1.395  15.059  0.9919 -1.5008 -1.1038
14440TIP3    H264736   5.042   1.274  15.146  0.0397 -0.1248  1.1441
14441TIP3   OH264737   3.676   4.420  15.593  0.3635 -0.3818  0.3110
14441TIP3    H164738   3.594   4.371  15.599  0.3264 -0.2624  0.7986
14441TIP3    H264739   3.650   4.507  15.562  0.2572 -0.2158  0.8670
14442TIP3   OH264740   2.986   4.174   2.137 -0.6769  0.2706 -0.2756
14442TIP3    H164741   2.972   4.223   2.218 -1.4783 -0.4777  0.0571
14442TIP3    H264742   3.081   4.164   2.131 -0.5782  0.8230  0.2795
14443TIP3   OH264743   4.560   2.397  11.938  0.1707  0.1209  0.5944
14443TIP3    H164744   4.565   2.312  11.983 -0.3686 -1.7545 -2.7060
14443TIP3    H264745   4.601   2.381  11.853  0.5337  3.3437  0.1245
14444TIP3   OH264746   5.799   0.564  14.546 -0.9848 -0.1992 -0.5311
14444TIP3    H164747   5.794   0.626  14.619  1.0295  0.0194 -0.5308
14444TIP3    H264748   5.728   0.502  14.561 -0.9658  0.2039  1.2904
14445TIP3   OH264749   1.838   5.924   1.786  0.2009  1.0383 -0.2041
14445TIP3    H164750   1.862   5.835   1.759  1.2605  1.1966  0.1868
14445TIP3    H264751   1.863   5.979   1.712 -0.0310  1.0667 -0.2616
14446TIP3   OH264752   3.564   6.712  14.284 -0.1599  0.5155 -0.1815
14446TIP3    H164753   3.472   6.736  14.282  0.4019  2.7102 -0.3727
14446TIP3    H264754   3.581   6.675  14.197 -0.4981  1.4650 -0.6479
14447TIP3   OH264755   2.588   1.725   3.888 -0.2596 -0.5720 -0.1913
14447TIP3    H164756   2.582   1.751   3.796  0.6108  1.6243  0.3347
14447TIP3    H264757   2.498   1.715   3.916 -0.5934  1.0273 -0.6685
14448TIP3   OH264758   4.622   1.726  13.439  0.3261  0.5237  0.2985
14448TIP3    H164759   4.618   1.775  13.522  1.3866  0.8225  0.1841
14448TIP3    H264760   4.575   1.781  13.377  0.1919  0.6707  0.5263
14449TIP3   OH264761   3.896   2.759   4.196  0.0795  0.4588  0.0605
14449TIP3    H164762   3.846   2.683   4.166 -0.7126  1.4663 -1.2115
14449TIP3    H264763   3.832   2.813   4.242  0.5348  0.6088  0.5208
14450TIP3   OH264764   4.797   4.465  10.664  0.1970 -0.5561 -0.2544
14450TIP3    H164765   4.773   4.425  10.580 -0.4041 -0.3418 -0.1856
14450TIP3    H264766   4.730   4.532  10.678  0.4296 -0.4393  0.2908
14451TIP3   OH264767   3.345   2.865   0.428 -0.2818  0.2279 -0.3422
14451TIP3    H164768   3.264   2.868   0.377 -0.8632  0.7647  0.5982
14451TIP3    H264769   3.317   2.864   0.519  0.7748  0.4456  0.0011
14452TIP3   OH264770   2.498   5.964  11.439  0.7181 -0.3194  0.8315
14452TIP3    H164771   2.490   5.972  11.344 -0.1223  1.9706  1.0754
14452TIP3    H264772   2.565   6.028  11.463 -0.1357  0.1752  1.9428
14453TIP3   OH264773   2.840   5.758  11.477  0.3417  0.5953 -0.1716
14453TIP3    H164774   2.883   5.675  11.457  2.0224  1.8335 -1.8287
14453TIP3    H264775   2.897   5.800  11.541  0.6814  1.4933 -1.0712
14454TIP3   OH264776   4.873   5.835   1.124 -0.1951 -0.4040  0.0378
14454TIP3    H164777   4.891   5.764   1.062 -2.6571 -1.2574  0.2577
14454TIP3    H264778   4.931   5.817   1.198  1.7924 -0.1346 -1.4059
14455TIP3   OH264779   0.329   5.346  12.720 -0.6252  0.2094 -0.0143
14455TIP3    H164780   0.312   5.411  12.789 -0.1981  0.0458  0.2466
14455TIP3    H264781   0.425   5.342  12.714 -0.6512 -0.3826 -0.0473
14456TIP3   OH264782   3.734   0.222   3.930 -0.7764  0.3561 -0.4519
14456TIP3    H164783   3.643   0.252   3.935 -1.2381 -1.2845  2.0732
14456TIP3    H264784   3.764   0.224   4.021  0.9991 -1.2353 -0.9901
14457TIP3   OH264785   3.151   6.491   6.201 -0.3517  0.2899 -0.1837
14457TIP3    H164786   3.165   6.405   6.241 -0.4839  1.1655  1.7802
14457TIP3    H264787   3.103   6.541   6.267  2.5238  2.9109  0.0100
14458TIP3   OH264788   6.545   5.585  13.513  0.1038  0.4697 -0.2684
14458TIP3    H164789   6.583   5.535  13.586 -0.3131  0.9814  0.3115
14458TIP3    H264790   6.504   5.661  13.555 -0.9587  0.2846 -0.9370
14459TIP3   OH264791   3.507   4.742   4.617  0.0856 -0.1599 -0.4265
14459TIP3    H164792   3.578   4.707   4.564 -1.1040 -0.5150 -1.8383
14459TIP3    H264793   3.461   4.664   4.650 -0.9194  0.0414 -1.3077
14460TIP3   OH264794   6.371   6.426  10.736  0.4802  0.3539 -0.3356
14460TIP3    H164795   6.451   6.376  10.747 -0.7746 -2.0400 -1.7078
14460TIP3    H264796   6.347   6.453  10.825  2.0003 -0.1435  0.2433
14461TIP3   OH264797   2.813   3.502  11.386 -0.1296 -0.2316  0.0529
14461TIP3    H164798   2.889   3.462  11.345  0.7900  0.4235  1.0716
14461TIP3    H264799   2.798   3.583  11.336 -0.5406 -0.6735 -0.5359
14462TIP3   OH264800   5.501   4.374   2.868 -0.1383  0.3045 -0.3905
14462TIP3    H164801   5.541   4.456   2.898  0.3269 -0.6816  1.8079
14462TIP3    H264802   5.439   4.351   2.937 -1.6039 -0.2592 -1.8777
14463TIP3   OH264803   1.792   1.898  16.029 -0.9425  0.0636 -0.8002
14463TIP3    H164804   1.831   1.859  15.951  0.8347  0.4497 -0.1189
14463TIP3    H264805   1.738   1.828  16.066 -3.6420  0.5650 -3.5823
14464TIP3   OH264806   3.619   5.636  13.003  0.1823  0.1976  0.4324
14464TIP3    H164807   3.545   5.696  13.002 -0.1131 -0.1693 -0.3553
14464TIP3    H264808   3.692   5.687  13.038 -0.5899  0.3792  1.8178
14465TIP3   OH264809   5.801   2.939  12.430 -0.1372 -0.4050 -0.2734
14465TIP3    H164810   5.814   2.982  12.514 -1.8583  0.1129 -0.2437
14465TIP3    H264811   5.711   2.963  12.405  0.8567  0.6379 -2.9421
14466TIP3   OH264812   2.909   0.593   1.901  0.4697 -0.4475 -0.0125
14466TIP3    H164813   2.993   0.550   1.885  0.5321 -0.9031  1.4612
14466TIP3    H264814   2.863   0.586   1.818  2.2268  0.5949 -1.1189
14467TIP3   OH264815   0.367   1.042   1.833 -0.4646 -0.1819 -0.3762
14467TIP3    H164816   0.427   0.982   1.878 -0.1983 -0.0016 -0.4848
14467TIP3    H264817   0.284   0.994   1.828 -0.3099 -0.4626 -0.2862
14468TIP3   OH264818   5.813   3.977  12.780 -0.1100 -0.0126 -0.1028
14468TIP3    H164819   5.759   3.946  12.707 -0.3622  2.2959 -0.9510
14468TIP3    H264820   5.886   4.023  12.738 -0.0565  1.0058  1.0645
14469TIP3   OH264821   4.418   2.124  13.365 -0.1058 -0.3332 -0.5614
14469TIP3    H164822   4.425   2.035  13.329  2.2411 -0.2083 -0.4912
14469TIP3    H264823   4.456   2.118  13.452 -1.2561  0.4404  0.0020
14470TIP3   OH264824   5.004   4.820  16.682  0.4810  0.0500  0.6572
14470TIP3    H164825   5.003   4.876  16.604 -0.1915  0.0943  0.6990
14470TIP3    H264826   5.069   4.862  16.740  0.7181  0.2184  0.2706
14471TIP3   OH264827   0.357   4.090   1.749 -0.0927  0.1776 -0.4531
14471TIP3    H164828   0.423   4.023   1.731 -1.9996 -1.8370 -0.1977
14471TIP3    H264829   0.274   4.041   1.755 -1.0794  2.1366  2.9493
14472TIP3   OH264830   0.459   5.226   3.938 -0.1351 -0.8900  0.8308
14472TIP3    H164831   0.411   5.156   3.894  2.7317 -0.5386 -3.0942
14472TIP3    H264832   0.532   5.182   3.980 -0.0901 -0.6353  1.0198
14473TIP3   OH264833   2.458   6.286   5.197  0.0838  0.0992  0.1269
14473TIP3    H164834   2.385   6.232   5.228 -1.7414  2.4269  0.0549
14473TIP3    H264835   2.536   6.233   5.213 -1.6012 -2.4314  0.2784
14474TIP3   OH264836   4.046   6.562  13.705  0.4765  0.8462  0.9418
14474TIP3    H164837   4.010   6.487  13.752 -0.9871  0.2382 -1.0869
14474TIP3    H264838   4.133   6.575  13.744  0.2665 -1.1234  2.1486
14475TIP3   OH264839   0.126   4.825  17.132 -0.2112 -0.5841 -0.2955
14475TIP3    H164840   0.115   4.764  17.059  0.4080  2.1450 -2.7457
14475TIP3    H264841   0.072   4.900  17.109  0.5622  0.6325  1.7383
14476TIP3   OH264842   6.278   1.987  14.892  0.3159 -0.2488 -0.4557
14476TIP3    H164843   6.363   1.982  14.935 -0.9239 -0.1142  2.1711
14476TIP3    H264844   6.289   2.055  14.825  2.4135 -0.6605 -0.5619
14477TIP3   OH264845   3.703   4.775  12.731  0.5487  0.1433  0.2750
14477TIP3    H164846   3.653   4.706  12.685  0.3712 -0.7349  1.7490
14477TIP3    H264847   3.760   4.812  12.664  0.5938 -1.4034 -0.5665
14478TIP3   OH264848   3.727   4.031   4.187  0.3658 -0.1439 -0.0059
14478TIP3    H164849   3.736   4.044   4.282 -1.3109  1.0270  0.0242
14478TIP3    H264850   3.728   4.120   4.151  1.0075 -0.5909 -1.0809
14479TIP3   OH264851   1.586   3.045  16.100  0.0231 -0.4266  0.2735
14479TIP3    H164852   1.498   3.059  16.067 -0.7377  0.1452  2.4462
14479TIP3    H264853   1.589   2.953  16.126  0.8263 -1.0483 -1.8584
14480TIP3   OH264854   1.489   4.058   5.882 -0.0813  0.4543 -0.5111
14480TIP3    H164855   1.535   4.007   5.949 -2.2341  0.3794  0.9615
14480TIP3    H264856   1.536   4.141   5.879 -0.6345  0.9049  1.9541
14481TIP3   OH264857   2.285   2.632   4.951  0.1854 -0.0634 -0.1987
14481TIP3    H164858   2.293   2.727   4.947  0.2154 -0.0112  1.1475
14481TIP3    H264859   2.245   2.608   4.867 -0.9125  1.2561 -0.0700
14482TIP3   OH264860   3.734   5.191   3.880 -0.6111 -0.0524  0.4296
14482TIP3    H164861   3.779   5.264   3.924  0.0166 -0.4303  0.4200
14482TIP3    H264862   3.765   5.194   3.790  1.2782 -1.7664  0.9622
14483TIP3   OH264863   4.459   0.422   1.582  0.3183 -0.1273  0.0729
14483TIP3    H164864   4.468   0.422   1.677 -0.9515 -0.2822  0.2016
14483TIP3    H264865   4.547   0.442   1.549  0.7903 -0.2145  1.2704
14484TIP3   OH264866   1.443   3.919  14.935  0.5927  0.2237  0.3651
14484TIP3    H164867   1.496   3.996  14.952  1.1526 -0.2947  0.9878
14484TIP3    H264868   1.354   3.953  14.925  0.7783  0.9128  1.0022
14485TIP3   OH264869   6.282   2.605  16.457 -0.4100 -0.2972  0.3053
14485TIP3    H164870   6.212   2.640  16.513 -0.2168 -1.4130  1.2532
14485TIP3    H264871   6.354   2.588  16.518  0.1340 -0.6312 -0.4333
14486TIP3   OH264872   5.260   0.602   5.837 -0.1059  0.9560  0.6030
14486TIP3    H164873   5.261   0.553   5.920 -1.0938  1.2914  0.8213
14486TIP3    H264874   5.278   0.692   5.862 -2.7243  1.4834  0.7720
14487TIP3   OH264875   4.833   1.027   4.769  0.2955 -0.6216  0.0187
14487TIP3    H164876   4.739   1.035   4.781  0.6612  0.5814  2.3117
14487TIP3    H264877   4.861   1.113   4.738  0.8665 -0.4402  1.0101
14488TIP3   OH264878   0.840   2.754  15.975 -0.2505  0.4740  0.2492
14488TIP3    H164879   0.912   2.726  15.918 -1.6308  0.1806 -1.4275
14488TIP3    H264880   0.794   2.673  15.996 -0.8481  0.8092  0.2406
14489TIP3   OH264881   5.422   6.206  14.051  0.4927  0.3135  0.0923
14489TIP3    H164882   5.327   6.207  14.049  0.5064  1.9306 -1.5970
14489TIP3    H264883   5.447   6.294  14.080  1.4796 -0.5210  1.8724
14490TIP3   OH264884   3.842   2.378  10.952 -0.0285 -0.0906  0.3385
14490TIP3    H164885   3.910   2.323  10.914 -0.3688 -0.3501  0.0954
14490TIP3    H264886   3.760   2.334  10.929 -0.3968  1.4135 -1.3573
14491TIP3   OH264887   0.852   6.316   5.359  0.5245 -0.4155  0.3150
14491TIP3    H164888   0.851   6.405   5.393  1.3550 -0.9470  1.8086
14491TIP3    H264889   0.791   6.317   5.286  0.7442  1.4403  0.1344
14492TIP3   OH264890   0.691   3.036  15.145 -0.3109  0.5493 -0.7763
14492TIP3    H164891   0.691   2.986  15.227 -2.1759  0.5006 -0.7793
14492TIP3    H264892   0.677   2.969  15.077 -0.7128  0.8120 -0.9564
14493TIP3   OH264893   3.281   5.716   4.830 -0.1825 -0.3880 -0.1007
14493TIP3    H164894   3.289   5.621   4.840 -0.1544 -0.5108 -1.2279
14493TIP3    H264895   3.213   5.741   4.892 -0.5856 -1.2205 -0.2035
14494TIP3   OH264896   4.113   3.241  15.321 -0.1981  0.5129  0.1672
14494TIP3    H164897   4.161   3.322  15.332  4.3608 -1.7508 -1.6869
14494TIP3    H264898   4.147   3.183  15.389 -0.5492 -1.0273 -0.9315
14495TIP3   OH264899   3.657   5.532  15.268  0.3394 -0.5127  0.2711
14495TIP3    H164900   3.622   5.451  15.306 -0.8339  0.0865  0.4727
14495TIP3    H264901   3.703   5.574  15.340 -1.7888  0.5682  1.0589
14496TIP3   OH264902   3.505   1.794  17.045 -0.8368 -0.5117  0.4413
14496TIP3    H164903   3.510   1.727  16.977  0.7352 -1.3323  1.3294
14496TIP3    H264904   3.596   1.809  17.071 -1.0957  2.4486 -0.1680
14497TIP3   OH264905   6.180   5.103  16.111 -0.1643 -0.4725 -0.2821
14497TIP3    H164906   6.188   5.008  16.123 -0.0254 -0.5477 -0.9340
14497TIP3    H264907   6.146   5.135  16.195  0.7041 -0.9748  0.2713
14498TIP3   OH264908   1.436   4.447  12.997  0.0906 -0.8454 -0.0053
14498TIP3    H164909   1.508   4.417  13.053 -0.6870  0.4685  1.7479
14498TIP3    H264910   1.451   4.541  12.989 -0.2689 -0.8993 -1.3753
14499TIP3   OH264911   1.261   0.350  12.933 -0.2098 -0.5771 -0.0003
14499TIP3    H164912   1.203   0.273  12.931  0.4312 -1.0860  0.7341
14499TIP3    H264913   1.344   0.316  12.967  0.9045 -0.1034 -2.1935
14500TIP3   OH264914   3.384   2.174  11.394  0.1469 -0.2430 -0.8001
14500TIP3    H164915   3.378   2.246  11.332  0.3815 -0.1680 -0.7358
14500TIP3    H264916   3.411   2.215  11.477 -2.3121 -0.0221 -0.0656
14501TIP3   OH264917   5.766   3.750   2.472 -0.1157 -0.1761 -0.7329
14501TIP3    H164918   5.707   3.823   2.451 -0.7248 -0.6244 -0.5741
14501TIP3    H264919   5.715   3.672   2.454  0.3165 -0.5712 -0.2556
14502TIP3   OH264920   5.253   4.960  11.837  0.1636 -0.1182 -0.3708
14502TIP3    H164921   5.277   4.993  11.749  1.3342  2.8168  0.9629
14502TIP3    H264922   5.329   4.909  11.864  0.6240  0.5823 -0.3158
14503TIP3   OH264923   5.245   0.439  16.229 -0.0596 -0.3637  0.5583
14503TIP3    H164924   5.184   0.472  16.163  0.2408 -1.7970 -0.4470
14503TIP3    H264925   5.314   0.506  16.234 -0.9092  0.5181  0.5866
14504TIP3   OH264926   0.983   0.732  10.703  0.3561 -0.4029 -0.0331
14504TIP3    H164927   0.948   0.663  10.759 -2.2319  0.8478 -0.0378
14504TIP3    H264928   0.977   0.812  10.756  1.3941  0.1660 -0.7549
14505TIP3   OH264929   4.624   6.293  14.279  0.0020 -0.7866 -0.0366
14505TIP3    H164930   4.677   6.326  14.351  0.1403  1.4725 -1.1375
14505TIP3    H264931   4.580   6.216  14.315  1.5852 -0.8389  1.8402
14506TIP3   OH264932   4.683   3.885   4.743  0.1888  0.6193 -0.3014
14506TIP3    H164933   4.771   3.850   4.734  1.0653  1.4087  4.0640
14506TIP3    H264934   4.688   3.974   4.707  1.6097  1.1824  1.2110
14507TIP3   OH264935   2.239   5.893   1.457  0.1662  0.3959 -0.0719
14507TIP3    H164936   2.257   5.987   1.467 -0.3064  0.4953 -0.1210
14507TIP3    H264937   2.225   5.862   1.546 -1.7177  0.7972 -0.2089
14508TIP3   OH264938   1.636   6.006  14.768 -0.2701  0.3250 -0.1602
14508TIP3    H164939   1.553   5.993  14.815  0.2510  1.4489  1.0798
14508TIP3    H264940   1.634   6.097  14.740  0.2064  0.1317 -0.8366
14509TIP3   OH264941   6.039   5.656  14.611 -0.5122  0.0285 -0.0553
14509TIP3    H164942   6.045   5.730  14.550 -1.4914 -0.1777 -0.4132
14509TIP3    H264943   6.076   5.582  14.562 -2.0072 -0.3087 -0.6904
14510TIP3   OH264944   4.984   6.620  15.317 -0.6404  0.3422 -0.1724
14510TIP3    H164945   4.966   6.670  15.396  1.0817  0.9662 -0.1484
14510TIP3    H264946   4.966   6.529  15.341 -3.6067  0.8896 -0.1664
14511TIP3   OH264947   4.165   2.001  17.054  0.4312 -0.5136  0.0224
14511TIP3    H164948   4.197   2.002  16.964  0.3153  0.5624 -0.0139
14511TIP3    H264949   4.243   2.013  17.108  0.5833 -1.7459  0.1092
14512TIP3   OH264950   5.912   3.027   2.270 -0.0673  0.6943  0.1763
14512TIP3    H164951   5.929   3.001   2.179  0.2704  1.5084 -0.0075
14512TIP3    H264952   5.935   2.951   2.322  1.2870  0.7626 -0.3080
14513TIP3   OH264953   0.525   6.234  12.651  0.0153 -0.3135 -0.4779
14513TIP3    H164954   0.571   6.312  12.621 -1.3035  1.1464  1.1144
14513TIP3    H264955   0.582   6.197  12.719 -0.1661  0.2738 -0.0020
14514TIP3   OH264956   4.880   0.344  14.159  0.1650  0.2316  0.2116
14514TIP3    H164957   4.826   0.275  14.197 -0.8815  0.4640 -0.8355
14514TIP3    H264958   4.874   0.331  14.064  1.1099  0.8991  0.0464
14515TIP3   OH264959   3.545   2.031  15.729 -0.4282 -0.3878 -0.0034
14515TIP3    H164960   3.556   2.044  15.635 -0.3684  0.5549  0.1340
14515TIP3    H264961   3.453   2.052  15.746  0.0352  1.3103  0.4566
14516TIP3   OH264962   5.016   0.961  14.749  0.1167  0.5747 -0.3671
14516TIP3    H164963   5.083   0.950  14.681  1.7871  1.1913  1.1290
14516TIP3    H264964   5.031   0.888  14.809  1.0109  2.0548  1.2410
14517TIP3   OH264965   6.319   2.680  12.546  0.3625 -0.2024 -0.4881
14517TIP3    H164966   6.265   2.639  12.478 -0.6446  0.9571 -0.4038
14517TIP3    H264967   6.258   2.695  12.618  0.9531  0.5019 -0.1385
14518TIP3   OH264968   3.555   6.078   4.673  0.0147 -0.1694  0.4741
14518TIP3    H164969   3.538   5.984   4.678  1.2428 -0.4345 -0.1391
14518TIP3    H264970   3.635   6.091   4.724  0.7962  0.2748 -0.8353
14519TIP3   OH264971   6.655   5.004  15.977  0.0854 -0.6728 -0.3699
14519TIP3    H164972   6.584   5.050  15.933 -3.1207 -2.3670  2.7061
14519TIP3    H264973   6.677   5.060  16.052 -0.8885 -2.0459  0.9812
14520TIP3   OH264974   5.390   2.957   3.132  0.1507 -0.9186  0.0306
14520TIP3    H164975   5.312   2.905   3.149  0.1017 -0.2622  1.9331
14520TIP3    H264976   5.461   2.908   3.174  0.2690  0.0025  0.9162
14521TIP3   OH264977   3.542   0.507  17.103 -0.2033  0.3140  0.0924
14521TIP3    H164978   3.601   0.478  17.173  0.4166  0.1361 -0.4978
14521TIP3    H264979   3.599   0.517  17.027 -1.1300 -0.8997 -0.7715
14522TIP3   OH264980   0.462   3.407   6.370  0.4836  0.0739 -0.1332
14522TIP3    H164981   0.556   3.397   6.381  0.5209  0.6745  0.0726
14522TIP3    H264982   0.450   3.495   6.335 -0.0758  0.3402  0.7241
14523TIP3   OH264983   4.543   5.325   2.528 -0.4711 -0.0241 -0.7111
14523TIP3    H164984   4.528   5.235   2.500  0.0631  0.7907 -3.8118
14523TIP3    H264985   4.638   5.334   2.529 -0.4560 -0.0303  1.5843
14524TIP3   OH264986   2.370   6.149  12.079 -0.6032  0.4591 -0.4170
14524TIP3    H164987   2.460   6.122  12.098 -1.5321 -0.5635  2.6902
14524TIP3    H264988   2.373   6.245  12.084  0.5074  0.4892 -1.3560
14525TIP3   OH264989   1.209   5.867   5.567  0.2483  0.1397 -0.1542
14525TIP3    H164990   1.237   5.942   5.513  0.4436  0.3988  0.3019
14525TIP3    H264991   1.290   5.824   5.592  0.1551 -0.0110 -0.1109
14526TIP3   OH264992   3.755   2.191  16.469 -0.1064  0.5059  0.8504
14526TIP3    H164993   3.752   2.112  16.415  0.8215  0.2253  1.1928
14526TIP3    H264994   3.666   2.225  16.468 -0.2055  0.2098 -0.4231
14527TIP3   OH264995   2.749   5.529   0.038  0.1366 -0.0457  0.9135
14527TIP3    H164996   2.729   5.539  -0.055  0.3205 -1.0601  0.7632
14527TIP3    H264997   2.673   5.485   0.074  1.1456 -1.9675  0.7500
14528TIP3   OH264998   2.477   5.983   3.002  0.1456  0.5166 -0.4314
14528TIP3    H164999   2.510   5.965   2.914  1.6213  0.6762  0.0716
14528TIP3    H265000   2.428   6.064   2.993 -0.4774  0.0553 -1.2811
14529TIP3   OH265001   5.136   0.798  12.687 -0.0739  0.5393  0.1585
14529TIP3    H165002   5.081   0.738  12.636  0.5067  0.7376 -0.7143
14529TIP3    H265003   5.080   0.827  12.759 -1.2512  1.0837 -0.9696
14530TIP3   OH265004   5.817   3.280  14.982  1.0773 -0.0656  0.1299
14530TIP3    H165005   5.841   3.245  15.068  1.3647 -1.6794 -0.6045
14530TIP3    H265006   5.833   3.374  14.990  1.1671 -0.2081  1.8223
14531TIP3   OH265007   4.058   5.500   0.163 -0.1019 -0.2336  0.0911
14531TIP3    H165008   4.028   5.415   0.129 -1.1067 -1.2087  3.2682
14531TIP3    H265009   4.148   5.484   0.191  0.0139  0.0253 -0.1215
14532TIP3   OH265010   2.358   1.230   4.796 -0.2277 -0.3674 -0.5459
14532TIP3    H165011   2.289   1.287   4.831 -0.1505 -0.7267  0.1999
14532TIP3    H265012   2.384   1.272   4.714  0.4955  1.2119  0.4616
14533TIP3   OH265013   5.028   5.848  14.672 -0.2024  0.9612  0.2958
14533TIP3    H165014   5.008   5.853  14.765 -1.2044  0.8643  0.0945
14533TIP3    H265015   4.957   5.796  14.635 -1.3750  3.3690 -0.9626
14534TIP3   OH265016   4.549   0.515   1.844  0.2164 -0.3146 -0.0021
14534TIP3    H165017   4.472   0.522   1.900  0.0925  2.7788 -0.4459
14534TIP3    H265018   4.617   0.479   1.901 -1.0641 -1.3610  0.8935
14535TIP3   OH265019   4.118   2.587   3.542  0.1126  0.3546  0.6708
14535TIP3    H165020   4.032   2.612   3.575 -0.4275 -1.1692  0.4435
14535TIP3    H265021   4.127   2.495   3.565  1.3527  0.2941 -0.0070
14536TIP3   OH265022   2.775   3.725   3.095 -0.0120 -0.1356  0.5079
14536TIP3    H165023   2.786   3.819   3.083 -0.0991 -0.1799  0.0809
14536TIP3    H265024   2.687   3.716   3.133 -0.1707 -0.0747  0.1565
14537TIP3   OH265025   4.898   3.530  14.506  0.0058 -0.0425  0.4292
14537TIP3    H165026   4.949   3.612  14.510 -1.3922  0.8578  0.1891
14537TIP3    H265027   4.885   3.515  14.412 -1.0351  0.3007  0.5078
14538TIP3   OH265028   0.168   4.117  14.854 -0.2851 -0.4911 -0.3162
14538TIP3    H165029   0.201   4.130  14.943 -2.9829  0.6688  0.5529
14538TIP3    H265030   0.166   4.022  14.842  0.4401 -0.6425  0.7112
14539TIP3   OH265031   4.424   3.258   5.911  0.0211  0.6964 -0.1963
14539TIP3    H165032   4.496   3.284   5.969  1.1941  0.8193 -1.6668
14539TIP3    H265033   4.348   3.251   5.969  1.8412 -2.4873  1.9356
14540TIP3   OH265034   5.786   4.702  12.097  0.8007  0.0660 -0.0935
14540TIP3    H165035   5.701   4.716  12.055  0.7897 -0.3168 -0.1997
14540TIP3    H265036   5.814   4.616  12.067  0.9152 -0.0995  0.4759
14541TIP3   OH265037   0.033   4.740   0.155 -0.9053 -0.0103 -0.6709
14541TIP3    H165038  -0.052   4.708   0.125  0.1756 -0.6389 -3.2522
14541TIP3    H265039   0.079   4.763   0.074  1.7721 -0.7102  0.6131
14542TIP3   OH265040   6.430   5.451   2.172  0.4548  0.4941 -0.8061
14542TIP3    H165041   6.414   5.471   2.080 -2.3203 -0.5304 -0.5958
14542TIP3    H265042   6.517   5.412   2.174 -0.9854 -3.0515 -3.5584
14543TIP3   OH265043   1.812   6.092   2.445 -0.3975 -0.4165 -0.1036
14543TIP3    H165044   1.814   6.018   2.385 -1.3150 -0.2740 -0.3168
14543TIP3    H265045   1.856   6.163   2.398 -2.7897  0.2540 -1.3768
14544TIP3   OH265046   4.833   6.107  14.667  0.2448  0.1463 -0.0044
14544TIP3    H165047   4.860   6.054  14.592  1.2602 -1.5343  1.5166
14544TIP3    H265048   4.905   6.098  14.730 -1.4473 -0.0244  1.9378
14545TIP3   OH265049   3.193   2.962   1.083  0.7226 -0.4653  0.7595
14545TIP3    H165050   3.208   3.055   1.070  1.1184 -0.6194  0.1079
14545TIP3    H265051   3.280   2.926   1.102  0.3875 -0.4882  2.3587
14546TIP3   OH265052   2.223   1.057   4.998 -0.0718 -0.0391 -0.1415
14546TIP3    H165053   2.179   1.001   5.062  0.1057 -0.0083  0.0078
14546TIP3    H265054   2.204   1.146   5.026  0.7547 -0.0261  0.3839
14547TIP3   OH265055   3.091   0.371  13.015 -0.4340  0.1597  0.2632
14547TIP3    H165056   3.017   0.312  12.998  0.3058 -0.6943 -0.1000
14547TIP3    H265057   3.115   0.405  12.929 -0.4643  0.5023  0.3914
14548TIP3   OH265058   6.203   3.783   4.323  0.1244 -0.0430 -0.1948
14548TIP3    H165059   6.272   3.730   4.283 -1.2719 -1.8051 -0.3107
14548TIP3    H265060   6.186   3.852   4.260  1.2847 -0.0157 -0.4809
14549TIP3   OH265061   0.184   4.771  11.399  0.0502  0.4971  0.0631
14549TIP3    H165062   0.156   4.679  11.404  0.5263  0.3034 -0.6820
14549TIP3    H265063   0.109   4.816  11.360  0.7288 -0.0068 -1.8611
14550TIP3   OH265064   2.136   1.872   0.155  0.2841 -0.5512  0.2439
14550TIP3    H165065   2.131   1.966   0.139  1.9882 -0.4303  0.2680
14550TIP3    H265066   2.047   1.840   0.140 -0.7813  1.3511  2.1747
14551TIP3   OH265067   6.120   5.257  11.672  0.5046  0.7665 -0.1438
14551TIP3    H165068   6.036   5.257  11.717  0.5171  0.3202 -0.1227
14551TIP3    H265069   6.183   5.224  11.736  0.5128  0.0856 -0.4984
14552TIP3   OH265070   6.321   5.133   1.916 -0.1355 -0.2397  0.4769
14552TIP3    H165071   6.407   5.103   1.946 -0.8373 -2.6427  0.1995
14552TIP3    H265072   6.298   5.072   1.846 -0.3809  2.7482 -2.0962
14553TIP3   OH265073   2.229   0.674  15.694  0.0701  0.8328  0.4462
14553TIP3    H165074   2.151   0.693  15.641  0.5555  1.2196 -0.1403
14553TIP3    H265075   2.282   0.617  15.637 -0.2673 -0.3203  1.2558
14554TIP3   OH265076   5.853   2.919   1.184 -0.0338  0.3010  0.4576
14554TIP3    H165077   5.777   2.915   1.126  0.4564  0.3692 -0.1868
14554TIP3    H265078   5.880   3.010   1.183 -0.1982  0.3588  1.0229
14555TIP3   OH265079   6.037   2.717   1.069  0.1603  0.2454 -0.4330
14555TIP3    H165080   5.955   2.669   1.075 -0.1436  0.5765 -1.8937
14555TIP3    H265081   6.013   2.808   1.087  0.2285  0.3298 -0.7771
14556TIP3   OH265082   2.456   2.430  12.318 -0.1540 -0.1494  0.2608
14556TIP3    H165083   2.524   2.487  12.353  0.3369  0.0431 -0.9936
14556TIP3    H265084   2.503   2.352  12.288 -0.4095  0.2145 -1.1107
14557TIP3   OH265085   5.245   1.200   0.722  0.3752  0.2162 -0.2847
14557TIP3    H165086   5.334   1.214   0.755  0.8994 -1.5852 -0.9178
14557TIP3    H265087   5.216   1.120   0.766 -2.1431  2.4801  2.3834
14558TIP3   OH265088   4.795   2.252   5.699  0.0001 -0.7257  0.0559
14558TIP3    H165089   4.827   2.339   5.723 -1.9018 -0.3325  1.2211
14558TIP3    H265090   4.767   2.261   5.608 -0.6634  0.0125  0.3308
14559TIP3   OH265091   2.777   6.227  10.992  0.3878 -0.0744  0.0114
14559TIP3    H165092   2.812   6.139  11.001 -0.5367 -0.5194 -0.6515
14559TIP3    H265093   2.710   6.220  10.924  1.6627  1.5222 -1.4644
14560TIP3   OH265094   1.467   0.054   2.656  0.2083 -0.1574  0.5368
14560TIP3    H165095   1.460   0.042   2.561  0.8840  0.9882  0.3330
14560TIP3    H265096   1.393   0.005   2.692 -1.3643  1.2330 -0.7308
14561TIP3   OH265097   1.584   6.363  13.743  1.2865  0.6260 -0.3192
14561TIP3    H165098   1.641   6.435  13.770  1.8954 -0.0012  0.1068
14561TIP3    H265099   1.496   6.390  13.769  1.5278  1.1555 -0.0483
14562TIP3   OH265100   5.740   1.489   0.884  0.0603  0.1504 -0.1136
14562TIP3    H165101   5.719   1.432   0.958  0.3267  0.8078  0.4711
14562TIP3    H265102   5.741   1.430   0.809 -0.5773 -0.4581  0.3464
14563TIP3   OH265103   5.801   1.442  13.656  0.2870 -0.0991 -0.1326
14563TIP3    H165104   5.737   1.376  13.684 -0.5677  0.7123 -0.1586
14563TIP3    H265105   5.762   1.526  13.682  1.1019  0.4346 -0.6118
14564TIP3   OH265106   6.407   6.377   0.885 -0.0549  0.2726 -0.1045
14564TIP3    H165107   6.439   6.467   0.880 -0.3531  0.3436 -0.8021
14564TIP3    H265108   6.381   6.356   0.796 -1.5450  0.0714  0.3601
14565TIP3   OH265109   4.110   1.406  11.808 -0.1206  0.4818  0.0298
14565TIP3    H165110   4.156   1.486  11.785 -0.6978  0.7468 -0.2226
14565TIP3    H265111   4.136   1.343  11.741  0.8277  0.2691  0.5895
14566TIP3   OH265112   4.910   6.557  13.608 -0.6552  0.0016  0.3433
14566TIP3    H165113   4.977   6.607  13.655  0.4566  0.8344 -2.0669
14566TIP3    H265114   4.958   6.487  13.564 -1.6559 -0.6305  0.2378
14567TIP3   OH265115   6.120   0.573  16.308 -0.1266 -0.1844 -0.2390
14567TIP3    H165116   6.172   0.653  16.311  0.0843 -0.2715 -1.2377
14567TIP3    H265117   6.184   0.502  16.313 -0.2539 -0.2909 -0.1075
14568TIP3   OH265118   6.616   4.851   1.350  1.1025  0.1565 -0.7020
14568TIP3    H165119   6.624   4.776   1.409 -1.5574 -1.2007 -1.9599
14568TIP3    H265120   6.636   4.927   1.404 -2.1239 -0.9529  2.2656
14569TIP3   OH265121   4.822   5.593   2.927  0.5656 -0.2744  0.9519
14569TIP3    H165122   4.812   5.679   2.887 -0.4367 -0.9270 -0.2334
14569TIP3    H265123   4.896   5.553   2.881 -1.8116 -1.7929 -1.7134
14570TIP3   OH265124   2.314   3.704   4.653  0.3117  0.0615  0.1965
14570TIP3    H165125   2.361   3.782   4.624 -0.9012  0.4511 -0.7638
14570TIP3    H265126   2.247   3.738   4.713 -0.7912 -0.1304 -0.9091
14571TIP3   OH265127   3.290   5.698   5.154 -0.0893  0.0345 -0.1409
14571TIP3    H165128   3.224   5.668   5.216  0.1830 -0.1188  0.0778
14571TIP3    H265129   3.280   5.640   5.078  0.9483 -1.1263  0.5868
14572TIP3   OH265130   3.090   6.047   6.589  0.3560 -0.3151 -0.2358
14572TIP3    H165131   3.067   5.966   6.635  1.3022  0.3568  1.4295
14572TIP3    H265132   3.012   6.102   6.597  0.0387 -0.7108 -0.5926
14573TIP3   OH265133   5.131   5.821   0.202  0.5403  0.1841 -0.1249
14573TIP3    H165134   5.206   5.879   0.187  2.1039 -1.8134 -0.2506
14573TIP3    H265135   5.133   5.801   0.295 -0.5808  1.0791  0.1058
14574TIP3   OH265136   3.693   5.323   2.775 -0.3974 -0.5189 -0.4001
14574TIP3    H165137   3.676   5.243   2.725 -0.4965 -2.4592  2.6160
14574TIP3    H265138   3.659   5.305   2.863 -0.6916  2.9598  0.3049
14575TIP3   OH265139   1.704   3.077   5.441 -0.3176 -0.3172  0.0570
14575TIP3    H165140   1.758   3.153   5.421 -0.4483 -0.3903 -0.5821
14575TIP3    H265141   1.764   3.003   5.434 -0.8006 -0.5338 -2.0162
14576TIP3   OH265142   5.987   4.929   4.230  0.1817 -0.1898 -0.3108
14576TIP3    H165143   6.008   4.836   4.224 -0.2392 -0.3614  0.7389
14576TIP3    H265144   6.023   4.956   4.315 -0.6955  0.3356 -0.0979
14577TIP3   OH265145   0.376   1.752  11.788  0.0938 -0.5573 -0.0016
14577TIP3    H165146   0.434   1.699  11.733  1.9230  1.0558  0.3030
14577TIP3    H265147   0.435   1.795  11.850 -1.4050  1.3451  0.1505
14578TIP3   OH265148   6.653   0.022  15.176  0.4374  0.1422 -0.3014
14578TIP3    H165149   6.734   0.053  15.215  0.2314 -1.9514  1.9329
14578TIP3    H265150   6.584   0.066  15.225  0.1874  0.4895 -0.9506
14579TIP3   OH265151   6.153   2.997  12.323 -0.5658  0.4760  0.2829
14579TIP3    H165152   6.133   3.036  12.238  1.4125 -1.0808 -0.9506
14579TIP3    H265153   6.249   2.999  12.328 -0.4558 -2.7065  0.8560
14580TIP3   OH265154   2.947   0.331   4.567  0.3170  0.3216 -0.5099
14580TIP3    H165155   2.883   0.259   4.570  1.1625 -0.4314 -0.3114
14580TIP3    H265156   2.897   0.408   4.593 -0.3654 -0.3765  0.2786
14581TIP3   OH265157   2.620   5.953   1.602  0.2496  0.0111  0.0080
14581TIP3    H165158   2.573   6.000   1.671 -1.5827 -2.5481  0.5749
14581TIP3    H265159   2.646   5.871   1.643  4.7054  1.0188 -0.5249
14582TIP3   OH265160   4.150   4.330  10.766 -0.2303 -0.0858 -0.0724
14582TIP3    H165161   4.103   4.360  10.689 -1.1631  0.0868  0.5510
14582TIP3    H265162   4.190   4.409  10.803 -1.3403  0.1511  0.6588
14583TIP3   OH265163   1.161   3.035  16.378 -0.1465 -0.2709  0.0611
14583TIP3    H165164   1.191   2.995  16.460  0.5736  1.7228  0.8094
14583TIP3    H265165   1.206   3.120  16.375 -0.9511  0.1154 -1.9027
14584TIP3   OH265166   2.426   2.923  13.580  0.2853 -0.0518  0.2842
14584TIP3    H165167   2.342   2.932  13.536  0.5639  0.1083 -0.2128
14584TIP3    H265168   2.491   2.934  13.511  0.7028 -1.6004  0.4143
14585TIP3   OH265169   2.777   3.005  15.376  0.0434 -0.1965 -0.2036
14585TIP3    H165170   2.706   3.018  15.439  1.0472  0.3023  0.8594
14585TIP3    H265171   2.749   3.053  15.298 -1.8327 -1.9336 -0.6406
14586TIP3   OH265172   6.598   0.190   1.936 -0.0049  0.0560  0.6161
14586TIP3    H165173   6.604   0.228   2.024  2.2586  3.6143 -0.9893
14586TIP3    H265174   6.679   0.216   1.892 -1.1222 -1.5560 -2.5628
14587TIP3   OH265175   5.425   0.221  14.291  0.1080  0.1948 -0.1786
14587TIP3    H165176   5.348   0.275  14.276  0.4974  1.2430  1.4961
14587TIP3    H265177   5.401   0.166  14.366  0.3056 -0.7997 -0.8421
14588TIP3   OH265178   2.897   0.392  15.804  0.3164  0.1247 -0.3018
14588TIP3    H165179   2.836   0.330  15.763  0.3290 -0.2071  0.1797
14588TIP3    H265180   2.842   0.445  15.861  0.2073  0.9720 -1.1801
14589TIP3   OH265181   4.639   2.658  10.595  0.3361  0.0026 -0.2657
14589TIP3    H165182   4.723   2.625  10.564  0.0942  0.6792 -1.6896
14589TIP3    H265183   4.638   2.750  10.568 -0.9688 -0.0685 -0.4887
14590TIP3   OH265184   1.626   4.009   1.626  0.5116 -0.4213 -0.2616
14590TIP3    H165185   1.576   4.058   1.691  1.7615  1.6975 -0.8743
14590TIP3    H265186   1.666   4.075   1.570  1.3849 -2.1572 -1.7687
14591TIP3   OH265187   6.238   2.378  11.879 -0.3050 -0.1552 -0.7498
14591TIP3    H165188   6.145   2.397  11.867 -0.3970  0.2486  0.4515
14591TIP3    H265189   6.259   2.418  11.964  0.6877 -1.2450 -0.4690
14592TIP3   OH265190   2.964   4.212  12.987  0.1217  0.3356 -0.2086
14592TIP3    H165191   2.875   4.245  12.974 -0.8736 -1.8324  0.8296
14592TIP3    H265192   2.971   4.136  12.930  2.7806  2.8451 -3.4368
14593TIP3   OH265193   3.420   0.428   1.931  0.4497  0.7379 -0.0377
14593TIP3    H165194   3.509   0.454   1.906  1.1816 -1.4582  0.2464
14593TIP3    H265195   3.374   0.511   1.946  2.4480  1.8814 -0.1625
14594TIP3   OH265196   4.737   1.794   5.887 -0.2130 -0.6085  0.5170
14594TIP3    H165197   4.650   1.769   5.856  0.1658 -1.7563  0.3256
14594TIP3    H265198   4.782   1.710   5.901 -0.0592 -0.1197  3.3022
14595TIP3   OH265199   4.046   1.968  13.776  0.0747  0.1794  0.2347
14595TIP3    H165200   3.991   2.023  13.832 -0.9505  0.4531 -1.0208
14595TIP3    H265201   4.011   1.880  13.787  0.1581  0.1620  0.3627
14596TIP3   OH265202   3.494   2.736  13.612  0.1897 -0.2390  0.9233
14596TIP3    H165203   3.439   2.701  13.543 -0.8873  0.1118  1.5891
14596TIP3    H265204   3.516   2.660  13.667 -1.5419 -0.0220  1.9543
14597TIP3   OH265205   5.782   1.140   6.224  0.3391 -0.6751  0.3904
14597TIP3    H165206   5.702   1.087   6.217  1.2273 -1.9335 -0.4484
14597TIP3    H265207   5.815   1.119   6.311 -1.6050  1.8767  1.8323
14598TIP3   OH265208   1.435   1.842  14.464  0.0590 -0.0911 -0.5545
14598TIP3    H165209   1.476   1.906  14.523 -0.8507  0.8678 -0.9540
14598TIP3    H265210   1.407   1.771  14.523  2.9519 -1.1646 -0.3564
14599TIP3   OH265211   3.281   2.149  12.515 -0.2506  0.1286  0.5114
14599TIP3    H165212   3.337   2.226  12.518 -1.3474  0.9822 -0.4558
14599TIP3    H265213   3.244   2.149  12.427  0.0272 -1.7255  0.3637
14600TIP3   OH265214   5.901   1.390  17.082 -0.1380  0.1611 -0.4093
14600TIP3    H165215   5.825   1.420  17.132  0.1410  2.4786 -1.3416
14600TIP3    H265216   5.908   1.297  17.104 -1.8120  0.4462  1.5254
14601TIP3   OH265217   2.763   1.401   1.263  0.5466  0.3048  0.0204
14601TIP3    H165218   2.836   1.372   1.209  0.0138 -1.6234  0.3214
14601TIP3    H265219   2.725   1.321   1.298 -1.3544  1.3087  0.3471
14602TIP3   OH265220   1.148   2.916   2.340  0.2538  0.1723 -0.7752
14602TIP3    H165221   1.203   2.940   2.266  0.4620 -1.9435 -1.3263
14602TIP3    H265222   1.164   2.823   2.354 -0.7660  0.2354  1.1052
14603TIP3   OH265223   0.087   3.613   5.382 -0.4749 -0.2356  0.6574
14603TIP3    H165224   0.099   3.650   5.469  0.4691  0.3033  0.3030
14603TIP3    H265225   0.100   3.519   5.394  1.7905  0.0621  0.7283
14604TIP3   OH265226   6.144   1.415  10.912 -0.2427 -0.2861  0.6315
14604TIP3    H165227   6.144   1.319  10.917  0.2035 -0.3701 -0.8128
14604TIP3    H265228   6.170   1.434  10.822  0.9399  1.2093  1.2735
14605TIP3   OH265229   0.917   0.780   1.528  0.3475 -0.0597  0.0431
14605TIP3    H165230   1.013   0.775   1.522  0.2532  0.1995 -1.7987
14605TIP3    H265231   0.902   0.850   1.592  1.3831  0.7551 -0.5769
14606TIP3   OH265232   4.075   6.396  16.925 -0.4562  0.3133  0.2186
14606TIP3    H165233   4.018   6.473  16.928 -0.2395  0.4493  0.8047
14606TIP3    H265234   4.047   6.343  16.999  0.7841  0.8133  1.0582
14607TIP3   OH265235   2.016   5.350  11.949  0.3778  0.4083  0.0984
14607TIP3    H165236   1.959   5.352  12.026 -1.0691 -0.0721 -0.9249
14607TIP3    H265237   2.015   5.258  11.922  0.1717  0.7233 -0.9879
14608TIP3   OH265238   0.841   3.373  13.857 -0.0007  0.0153 -0.4193
14608TIP3    H165239   0.935   3.384  13.870 -0.0416  1.0038 -0.9338
14608TIP3    H265240   0.834   3.322  13.776  0.0559  2.4955 -2.0539
14609TIP3   OH265241   0.653   1.241   6.380  0.1941 -0.1438  0.6840
14609TIP3    H165242   0.687   1.176   6.441  0.3590 -2.3308 -1.6493
14609TIP3    H265243   0.714   1.239   6.306 -1.9690 -0.2003 -1.1541
14610TIP3   OH265244   5.203   2.652  14.127 -0.5456 -0.3851  0.3634
14610TIP3    H165245   5.220   2.733  14.176  0.2484 -0.7270  0.6665
14610TIP3    H265246   5.226   2.582  14.189 -0.5818 -0.8317 -0.1287
14611TIP3   OH265247   0.643   1.201   1.563  0.7232 -0.7004 -0.4067
14611TIP3    H165248   0.648   1.292   1.536 -1.1888 -0.7183 -0.8315
14611TIP3    H265249   0.703   1.155   1.503  2.6102  0.4045  0.5700
14612TIP3   OH265250   0.316   2.249  16.809  0.2054  0.1220 -0.8620
14612TIP3    H165251   0.367   2.168  16.818 -2.1983 -1.3350  0.0912
14612TIP3    H265252   0.264   2.253  16.889 -1.4259  1.3796 -1.9654
14613TIP3   OH265253   4.833   1.918  13.919  0.2922  0.2077  0.4398
14613TIP3    H165254   4.860   2.003  13.882 -0.0224 -0.2119 -0.7651
14613TIP3    H265255   4.760   1.940  13.977  0.2003  0.7570  0.1231
14614TIP3   OH265256   3.485   3.121   1.714  0.2518 -0.3981 -0.2551
14614TIP3    H165257   3.487   3.039   1.664 -1.8201 -0.7389  0.1789
14614TIP3    H265258   3.452   3.096   1.800  0.4519  0.7599  0.1632
14615TIP3   OH265259   5.462   3.074  13.889  0.0076  0.5524 -0.0162
14615TIP3    H165260   5.477   2.988  13.930  0.7037  0.4956 -0.3881
14615TIP3    H265261   5.550   3.105  13.866 -0.4578  0.1128 -2.4501
14616TIP3   OH265262   2.202   2.531  16.218 -0.1289  0.3263 -0.6905
14616TIP3    H165263   2.151   2.475  16.160  1.2576  0.5762 -2.1644
14616TIP3    H265264   2.150   2.611  16.227 -0.0664  0.5228 -2.0617
14617TIP3   OH265265   4.300   2.590  10.108  0.2129  0.2731 -0.3185
14617TIP3    H165266   4.310   2.495  10.108 -0.9087  0.1489 -0.0922
14617TIP3    H265267   4.366   2.621  10.046 -0.9608 -0.8384 -2.1843
14618TIP3   OH265268   1.554   1.831  14.817  0.0503  0.0196  0.4973
14618TIP3    H165269   1.625   1.798  14.873 -0.4718 -0.7595  0.7037
14618TIP3    H265270   1.556   1.925  14.830 -1.6125 -0.3078  3.7093
14619TIP3   OH265271   4.325   2.110  14.001 -0.1864  0.3161 -0.0529
14619TIP3    H165272   4.253   2.084  13.943  0.2197  2.9218 -1.8244
14619TIP3    H265273   4.282   2.142  14.080 -0.8178 -1.1536  0.2306
14620TIP3   OH265274   1.802   5.651  16.743 -0.1860  0.0467  0.7931
14620TIP3    H165275   1.806   5.566  16.700 -1.3627  2.3906 -4.2566
14620TIP3    H265276   1.710   5.665  16.761 -0.3114  1.2651 -0.6852
14621TIP3   OH265277   3.404   5.169  14.973 -0.1997  0.5334 -0.0660
14621TIP3    H165278   3.357   5.180  14.890 -1.3687 -0.9280  0.3932
14621TIP3    H265279   3.479   5.113  14.951 -0.3558  0.3731 -0.1922
14622TIP3   OH265280   3.877   3.713  11.935 -0.4348  0.0134 -0.1543
14622TIP3    H165281   3.939   3.649  11.971 -0.3933 -0.4799 -1.0963
14622TIP3    H265282   3.815   3.660  11.886 -0.5499  0.6788 -0.7262
14623TIP3   OH265283   0.491   1.870  12.433  0.8528  0.1941  0.4560
14623TIP3    H165284   0.445   1.800  12.387 -3.2662  3.0011  0.0069
14623TIP3    H265285   0.569   1.887  12.379 -0.2144 -1.2791 -1.6197
14624TIP3   OH265286   3.063   2.284   6.509  0.0069  0.0576  0.1028
14624TIP3    H165287   3.003   2.236   6.566  0.3397  0.5779  0.9070
14624TIP3    H265288   3.008   2.349   6.465 -0.5946 -1.5892 -1.6203
14625TIP3   OH265289   4.366   2.704   3.019 -0.5494 -0.2726  0.1153
14625TIP3    H165290   4.390   2.671   3.106  1.7095 -0.0829 -0.4015
14625TIP3    H265291   4.394   2.636   2.959 -1.5593 -0.1304 -0.5301
14626TIP3   OH265292   1.039   2.329   3.623  0.0170 -0.4532 -0.0427
14626TIP3    H165293   1.095   2.254   3.644 -0.0454 -1.2596 -2.5851
14626TIP3    H265294   0.951   2.291   3.612 -0.7638  0.5812  2.4145
14627TIP3   OH265295   1.991   4.790  16.208 -0.5266 -0.3370 -0.1799
14627TIP3    H165296   1.978   4.700  16.178 -1.6186 -0.8765  1.8509
14627TIP3    H265297   2.022   4.837  16.130 -2.0609 -1.9855 -1.8412
14628TIP3   OH265298   3.518   4.021  13.540 -0.3951 -0.3756 -0.1371
14628TIP3    H165299   3.544   4.111  13.557  0.6750 -0.5697 -0.7183
14628TIP3    H265300   3.450   4.028  13.473 -0.9388  0.0520  0.4586
14629TIP3   OH265301   3.757   0.464  11.813 -0.3642 -0.2048  0.7229
14629TIP3    H165302   3.828   0.432  11.869 -0.7274  1.4835  2.1938
14629TIP3    H265303   3.687   0.488  11.874 -2.6355 -2.7666 -0.7448
14630TIP3   OH265304   0.737   1.216  13.042 -0.4206  0.2509  0.5831
14630TIP3    H165305   0.724   1.282  13.110  0.8950  2.0772 -0.8853
14630TIP3    H265306   0.650   1.180  13.027 -0.9054  0.5914  2.4547
14631TIP3   OH265307   3.333   0.790   2.553  0.0636 -0.6360 -0.2709
14631TIP3    H165308   3.293   0.839   2.625 -0.7168  0.1262 -1.2238
14631TIP3    H265309   3.404   0.847   2.522  0.0608 -0.7313 -0.4508
14632TIP3   OH265310   6.119   2.834   2.393  0.2805 -0.2213  0.7063
14632TIP3    H165311   6.109   2.753   2.343  0.6294 -0.1665  0.5388
14632TIP3    H265312   6.150   2.898   2.328  1.9208 -0.4535  1.2318
14633TIP3   OH265313   4.094   1.854   0.956 -0.7703  0.0889 -0.5575
14633TIP3    H165314   4.173   1.803   0.972 -1.0859 -0.2724 -0.1486
14633TIP3    H265315   4.025   1.807   1.002 -1.0019  1.0650  0.1089
14634TIP3   OH265316   1.339   0.937   5.493 -0.1345  0.1556 -0.0922
14634TIP3    H165317   1.296   0.908   5.574 -0.5391 -0.1679 -0.4178
14634TIP3    H265318   1.432   0.935   5.514 -0.2777  1.0888  0.6975
14635TIP3   OH265319   1.906   5.817   4.881  0.1517  0.3327  0.0786
14635TIP3    H165320   1.828   5.776   4.919  0.8413  0.0280  1.1807
14635TIP3    H265321   1.969   5.745   4.873  0.3800  0.6128 -0.6513
14636TIP3   OH265322   4.952   0.415  13.322  0.2209 -0.3620  0.0712
14636TIP3    H165323   4.982   0.496  13.362  2.0479 -0.5568 -0.8591
14636TIP3    H265324   4.929   0.359  13.396  1.3698  0.1103  0.8054
14637TIP3   OH265325   4.288   4.951   5.671  0.2316  0.5399  0.2145
14637TIP3    H165326   4.346   4.964   5.746  1.7646  2.5095 -1.2557
14637TIP3    H265327   4.344   4.916   5.602 -1.8030 -4.2515  0.8617
14638TIP3   OH265328   1.789   0.300   5.152 -0.0921  0.0738 -0.7494
14638TIP3    H165329   1.716   0.352   5.186 -1.7211 -2.7384  0.1727
14638TIP3    H265330   1.750   0.245   5.084  1.3398 -0.9370 -0.7726
14639TIP3   OH265331   3.572   4.068   1.327  0.2551  0.1688 -0.0017
14639TIP3    H165332   3.638   4.095   1.263  0.1403 -2.3359 -1.2360
14639TIP3    H265333   3.622   4.025   1.397  0.1710  0.8816  0.5077
14640TIP3   OH265334   2.238   2.699   0.415 -0.1159  0.0081 -0.2928
14640TIP3    H165335   2.323   2.737   0.392 -1.1648  0.9194 -2.7579
14640TIP3    H265336   2.241   2.610   0.381  0.1670 -0.2703  0.4346
14641TIP3   OH265337   3.581   1.793   0.598 -0.1265  0.2248 -0.4742
14641TIP3    H165338   3.512   1.756   0.542 -0.4726 -1.2074  0.8459
14641TIP3    H265339   3.656   1.804   0.539 -0.5911 -0.9150 -1.3077
14642TIP3   OH265340   6.665   5.987  15.119 -0.0476  0.7057  0.3921
14642TIP3    H165341   6.612   6.062  15.146  0.2602  0.0396  2.8976
14642TIP3    H265342   6.751   6.025  15.097 -0.5780  1.3627 -0.5943
14643TIP3   OH265343   6.664   1.798   0.282 -0.0324 -0.0962 -0.1380
14643TIP3    H165344   6.747   1.754   0.265  0.4647  1.5992 -2.3429
14643TIP3    H265345   6.622   1.745   0.350  2.9195 -0.8642  1.1688
14644TIP3   OH265346   0.844   3.912   5.076  0.8030  0.0522 -0.1571
14644TIP3    H165347   0.855   3.997   5.118 -0.1047  0.7800 -1.3764
14644TIP3    H265348   0.896   3.918   4.995 -1.5023  0.4616 -1.6467
14645TIP3   OH265349   6.044   3.004   1.421 -0.3232 -0.2010  0.1415
14645TIP3    H165350   6.027   2.963   1.506 -0.1400 -1.3356 -0.3623
14645TIP3    H265351   6.047   3.097   1.441  4.1194 -0.6723  2.1655
14646TIP3   OH265352   1.179   3.552  17.221 -0.2612  0.3955 -0.2785
14646TIP3    H165353   1.211   3.525  17.307  0.0525  1.8096  0.0598
14646TIP3    H265354   1.089   3.521  17.219 -0.9679  2.2031  1.4361
14647TIP3   OH265355   2.877   4.013  11.136  0.0280 -0.2518 -0.1554
14647TIP3    H165356   2.879   4.086  11.075  2.1302  0.0509  0.2199
14647TIP3    H265357   2.874   4.053  11.222  0.3601 -0.6041  0.0250
14648TIP3   OH265358   0.658   1.802  13.379  0.3554  0.5427  0.0189
14648TIP3    H165359   0.684   1.711  13.390  1.1062  0.7693  0.2036
14648TIP3    H265360   0.641   1.833  13.468  2.3759  1.2188  0.2076
14649TIP3   OH265361   3.932   1.621   4.199 -0.0797  0.4187  0.0882
14649TIP3    H165362   3.931   1.574   4.116 -2.1303  1.1480 -0.3343
14649TIP3    H265363   3.861   1.685   4.191  0.9265  1.7814  1.6744
14650TIP3   OH265364   3.751   4.535  10.982 -0.1915  0.4153 -0.1089
14650TIP3    H165365   3.800   4.613  10.955  2.9827 -1.1095  0.9797
14650TIP3    H265366   3.763   4.473  10.911 -0.1546 -0.1217  0.3595
14651TIP3   OH265367   5.068   3.387  12.313  0.1409 -0.0146  0.0820
14651TIP3    H165368   5.134   3.374  12.381  1.9579 -0.2673 -1.6723
14651TIP3    H265369   5.064   3.482  12.302 -1.7544  0.1560  2.0356
14652TIP3   OH265370   0.038   0.421   0.150  0.0732  0.6428  0.0581
14652TIP3    H165371   0.043   0.326   0.140 -0.4683  0.7940 -1.8387
14652TIP3    H265372  -0.011   0.434   0.231 -0.2286 -0.6859  0.1043
14653TIP3   OH265373   2.471   2.434   1.658  0.0034  0.0420 -0.0343
14653TIP3    H165374   2.523   2.357   1.681 -0.9399 -0.3661  0.7357
14653TIP3    H265375   2.387   2.421   1.702 -0.7417  0.7240 -1.2353
14654TIP3   OH265376   1.474   5.113  11.813  0.9024  0.3588 -0.3035
14654TIP3    H165377   1.521   5.067  11.883  0.2996 -0.0621 -0.1708
14654TIP3    H265378   1.539   5.127  11.745  1.0091 -1.0211 -0.4993
14655TIP3   OH265379   0.126   0.685   0.073  0.3806  0.2792  0.1611
14655TIP3    H165380   0.116   0.591   0.090  1.7064  0.1005 -0.0125
14655TIP3    H265381   0.040   0.722   0.091 -0.2771 -1.0403 -0.2227
14656TIP3   OH265382   2.712   2.341  16.230  0.5398 -0.2981  0.3272
14656TIP3    H165383   2.727   2.251  16.199  0.7902 -0.3445  0.5816
14656TIP3    H265384   2.756   2.345  16.315  1.7389  0.4770 -0.3102
14657TIP3   OH265385   0.147   3.729  12.717 -0.3666  0.3723 -0.7403
14657TIP3    H165386   0.219   3.667  12.702 -0.3180 -0.1085  1.3607
14657TIP3    H265387   0.167   3.768  12.802 -1.3015  2.0481 -1.2720
14658TIP3   OH265388   2.149   6.521   1.457  0.2112  0.2679 -0.2785
14658TIP3    H165389   2.120   6.430   1.453  1.2266 -0.1265  1.0192
14658TIP3    H265390   2.073   6.571   1.428 -0.6193 -0.9499 -0.2617
14659TIP3   OH265391   6.322   0.122   5.525 -0.6311 -0.2390  0.0921
14659TIP3    H165392   6.295   0.151   5.612 -1.3431  0.2622 -0.2838
14659TIP3    H265393   6.407   0.164   5.511 -1.1795  0.8549 -0.0236
14660TIP3   OH265394   6.772   3.864  15.605 -0.3661  0.0914  0.4435
14660TIP3    H165395   6.785   3.902  15.519 -0.6869 -2.2627 -0.6874
14660TIP3    H265396   6.825   3.784  15.605 -1.4082 -0.6407  1.9166
14661TIP3   OH265397   2.457   2.506   5.164  0.0408  0.2435 -0.4494
14661TIP3    H165398   2.415   2.521   5.079 -2.2768 -2.0172  0.2404
14661TIP3    H265399   2.408   2.562   5.225 -0.7959 -0.9893  0.0292
14662TIP3   OH265400   2.849   5.459   2.617  0.0305  0.5414 -0.6742
14662TIP3    H165401   2.887   5.521   2.680  0.4690  0.8661 -1.2586
14662TIP3    H265402   2.919   5.396   2.599 -0.1111  0.4206 -0.8026
14663TIP3   OH265403   3.967   2.854   0.221 -0.2118 -0.3906 -0.4676
14663TIP3    H165404   4.029   2.926   0.216  0.8533 -1.2546  0.1338
14663TIP3    H265405   3.881   2.896   0.232  0.2621  0.7994 -1.2530
14664TIP3   OH265406   5.461   4.576   0.184 -0.1839  0.3243 -0.4048
14664TIP3    H165407   5.458   4.516   0.259 -0.3898  0.7787 -0.0459
14664TIP3    H265408   5.536   4.632   0.202  1.5145 -1.3922 -1.9512
14665TIP3   OH265409   5.989   3.469   0.870 -0.4067  0.3207 -0.0750
14665TIP3    H165410   6.043   3.400   0.908 -1.8200 -0.0145  1.3840
14665TIP3    H265411   6.017   3.549   0.913  1.7497  0.8197 -2.3048
14666TIP3   OH265412   5.825   0.572   4.048 -0.5168 -0.1190 -0.2704
14666TIP3    H165413   5.797   0.563   4.139 -0.4877 -1.3740 -0.3801
14666TIP3    H265414   5.897   0.510   4.038 -1.4195 -0.9941 -1.5252
14667TIP3   OH265415   5.015   4.504  16.592 -0.0073  0.1508 -0.4729
14667TIP3    H165416   5.096   4.479  16.546  1.0151  0.3955  1.1507
14667TIP3    H265417   4.952   4.437  16.567  1.5461 -1.7746  0.6222
14668TIP3   OH265418   1.521   5.211  15.241 -0.5645 -0.3043  0.0137
14668TIP3    H165419   1.537   5.140  15.178  0.0550 -0.5037  0.3872
14668TIP3    H265420   1.607   5.251  15.254 -1.2717  1.9073 -1.8278
14669TIP3   OH265421   1.749   4.499  13.615  0.0639  0.0206 -0.4714
14669TIP3    H165422   1.825   4.499  13.673 -1.9627  1.0687  2.2584
14669TIP3    H265423   1.729   4.406  13.602  0.5211 -0.2332  0.5813
14670TIP3   OH265424   4.482   2.938   5.969 -0.2070  0.0553 -0.0323
14670TIP3    H165425   4.534   2.872   6.016 -1.2862 -1.0817 -0.4241
14670TIP3    H265426   4.413   2.963   6.030 -1.1785 -0.8879 -0.7322
14671TIP3   OH265427   6.336   6.372  11.881 -0.3798  0.4050 -0.3996
14671TIP3    H165428   6.395   6.299  11.867 -1.0816 -0.7392  2.2109
14671TIP3    H265429   6.254   6.345  11.839  0.0927  0.7970 -1.6007
14672TIP3   OH265430   5.889   2.886   0.451  0.3651  0.0280 -0.3884
14672TIP3    H165431   5.977   2.916   0.470  0.6144  0.3777 -2.0395
14672TIP3    H265432   5.868   2.826   0.523  2.3069 -0.8024 -0.4883
14673TIP3   OH265433   0.282   5.598  14.792  0.6079 -0.5071  0.4598
14673TIP3    H165434   0.218   5.624  14.859  0.5796  1.1796 -0.2066
14673TIP3    H265435   0.250   5.513  14.760  0.8227 -1.5225  2.8305
14674TIP3   OH265436   6.284   3.171   4.327 -0.3676  0.4482 -0.2947
14674TIP3    H165437   6.193   3.145   4.314 -0.1519 -0.8024  0.5394
14674TIP3    H265438   6.292   3.178   4.423  0.5228  0.1469 -0.3521
14675TIP3   OH265439   6.744   1.141  11.927 -0.0161 -0.4380 -0.1610
14675TIP3    H165440   6.815   1.097  11.879  0.7639 -0.7289  1.2380
14675TIP3    H265441   6.725   1.082  12.000 -0.2227  0.6857  0.7007
14676TIP3   OH265442   1.744   4.715   4.613  0.1702  0.7674  0.4736
14676TIP3    H165443   1.825   4.669   4.594 -0.9900 -0.8138 -0.7331
14676TIP3    H265444   1.683   4.647   4.642 -1.4496  1.5646 -0.9785
14677TIP3   OH265445   0.790   2.177  12.040 -0.0494  0.0214 -0.0313
14677TIP3    H165446   0.800   2.272  12.030 -0.4377  0.0439 -0.2459
14677TIP3    H265447   0.863   2.140  11.990  0.4241  0.2174  0.5167
14678TIP3   OH265448   0.616   4.986  15.014  0.4083  0.0482  0.0927
14678TIP3    H165449   0.618   5.069  14.965 -1.2764  0.4442  0.6822
14678TIP3    H265450   0.676   4.929  14.965  1.0379  1.3725 -0.7400
14679TIP3   OH265451   0.126   0.105  15.262  0.3456  0.0974  0.0872
14679TIP3    H165452   0.127   0.197  15.288 -0.8774 -0.2296  1.3614
14679TIP3    H265453   0.147   0.057  15.342 -0.6048 -0.7989 -0.1892
14680TIP3   OH265454   3.301   4.751   2.905  0.9933 -0.5869 -0.0593
14680TIP3    H165455   3.353   4.687   2.955  3.8851  1.7445  0.0479
14680TIP3    H265456   3.283   4.708   2.822  0.5118 -2.5926  1.0633
14681TIP3   OH265457   5.577   3.085  14.252 -0.3602  0.2502 -0.2637
14681TIP3    H165458   5.641   3.074  14.323  0.1879 -0.7515 -0.9009
14681TIP3    H265459   5.492   3.089  14.296  0.1303  1.6589  0.5952
14682TIP3   OH265460   2.390   2.106   0.339  0.1226  0.5289  0.3477
14682TIP3    H165461   2.373   2.099   0.245 -0.0310  1.9925  0.2578
14682TIP3    H265462   2.355   2.024   0.376 -1.4647  0.7462 -0.6241
14683TIP3   OH265463   3.169   3.038  11.472  0.0427 -0.0105  0.3863
14683TIP3    H165464   3.205   3.022  11.559 -1.6115 -1.9456  0.7427
14683TIP3    H265465   3.222   2.984  11.414 -1.0633 -1.4044  0.6620
14684TIP3   OH265466   1.830   0.181   3.272  0.2323  0.0135 -0.5702
14684TIP3    H165467   1.875   0.259   3.304  0.9124 -0.3492 -0.6306
14684TIP3    H265468   1.742   0.187   3.309  1.1017 -0.5928  1.7192
14685TIP3   OH265469   3.190   3.161  14.901  0.1187  0.2241  0.2389
14685TIP3    H165470   3.220   3.250  14.919 -1.0999  0.5431  0.6801
14685TIP3    H265471   3.237   3.137  14.821  0.5881  1.1989  0.2091
14686TIP3   OH265472   5.727   2.993   5.922 -0.0845  0.3304 -0.2861
14686TIP3    H165473   5.772   2.911   5.943  0.9468  0.6601 -1.2135
14686TIP3    H265474   5.650   2.992   5.979  0.6466 -0.6222  0.7194
14687TIP3   OH265475   4.633   2.407  16.573 -0.4415  0.6894  0.1906
14687TIP3    H165476   4.599   2.455  16.649  0.5142  0.4369  0.7848
14687TIP3    H265477   4.701   2.350  16.609  1.1122  1.7049 -1.0717
14688TIP3   OH265478   6.135   0.465  11.868  0.0246 -0.3863  0.0987
14688TIP3    H165479   6.172   0.379  11.888 -0.7860 -0.4762  1.2689
14688TIP3    H265480   6.104   0.498  11.953  1.7202  1.7328 -0.0677
14689TIP3   OH265481   0.741   2.443   0.876  0.2375  0.2036  0.0639
14689TIP3    H165482   0.763   2.455   0.968  1.6385  0.2548 -0.2566
14689TIP3    H265483   0.646   2.450   0.872  0.0775 -0.9588  1.6737
14690TIP3   OH265484   6.413   6.089  16.262  0.3495 -0.4844  0.4330
14690TIP3    H165485   6.425   6.128  16.175 -0.3130  1.6497  1.2624
14690TIP3    H265486   6.333   6.038  16.254  0.6422 -0.8241 -0.3942
14691TIP3   OH265487   5.035   6.731   6.482  0.8280  0.1129 -0.7182
14691TIP3    H165488   5.070   6.665   6.423 -0.0513 -0.2502 -0.8421
14691TIP3    H265489   5.026   6.687   6.567 -0.9693 -0.3056 -1.1149
14692TIP3   OH265490   4.727   0.968   0.964  0.3843 -0.4211 -0.4591
14692TIP3    H165491   4.723   1.024   0.886  0.2073 -1.6255 -1.3312
14692TIP3    H265492   4.795   1.007   1.018 -0.1044  0.9539 -0.8029
14693TIP3   OH265493   4.612   1.471   3.734  0.6236 -0.0222 -0.3207
14693TIP3    H165494   4.625   1.378   3.751  0.1564  0.0027  0.1768
14693TIP3    H265495   4.546   1.498   3.797 -0.6116  0.2282 -1.7138
14694TIP3   OH265496   6.580   6.203   3.755 -0.1494  0.0440  0.1362
14694TIP3    H165497   6.494   6.218   3.793  0.7150  1.0263  1.7870
14694TIP3    H265498   6.611   6.290   3.732  0.6021 -0.2503  0.0180
14695TIP3   OH265499   4.982   2.318   4.352 -0.2463 -0.0392 -0.0841
14695TIP3    H165500   4.953   2.358   4.434 -0.3584 -1.0085  0.3523
14695TIP3    H265501   5.050   2.256   4.378  0.3425  0.2857 -0.8201
14696TIP3   OH265502   2.653   3.179   4.663  0.1424 -0.3936 -0.6985
14696TIP3    H165503   2.712   3.240   4.619  1.4509  1.0910  2.9591
14696TIP3    H265504   2.700   3.096   4.662  1.2083  0.1946 -0.0243
14697TIP3   OH265505   2.108   1.285  12.678  0.1022 -0.4315  0.0260
14697TIP3    H165506   2.097   1.359  12.738 -1.1906 -0.5012 -0.0967
14697TIP3    H265507   2.190   1.244  12.704 -0.6349 -0.6888  1.9892
14698TIP3   OH265508   1.502   2.179   5.735 -0.3380  0.0138 -0.0446
14698TIP3    H165509   1.501   2.186   5.831 -1.0812  0.9473 -0.1046
14698TIP3    H265510   1.590   2.205   5.709 -0.0007 -0.6587  0.4079
14699TIP3   OH265511   2.778   1.740  14.605 -0.3284 -0.4798 -0.5683
14699TIP3    H165512   2.811   1.659  14.567 -0.9357 -1.5173  1.0357
14699TIP3    H265513   2.689   1.718  14.633 -0.6870  0.9030 -0.6042
14700TIP3   OH265514   4.117   1.443  14.934  0.3227 -0.3742  0.1202
14700TIP3    H165515   4.115   1.529  14.891 -0.2282 -0.0812  0.7326
14700TIP3    H265516   4.158   1.460  15.019 -0.8488 -0.5088  0.7130
14701TIP3   OH265517   5.187   6.088  12.031 -0.3143  0.2016  0.6110
14701TIP3    H165518   5.098   6.123  12.036 -0.2440  0.5212 -0.3675
14701TIP3    H265519   5.220   6.116  11.945  1.4038  1.7159  1.7031
14702TIP3   OH265520   1.069   5.802  13.034 -0.2870 -0.0164  0.4371
14702TIP3    H165521   1.022   5.742  12.976 -2.7342  3.9923 -1.9435
14702TIP3    H265522   1.139   5.838  12.980  1.0962 -0.6346  1.8011
14703TIP3   OH265523   0.231   0.551  15.640  0.2090  0.6511 -0.5546
14703TIP3    H165524   0.166   0.493  15.680  0.2038 -1.0229 -2.9069
14703TIP3    H265525   0.313   0.503  15.646  0.6550  1.4077 -0.4699
14704TIP3   OH265526   5.728   6.296  11.135  0.4117  0.0821 -0.5175
14704TIP3    H165527   5.647   6.346  11.132  1.2597  1.7876  2.5183
14704TIP3    H265528   5.702   6.211  11.171 -0.2634  0.1434 -0.8623
14705TIP3   OH265529   1.915   0.233  12.068  0.0861 -0.0908 -0.2446
14705TIP3    H165530   2.004   0.212  12.042  0.9572  0.4461  2.1066
14705TIP3    H265531   1.879   0.151  12.101 -0.3158 -0.3230 -1.2583
14706TIP3   OH265532   6.132   1.932   2.014  0.2950 -0.2319 -0.0081
14706TIP3    H165533   6.047   1.928   1.970  0.0172  0.9748  0.4037
14706TIP3    H265534   6.118   1.885   2.096  0.1711 -0.4609 -0.1572
14707TIP3   OH265535   6.437   2.389  16.611 -0.1141  0.0702 -0.1263
14707TIP3    H165536   6.411   2.457  16.674  1.3366  0.3710  0.1650
14707TIP3    H265537   6.533   2.394  16.609 -0.1084 -0.5525 -1.6768
14708TIP3   OH265538   0.882   5.179  15.508  0.0206 -0.4505 -0.3987
14708TIP3    H165539   0.916   5.111  15.566 -2.9225 -0.8214  0.9863
14708TIP3    H265540   0.834   5.131  15.440  0.3839  0.1442 -1.0871
14709TIP3   OH265541   5.851   5.862  11.643  0.2835  0.3918 -0.5763
14709TIP3    H165542   5.835   5.797  11.574 -0.4559  0.1907 -0.2236
14709TIP3    H265543   5.879   5.811  11.718  0.1637  0.5257 -0.4409
14710TIP3   OH265544   0.104   0.879   5.139  0.2629  0.0576 -0.3696
14710TIP3    H165545   0.158   0.810   5.098  0.6578  0.6752 -0.9041
14710TIP3    H265546   0.084   0.939   5.067 -1.6892 -0.4880 -0.3164
14711TIP3   OH265547   2.969   3.081  17.122 -0.1300 -0.1327  0.1578
14711TIP3    H165548   2.887   3.032  17.118  1.1826 -2.4224 -0.2988
14711TIP3    H265549   2.969   3.122  17.208 -2.2126  0.7702 -0.2609
14712TIP3   OH265550   1.238   5.328  12.358 -0.5089  0.1958  0.6446
14712TIP3    H165551   1.257   5.365  12.444  0.8258 -0.6302  0.7109
14712TIP3    H265552   1.211   5.238  12.377  2.2215 -0.7866  0.0308
14713TIP3   OH265553   2.270   0.887   6.400 -0.0474 -0.1976 -0.2028
14713TIP3    H165554   2.316   0.936   6.332 -0.1137 -1.1456 -0.9548
14713TIP3    H265555   2.232   0.954   6.457  0.5796  0.6045 -0.7150
14714TIP3   OH265556   1.833   1.086  13.834  0.2410 -0.1592  0.5668
14714TIP3    H165557   1.843   1.174  13.870  0.7292 -0.4051  1.0404
14714TIP3    H265558   1.922   1.058  13.813  0.1011 -0.5936  0.5456
14715TIP3   OH265559   6.271   0.855   1.639 -0.5850 -0.3679  0.0500
14715TIP3    H165560   6.240   0.775   1.682 -0.7871 -0.0944  0.4200
14715TIP3    H265561   6.277   0.919   1.710 -1.7668  0.3371 -0.4635
14716TIP3   OH265562   5.215   5.618   2.049 -0.1221  0.1137  0.0440
14716TIP3    H165563   5.276   5.652   1.983  1.2686 -0.4094  1.0286
14716TIP3    H265564   5.239   5.665   2.129 -0.9985 -0.1223  0.4460
14717TIP3   OH265565   4.155   2.636   4.660 -0.3747  0.2482  0.0816
14717TIP3    H165566   4.073   2.667   4.699 -0.4714  1.1179 -0.8119
14717TIP3    H265567   4.131   2.614   4.570  0.4047  0.6000 -0.2088
14718TIP3   OH265568   5.630   3.781  14.750 -0.2558 -0.6864  0.3540
14718TIP3    H165569   5.718   3.805  14.780  0.0192 -1.4508  0.1793
14718TIP3    H265570   5.634   3.686  14.739 -0.6510 -0.5396 -1.1254
14719TIP3   OH265571   3.570   5.714   4.792 -0.2278 -0.0873  0.1143
14719TIP3    H165572   3.483   5.680   4.811 -0.5848  1.0101  0.4512
14719TIP3    H265573   3.622   5.636   4.773 -1.1736 -0.7808  0.3291
14720TIP3   OH265574   4.096   0.284   1.678 -0.0367 -0.5203  0.1749
14720TIP3    H165575   4.078   0.310   1.768 -2.0265  0.0655 -0.3742
14720TIP3    H265576   4.051   0.349   1.625  2.9918  0.4770 -1.3065
14721TIP3   OH265577   0.423   5.898  12.943 -0.2923  0.2417  0.5159
14721TIP3    H165578   0.487   5.954  12.899  0.4673 -0.3897  0.8137
14721TIP3    H265579   0.474   5.845  13.003 -0.9691 -1.0652 -0.0404
14722TIP3   OH265580   3.054   0.777  10.685  0.4060  0.1145 -0.3997
14722TIP3    H165581   2.999   0.851  10.710 -0.3966 -0.5364 -0.2421
14722TIP3    H265582   3.143   0.804  10.711 -0.2435 -0.0660  2.1583
14723TIP3   OH265583   2.085   3.125  12.148  0.4349 -0.2628 -0.3510
14723TIP3    H165584   2.084   3.038  12.189  0.3886 -0.6207 -1.1024
14723TIP3    H265585   2.008   3.169  12.185  1.8162  0.3588  1.9167
14724TIP3   OH265586   0.249   4.106   2.214 -0.5363 -0.0892 -0.2611
14724TIP3    H165587   0.175   4.066   2.169 -1.0433 -0.2910  0.7302
14724TIP3    H265588   0.304   4.032   2.240 -0.4307 -0.0006 -0.2314
14725TIP3   OH265589   4.203   3.751  14.212 -0.3631  0.0321 -0.3081
14725TIP3    H165590   4.161   3.832  14.240  0.2025 -0.2478  1.4085
14725TIP3    H265591   4.233   3.710  14.293  1.6141 -0.6417 -1.3358
14726TIP3   OH265592   1.072   4.856  14.712  0.0035  0.1790 -0.1887
14726TIP3    H165593   1.090   4.933  14.766  2.0229  0.7555 -1.6164
14726TIP3    H265594   1.155   4.809  14.708 -1.1378 -1.9454  0.4293
14727TIP3   OH265595   5.991   0.263   1.258  0.6500  0.1861  0.0052
14727TIP3    H165596   6.075   0.310   1.258  1.1689 -0.7117 -0.5785
14727TIP3    H265597   6.012   0.177   1.220  0.0129 -1.0459  2.3243
14728TIP3   OH265598   2.880   3.089   5.463  0.0151 -0.2491  0.1320
14728TIP3    H165599   2.974   3.085   5.444 -0.1483  2.0038 -1.2347
14728TIP3    H265600   2.842   3.016   5.414  0.9477 -0.7355  0.1323
14729TIP3   OH265601   6.086   5.955  16.858  0.3526  0.2137  0.0907
14729TIP3    H165602   6.124   5.868  16.848 -0.8897 -0.5002  1.5551
14729TIP3    H265603   6.102   5.978  16.949  0.0229  1.2207 -0.0994
14730TIP3   OH265604   1.286   4.251  16.435  0.3510  0.1731  0.1193
14730TIP3    H165605   1.351   4.249  16.506  0.4699  0.4360  0.0203
14730TIP3    H265606   1.213   4.198  16.468  0.6415 -0.1757  0.2046
14731TIP3   OH265607   1.417   5.628   3.162 -0.0996  0.0224  0.6282
14731TIP3    H165608   1.499   5.659   3.200 -0.0988 -0.7951  1.3211
14731TIP3    H265609   1.371   5.586   3.235 -0.8922 -0.0137  0.1194
14732TIP3   OH265610   4.308   3.930   2.494 -0.8602  0.1096  0.0897
14732TIP3    H165611   4.364   3.864   2.532  0.3568 -1.8007 -4.6357
14732TIP3    H265612   4.364   3.976   2.431 -2.9047  2.4892 -0.0831
14733TIP3   OH265613   3.130   5.620   3.412  0.3658 -0.3860  0.2670
14733TIP3    H165614   3.120   5.538   3.363 -0.6059 -0.1110 -0.0133
14733TIP3    H265615   3.062   5.677   3.377 -0.4070 -0.2045  2.0098
14734TIP3   OH265616   4.608   1.627   1.737  0.2084 -0.0934 -0.0274
14734TIP3    H165617   4.608   1.653   1.829 -1.9040  0.1283 -0.0580
14734TIP3    H265618   4.566   1.700   1.692 -1.4867 -1.4746 -0.7376
14735TIP3   OH265619   0.870   0.226   4.479 -0.5166  0.3031 -0.8674
14735TIP3    H165620   0.782   0.216   4.514 -0.5208  2.3419 -0.2294
14735TIP3    H265621   0.911   0.140   4.493 -2.2403 -0.5258 -0.7711
14736TIP3   OH265622   2.457   0.612   3.524  0.3283  0.0468 -0.2099
14736TIP3    H165623   2.401   0.612   3.446  1.8084 -2.3300 -1.3474
14736TIP3    H265624   2.545   0.630   3.490  0.9506 -0.7371  0.9342
14737TIP3   OH265625   6.626   5.834  16.271 -0.7579  0.1953 -0.1486
14737TIP3    H165626   6.662   5.919  16.245  0.1944 -1.1520 -3.5319
14737TIP3    H265627   6.533   5.840  16.250 -0.3084 -0.2670 -2.4962
14738TIP3   OH265628   4.705   0.481  12.256  0.5163  0.3663  0.2709
14738TIP3    H165629   4.648   0.544  12.212 -1.4922 -0.9763  0.8845
14738TIP3    H265630   4.683   0.397  12.216  1.5828 -0.2801  1.0088
14739TIP3   OH265631   1.864   3.117   0.082  0.3585 -0.0034 -0.0773
14739TIP3    H165632   1.795   3.171   0.121 -0.3190 -0.7248 -0.2632
14739TIP3    H265633   1.944   3.142   0.129 -0.3442 -0.4898  1.4178
14740TIP3   OH265634   5.329   6.763   4.660  1.0575 -0.7735  0.2458
14740TIP3    H165635   5.417   6.801   4.657  0.4990  0.4303 -1.6797
14740TIP3    H265636   5.286   6.795   4.580 -1.5992 -0.1704  1.8420
14741TIP3   OH265637   4.270   6.517  12.113 -0.0614  0.1242 -0.2007
14741TIP3    H165638   4.316   6.600  12.102 -0.1105  0.0492 -0.9539
14741TIP3    H265639   4.322   6.453  12.064 -0.7865 -0.0200 -0.7900
14742TIP3   OH265640   6.392   4.999   2.242 -0.2384 -0.0107 -0.0366
14742TIP3    H165641   6.386   4.906   2.220  1.5046 -0.3240  0.7104
14742TIP3    H265642   6.443   5.037   2.170 -1.7022  0.5474 -0.7963
14743TIP3   OH265643   0.481   3.644   6.229  0.3763 -0.5112 -0.0721
14743TIP3    H165644   0.419   3.615   6.162  0.9776  0.1564 -0.9188
14743TIP3    H265645   0.448   3.729   6.257  1.5383  0.4032 -1.3755
14744TIP3   OH265646   2.364   5.188   1.101 -0.1303  0.2553  0.6438
14744TIP3    H165647   2.427   5.116   1.100 -0.9717 -0.5282  2.4267
14744TIP3    H265648   2.378   5.233   1.017  2.2022 -0.3918  0.6516
14745TIP3   OH265649   6.720   0.227  14.442  0.5818  0.2557 -0.1090
14745TIP3    H165650   6.685   0.277  14.369 -0.4578  1.2528  1.0424
14745TIP3    H265651   6.800   0.274  14.466  0.2960  0.6110  0.1469
14746TIP3   OH265652   4.362   4.965  17.143  0.1780  0.0295  0.3130
14746TIP3    H165653   4.403   4.932  17.223 -1.4591 -1.1356  0.7027
14746TIP3    H265654   4.341   4.886  17.093  1.0686  0.7403 -1.2221
14747TIP3   OH265655   0.662   5.133  11.813  0.3044 -0.5038  0.2199
14747TIP3    H165656   0.672   5.039  11.826  0.5522 -0.8359 -2.2566
14747TIP3    H265657   0.751   5.164  11.796  0.0015 -0.0888 -0.6185
14748TIP3   OH265658   4.972   2.099  10.374  0.5941  0.3696  0.1767
14748TIP3    H165659   5.011   2.071  10.291 -0.5937  0.2248 -0.3378
14748TIP3    H265660   4.914   2.027  10.399 -0.4155  1.1734  0.2058
14749TIP3   OH265661   5.317   5.434   4.658  0.1384 -0.1345  0.0164
14749TIP3    H165662   5.352   5.345   4.652 -0.0376 -0.3507  1.8363
14749TIP3    H265663   5.389   5.490   4.630  0.5930 -0.7948 -0.1416
14750TIP3   OH265664   3.410   1.179  13.094 -0.6176  0.3102 -0.0953
14750TIP3    H165665   3.473   1.118  13.133 -0.3693 -0.6268 -1.9233
14750TIP3    H265666   3.345   1.123  13.051  1.0310  1.2691 -4.0529
14751TIP3   OH265667   0.467   0.532   0.063  0.3214  0.6336 -0.3742
14751TIP3    H165668   0.428   0.501  -0.019  3.0484 -2.3715 -0.6541
14751TIP3    H265669   0.424   0.481   0.131 -1.3100  2.4922  0.0135
14752TIP3   OH265670   0.822   1.091  11.575 -0.3245  0.0324  0.5555
14752TIP3    H165671   0.777   1.017  11.534  0.1435  0.1576 -0.2175
14752TIP3    H265672   0.757   1.131  11.633 -0.8114 -0.5342  0.4011
14753TIP3   OH265673   1.338   0.929  13.087  0.2732  0.3119  0.2103
14753TIP3    H165674   1.373   0.894  13.169  1.5278 -0.3129 -0.5633
14753TIP3    H265675   1.273   0.864  13.059 -1.4957  1.4455  1.6263
14754TIP3   OH265676   6.430   1.550  13.133 -0.0338  0.5778  0.2544
14754TIP3    H165677   6.436   1.516  13.222  0.6829  1.8373  0.6994
14754TIP3    H265678   6.485   1.629  13.133  2.0098 -0.7592 -1.9559
14755TIP3   OH265679   0.508   5.296   1.151  0.1836 -0.4395  0.4042
14755TIP3    H165680   0.443   5.307   1.082 -0.2015 -1.7256  0.5504
14755TIP3    H265681   0.475   5.348   1.224  0.1427  0.1981 -0.0563
14756TIP3   OH265682   1.795   4.669  16.543  0.8870 -0.0438 -0.0339
14756TIP3    H165683   1.833   4.668  16.455  2.9563  1.6973  0.8061
14756TIP3    H265684   1.745   4.751  16.546 -0.6199 -0.9371 -0.1467
14757TIP3   OH265685   1.670   2.072   4.764  0.1395 -0.7560  0.1360
14757TIP3    H165686   1.615   2.006   4.807  0.2166 -0.2860  0.9673
14757TIP3    H265687   1.743   2.085   4.825  0.8185 -0.8635 -0.6386
14758TIP3   OH265688   1.839   5.438   2.773 -0.5756 -0.0700 -0.0305
14758TIP3    H165689   1.883   5.517   2.805 -1.4994  0.4691 -0.0729
14758TIP3    H265690   1.819   5.458   2.682 -0.3140 -0.5757 -0.1985
14759TIP3   OH265691   1.929   2.810   4.425 -0.1552  0.4104  0.5356
14759TIP3    H165692   1.838   2.789   4.444 -0.3749  1.0310  0.2143
14759TIP3    H265693   1.959   2.739   4.368 -0.8757  0.9311 -0.5192
14760TIP3   OH265694   2.200   2.314   4.773 -0.5868 -0.8845  0.0513
14760TIP3    H165695   2.177   2.405   4.755  0.3825 -0.6763 -0.1357
14760TIP3    H265696   2.134   2.284   4.836  0.5857  0.6790  2.0409
14761TIP3   OH265697   3.304   1.340  12.491 -0.2275  0.7370  0.5512
14761TIP3    H165698   3.366   1.269  12.504 -0.8388  0.1770  0.4347
14761TIP3    H265699   3.282   1.370  12.579 -1.8206 -0.8435  0.7356
14762TIP3   OH265700   2.638   0.140   5.399 -0.3330 -0.0149 -0.2786
14762TIP3    H165701   2.606   0.075   5.461  0.4430  0.5415  0.7345
14762TIP3    H265702   2.570   0.209   5.399  1.0732  1.4439  2.3099
14763TIP3   OH265703   1.659   6.196   0.019  0.1193 -0.0860 -0.4648
14763TIP3    H165704   1.717   6.219  -0.054  0.9629  1.6820  0.7169
14763TIP3    H265705   1.596   6.268   0.022  0.8949  0.5403  1.3682
14764TIP3   OH265706   2.423   4.878   3.324  0.5678  0.2599  0.4708
14764TIP3    H165707   2.486   4.894   3.254  0.5190  1.9551  0.7846
14764TIP3    H265708   2.344   4.848   3.280  1.0684 -0.2926 -0.0574
14765TIP3   OH265709   2.268   4.656   6.613 -0.0427  0.6645  0.4997
14765TIP3    H165710   2.301   4.693   6.695  1.1261  1.0131 -0.1156
14765TIP3    H265711   2.287   4.723   6.547  4.9486 -2.1528 -1.2059
14766TIP3   OH265712   4.353   6.384  12.392 -0.2595 -0.6404 -0.2322
14766TIP3    H165713   4.337   6.428  12.475 -0.0010 -0.9331 -0.0258
14766TIP3    H265714   4.311   6.440  12.326 -2.2248 -1.4733  0.2927
14767TIP3   OH265715   2.711   4.254  14.732  0.4060 -0.1870  0.1753
14767TIP3    H165716   2.686   4.328  14.787  0.3994  0.4113 -0.6310
14767TIP3    H265717   2.678   4.276  14.645  1.0048 -0.8201 -0.2203
14768TIP3   OH265718   3.828   2.292   1.456 -0.1106 -0.1298  0.2325
14768TIP3    H165719   3.898   2.261   1.399  0.1233 -0.0104  0.4561
14768TIP3    H265720   3.802   2.215   1.507 -0.1806 -0.1868  0.1122
14769TIP3   OH265721   0.256   5.333  13.809 -0.5810  0.1410  0.4756
14769TIP3    H165722   0.240   5.368  13.721 -0.6728  0.7028  0.7180
14769TIP3    H265723   0.256   5.238  13.796 -0.7460  0.2140 -0.1092
14770TIP3   OH265724   4.307   5.872   1.744 -0.0488 -0.0760  0.1039
14770TIP3    H165725   4.295   5.777   1.742 -1.1582  0.0780 -0.4533
14770TIP3    H265726   4.335   5.890   1.834 -0.0356 -0.9026  0.2698
14771TIP3   OH265727   0.933   5.720  14.585 -0.8558  0.4355 -0.6876
14771TIP3    H165728   0.912   5.629  14.607  1.2793  0.1654  0.3304
14771TIP3    H265729   0.932   5.722  14.489 -0.4132 -0.7795 -0.7204
14772TIP3   OH265730   2.532   4.743  13.543 -0.7603  0.2579  0.2739
14772TIP3    H165731   2.625   4.764  13.549 -0.7663 -0.0230  1.5239
14772TIP3    H265732   2.515   4.686  13.618 -2.1490  1.0429  0.5778
14773TIP3   OH265733   6.596   3.732   2.207 -0.7365  0.0689 -0.0268
14773TIP3    H165734   6.570   3.756   2.118 -0.9495 -1.1233 -0.2915
14773TIP3    H265735   6.521   3.683   2.241 -1.0035  1.2659  1.1130
14774TIP3   OH265736   2.380   2.560   4.547  0.2875 -0.7139  0.2613
14774TIP3    H165737   2.352   2.561   4.455  1.2103  0.4834 -0.0185
14774TIP3    H265738   2.299   2.570   4.596 -0.1261 -0.5562 -0.4390
14775TIP3   OH265739   3.955   4.797   4.409  0.2973 -0.2172  0.4150
14775TIP3    H165740   4.014   4.848   4.465  0.3294  0.4994 -0.2645
14775TIP3    H265741   3.923   4.727   4.466 -0.0006  0.7449  1.4685
14776TIP3   OH265742   1.598   5.151  13.181  1.0441 -0.6323  0.0227
14776TIP3    H165743   1.567   5.189  13.263  0.3435 -0.5681 -0.2763
14776TIP3    H265744   1.678   5.200  13.162 -0.2916  1.2546 -0.7816
14777TIP3   OH265745   4.082   2.557   5.193 -0.2517  0.2677 -0.1174
14777TIP3    H165746   4.043   2.633   5.234  1.4125  1.8224 -1.2971
14777TIP3    H265747   4.132   2.515   5.263  0.2928  1.3041  0.1338
14778TIP3   OH265748   0.682   5.536   1.553  0.2613  0.0899  0.3869
14778TIP3    H165749   0.657   5.623   1.584  1.1620 -0.3037  2.2682
14778TIP3    H265750   0.771   5.524   1.585  0.5862 -1.0453 -0.9093
14779TIP3   OH265751   4.800   5.335  13.551  0.1121  0.6206  0.7895
14779TIP3    H165752   4.882   5.310  13.592  1.7833  1.4884 -1.9367
14779TIP3    H265753   4.769   5.256  13.506 -0.0093  0.5896  0.9247
14780TIP3   OH265754   4.263   1.683  13.822 -0.7702  0.3231 -0.3929
14780TIP3    H165755   4.208   1.657  13.748 -1.1298  0.9876 -0.3599
14780TIP3    H265756   4.220   1.645  13.899 -0.9651  0.5130 -0.4082
14781TIP3   OH265757   1.378   4.182   6.513  0.0133 -0.5314 -0.0720
14781TIP3    H165758   1.356   4.163   6.604  2.4668  0.6788  0.8447
14781TIP3    H265759   1.447   4.119   6.491  1.2479  0.8266 -0.2130
14782TIP3   OH265760   3.501   1.957  12.834 -0.9286 -0.0335 -0.1715
14782TIP3    H165761   3.589   1.977  12.866 -1.5321  0.9582  0.8904
14782TIP3    H265762   3.449   1.942  12.913 -1.4322 -1.8829 -0.8316
14783TIP3   OH265763   1.381   0.940  11.576 -0.0706 -0.4276 -0.0438
14783TIP3    H165764   1.298   0.970  11.540 -0.5150 -0.3046  1.0821
14783TIP3    H265765   1.437   1.018  11.576 -0.0403 -0.4479 -0.5412
14784TIP3   OH265766   2.191   6.700   0.043 -0.1548  0.0693 -0.7388
14784TIP3    H165767   2.256   6.691  -0.027  1.6557  1.9792  0.6168
14784TIP3    H265768   2.108   6.675   0.003  0.6318  2.2937 -3.9656
14785TIP3   OH265769   0.381   4.771   0.878  0.0393 -0.5875 -0.1085
14785TIP3    H165770   0.301   4.824   0.882  1.2556  1.3428 -0.3163
14785TIP3    H265771   0.386   4.729   0.964 -0.8637 -0.2164  0.1314
14786TIP3   OH265772   3.936   0.111  12.419  0.5889  0.2605 -0.9027
14786TIP3    H165773   3.850   0.069  12.419  1.1819 -0.9865 -0.3652
14786TIP3    H265774   3.925   0.189  12.364 -0.2383 -1.2562 -2.9697
14787TIP3   OH265775   3.237   4.273  12.877 -0.0867  0.3467  0.2882
14787TIP3    H165776   3.257   4.191  12.833 -1.4457 -0.1478  0.5801
14787TIP3    H265777   3.142   4.276  12.881 -0.1937  3.4012 -2.4901
14788TIP3   OH265778   6.471   5.044   3.865 -0.4093  0.1738 -0.5150
14788TIP3    H165779   6.566   5.054   3.878 -0.4517  2.5502 -1.6188
14788TIP3    H265780   6.451   5.107   3.795 -2.8818  0.0266  0.0368
14789TIP3   OH265781   1.652   3.461   3.516  0.2717 -0.2223 -0.1385
14789TIP3    H165782   1.600   3.404   3.572  1.3713 -0.7546  0.3506
14789TIP3    H265783   1.648   3.420   3.429  2.3214 -1.9232  0.5269
14790TIP3   OH265784   2.570   6.017  14.243  0.5111 -0.3282  0.5753
14790TIP3    H165785   2.513   6.094  14.240  0.8648 -0.1169 -0.7981
14790TIP3    H265786   2.650   6.048  14.285  0.5670 -0.0019  0.2294
14791TIP3   OH265787   1.453   0.146  11.534  1.1443  0.1376 -0.6737
14791TIP3    H165788   1.365   0.133  11.497  0.5030  0.7048  0.6088
14791TIP3    H265789   1.443   0.223  11.591  2.1837 -0.5150  0.3950
14792TIP3   OH265790   0.638   2.154  13.465  0.0746  0.1909  0.4208
14792TIP3    H165791   0.665   2.246  13.464 -0.4463  0.3425  0.4317
14792TIP3    H265792   0.686   2.116  13.538  1.4216  0.1207 -0.4846
14793TIP3   OH265793   2.223   5.314   6.018 -0.1579  0.1944  0.1320
14793TIP3    H165794   2.266   5.399   6.012  0.3186 -0.0332  0.2649
14793TIP3    H265795   2.260   5.274   6.097 -0.7246  0.0561  0.3285
14794TIP3   OH265796   4.435   2.467  15.035  0.3762 -0.0289 -0.5653
14794TIP3    H165797   4.379   2.391  15.051  0.8562 -0.3617 -0.4494
14794TIP3    H265798   4.384   2.523  14.977  0.3349 -0.8125 -1.2999
14795TIP3   OH265799   3.652   0.748   2.925  0.2172 -0.0224  0.8403
14795TIP3    H165800   3.567   0.718   2.893  0.0091  1.0236  0.3800
14795TIP3    H265801   3.640   0.759   3.019 -0.5095  1.2302  0.6123
14796TIP3   OH265802   0.270   5.207   2.645 -0.5319 -0.3112  0.2772
14796TIP3    H165803   0.279   5.116   2.669 -2.0805 -0.5652 -0.0318
14796TIP3    H265804   0.286   5.209   2.550 -0.8475 -0.3187  0.2229
14797TIP3   OH265805   2.042   2.862   5.636  0.3238 -0.0548 -0.1067
14797TIP3    H165806   2.003   2.836   5.720 -1.1916 -0.6154 -0.9725
14797TIP3    H265807   2.130   2.823   5.638  0.0856 -0.5752  0.9546
14798TIP3   OH265808   1.603   6.155  11.226 -0.1334  0.3242  0.3246
14798TIP3    H165809   1.602   6.224  11.293 -1.3465 -0.8270  1.5383
14798TIP3    H265810   1.534   6.181  11.164  0.5279  1.0421 -0.1172
14799TIP3   OH265811   3.816   2.483  12.096  0.6426  0.1159 -0.4722
14799TIP3    H165812   3.877   2.506  12.027  1.1021  0.2558 -0.0219
14799TIP3    H265813   3.757   2.420  12.056  0.5904  0.5818 -1.1395
14800TIP3   OH265814   5.012   3.616  13.499 -0.2041  0.6213  0.1736
14800TIP3    H165815   4.949   3.688  13.492  0.1946  1.0839  1.1587
14800TIP3    H265816   5.068   3.641  13.572 -0.0149 -0.6632  0.4856
14801TIP3   OH265817   3.991   4.388  10.537  0.3868 -0.0375  0.6749
14801TIP3    H165818   3.935   4.360  10.465 -1.0618  1.6148  1.1380
14801TIP3    H265819   4.026   4.473  10.510  0.6401  0.1221  1.4682
14802TIP3   OH265820   0.585   5.576   4.138  0.3545 -0.0390  0.8936
14802TIP3    H165821   0.614   5.658   4.097 -0.8102 -0.4626 -0.8210
14802TIP3    H265822   0.593   5.510   4.070  1.4887 -1.4263  2.3396
14803TIP3   OH265823   1.681   1.187   4.991 -0.3139  0.7026  0.6363
14803TIP3    H165824   1.611   1.126   4.966  0.5608 -0.0864  0.0637
14803TIP3    H265825   1.679   1.254   4.922  0.6038 -0.2464 -0.3374
14804TIP3   OH265826   3.024   1.753   4.723 -0.4558 -0.3617 -0.7396
14804TIP3    H165827   3.004   1.752   4.817  0.0729 -0.7310 -0.6289
14804TIP3    H265828   2.939   1.763   4.680 -0.6303  0.5326 -0.1967
14805TIP3   OH265829   6.663   1.733  14.390 -0.1094 -0.6151  0.1288
14805TIP3    H165830   6.589   1.672  14.395  1.7930 -2.8828  2.3978
14805TIP3    H265831   6.624   1.819  14.404 -2.5717 -1.5630 -0.6773
14806TIP3   OH265832   1.618   4.292  13.447 -0.4150 -0.1002 -0.4548
14806TIP3    H165833   1.660   4.209  13.425 -0.9850 -0.3620 -0.5566
14806TIP3    H265834   1.535   4.267  13.488  0.4688  0.3721  1.7249
14807TIP3   OH265835   2.702   3.003   4.235  0.8393 -0.4144 -0.3002
14807TIP3    H165836   2.644   2.948   4.287 -0.8178  2.0045  0.5050
14807TIP3    H265837   2.693   2.970   4.145 -0.8117 -0.8971  0.0296
14808TIP3   OH265838   5.156   2.032   5.171 -0.5214  0.5108 -0.2089
14808TIP3    H165839   5.121   1.991   5.251  0.7311 -2.4661 -1.1289
14808TIP3    H265840   5.200   2.111   5.203  0.0580 -0.6753  2.1141
14809TIP3   OH265841   2.544   2.969  11.872  0.2510  0.3541  0.1355
14809TIP3    H165842   2.527   2.880  11.904 -0.6818  0.9463  1.3128
14809TIP3    H265843   2.529   2.964  11.778 -0.4044 -0.5928  0.2812
14810TIP3   OH265844   6.183   5.456  11.449 -0.0922 -0.0954  0.0740
14810TIP3    H165845   6.136   5.406  11.515  0.0736  1.7271  1.5970
14810TIP3    H265846   6.276   5.439  11.468 -0.0523 -0.1875 -0.1913
14811TIP3   OH265847   3.634   6.260   1.876  0.0618  0.1230  0.6616
14811TIP3    H165848   3.570   6.220   1.817 -0.2699  0.0950  1.0363
14811TIP3    H265849   3.688   6.187   1.905  0.1389  0.1153  0.5015
14812TIP3   OH265850   2.107   3.187   3.108  0.3155  0.4619  0.0771
14812TIP3    H165851   2.064   3.174   3.193  0.3584 -1.8723 -0.2201
14812TIP3    H265852   2.197   3.211   3.131  0.2133  0.2596  0.7152
14813TIP3   OH265853   1.857   3.123  16.926  0.5221  0.1994 -0.1749
14813TIP3    H165854   1.921   3.096  16.992  1.1919 -0.6013 -1.1261
14813TIP3    H265855   1.854   3.049  16.865 -1.2474  0.2633 -0.1981
14814TIP3   OH265856   4.956   4.074   5.663 -0.3795 -0.0655 -0.3153
14814TIP3    H165857   4.897   4.135   5.617 -0.8355 -0.3848 -0.1589
14814TIP3    H265858   5.030   4.128   5.690 -0.0611  0.1090 -1.5037
14815TIP3   OH265859   1.248   5.593  16.810 -0.0840 -0.2539 -0.7011
14815TIP3    H165860   1.178   5.628  16.755 -1.8645 -0.7491  1.1817
14815TIP3    H265861   1.202   5.545  16.879  2.0877  0.2120  1.1160
14816TIP3   OH265862   0.790   0.938   0.018 -0.1876 -0.0029  0.1154
14816TIP3    H165863   0.814   0.918   0.109 -1.3555  1.2647  0.7291
14816TIP3    H265864   0.872   0.965  -0.023 -0.3817  3.7404  2.0107
14817TIP3   OH265865   3.219   5.801   4.101 -0.6335  0.5298  0.7583
14817TIP3    H165866   3.181   5.850   4.174  0.9333  0.0212  1.9340
14817TIP3    H265867   3.304   5.772   4.133 -0.5158 -0.9025 -0.7799
14818TIP3   OH265868   4.421   1.409   0.521 -0.5156 -0.0611  0.3751
14818TIP3    H165869   4.389   1.446   0.439 -0.7305 -0.1421  0.4207
14818TIP3    H265870   4.348   1.420   0.582 -0.2255  0.3268  0.6541
14819TIP3   OH265871   1.294   6.446   4.902 -0.5709 -0.1529  0.2376
14819TIP3    H165872   1.219   6.503   4.918 -1.4601 -1.3548  0.3788
14819TIP3    H265873   1.257   6.358   4.897  0.6080 -0.5769 -1.3746
14820TIP3   OH265874   0.520   5.946   0.165  0.6746  0.0931 -0.2908
14820TIP3    H165875   0.481   5.859   0.162 -0.2855  0.5601 -1.6932
14820TIP3    H265876   0.591   5.938   0.229 -0.7072 -1.1761  1.1192
14821TIP3   OH265877   4.435   1.217   1.941 -0.1374  0.0119 -0.1462
14821TIP3    H165878   4.372   1.151   1.912 -0.0290 -0.0867 -0.1607
14821TIP3    H265879   4.492   1.231   1.865  0.1258 -0.2222  0.0031
14822TIP3   OH265880   4.334   4.685   0.315 -0.1137 -0.6073  0.4382
14822TIP3    H165881   4.423   4.684   0.352 -0.2639 -1.4315  0.7786
14822TIP3    H265882   4.291   4.609   0.354 -0.3284 -1.4030 -1.3015
14823TIP3   OH265883   5.604   0.848  14.425 -0.3296 -0.2037 -0.0648
14823TIP3    H165884   5.652   0.774  14.389  0.5602  1.0881 -1.6014
14823TIP3    H265885   5.520   0.846  14.380  0.3384  0.7126 -1.3804
14824TIP3   OH265886   2.095   5.347   3.600  0.0290 -0.1514  0.1674
14824TIP3    H165887   2.094   5.303   3.685 -0.5279 -0.2127  0.1296
14824TIP3    H265888   2.028   5.415   3.608 -1.3190 -1.3291 -0.8440
14825TIP3   OH265889   6.026   5.057  12.576  0.2375  0.3739  0.3012
14825TIP3    H165890   6.024   5.085  12.667 -1.1490 -1.5095  0.8924
14825TIP3    H265891   5.954   5.103  12.534  0.9473  1.3283  0.1131
14826TIP3   OH265892   0.022   3.019  12.512  0.0385 -0.2078  0.1795
14826TIP3    H165893   0.017   3.028  12.417  0.5127 -0.5908  0.1145
14826TIP3    H265894   0.021   2.924  12.527 -0.3862 -0.1453  0.5787
14827TIP3   OH265895   2.837   2.649   3.525 -0.0768 -0.7031  0.5440
14827TIP3    H165896   2.781   2.587   3.479 -0.4686 -1.9773  2.6431
14827TIP3    H265897   2.778   2.719   3.553  0.3389  0.5745 -1.6983
14828TIP3   OH265898   1.949   1.429  16.259 -0.5394 -0.3895  0.1466
14828TIP3    H165899   1.912   1.342  16.241  0.2526 -0.6193 -0.3862
14828TIP3    H265900   2.041   1.412  16.279 -0.4299  0.3113  0.2363
14829TIP3   OH265901   2.511   4.628  14.718  0.4371  0.0695 -0.2496
14829TIP3    H165902   2.443   4.687  14.686 -1.0015 -2.0530 -1.2045
14829TIP3    H265903   2.546   4.586  14.640  0.7089 -1.1350  0.5039
14830TIP3   OH265904   3.230   0.099   0.268  0.1565 -0.0277  0.1205
14830TIP3    H165905   3.146   0.056   0.253  0.6270 -0.5462 -1.1358
14830TIP3    H265906   3.241   0.099   0.363 -0.7952 -0.8412  0.2351
14831TIP3   OH265907   3.578   1.105  11.628 -0.3067  0.4172  0.5532
14831TIP3    H165908   3.541   1.025  11.663 -1.2729  0.1899 -0.9637
14831TIP3    H265909   3.505   1.150  11.586  0.9504  0.3564 -1.7703
14832TIP3   OH265910   0.497   4.662  12.321  0.5954 -0.5756  0.9701
14832TIP3    H165911   0.458   4.718  12.254  0.0257  0.8652  2.4548
14832TIP3    H265912   0.423   4.636  12.376  0.6691 -3.8173 -0.3702
14833TIP3   OH265913   2.121   1.107  11.770 -0.7666 -0.7978 -0.0645
14833TIP3    H165914   2.102   1.188  11.817 -1.8163 -1.8027  1.2677
14833TIP3    H265915   2.186   1.132  11.705  1.9490  0.3248  2.9508
14834TIP3   OH265916   6.132   5.572   1.101 -0.5871  0.8392 -0.1383
14834TIP3    H165917   6.087   5.514   1.163 -0.0938  1.0533  0.4296
14834TIP3    H265918   6.072   5.580   1.027 -0.5775 -0.5480 -0.3012
14835TIP3   OH265919   0.583   1.010   5.618 -0.0686 -0.0444  0.2962
14835TIP3    H165920   0.603   1.035   5.708 -1.7336  0.2445  0.6075
14835TIP3    H265921   0.556   1.092   5.575  2.1961  0.1040 -0.9046
14836TIP3   OH265922   6.059   3.957   2.608  0.0438  0.0404  0.2517
14836TIP3    H165923   6.033   3.998   2.525  0.3995 -0.9214 -0.3493
14836TIP3    H265924   6.138   4.003   2.635 -1.0207  1.4915  0.9362
14837TIP3   OH265925   6.604   2.910  10.679  0.5534 -0.1445  0.5343
14837TIP3    H165926   6.652   2.828  10.691 -0.6844 -1.0234 -0.5348
14837TIP3    H265927   6.518   2.894  10.717  0.4310  0.7972  0.6732
14838TIP3   OH265928   6.254   1.215  12.338 -0.0234  0.3016  1.0712
14838TIP3    H165929   6.262   1.281  12.407 -0.1947  0.1287  1.2558
14838TIP3    H265930   6.270   1.264  12.257  0.8737  0.3715  1.2786
14839TIP3   OH265931   0.014   2.895   3.784  0.6405 -0.5007 -0.1177
14839TIP3    H165932   0.100   2.884   3.744  0.4948 -1.0156 -0.3026
14839TIP3    H265933   0.031   2.922   3.874  0.9741  1.2461 -0.6877
14840TIP3   OH265934   1.188   2.898   0.014 -0.0791  0.1254 -0.3812
14840TIP3    H165935   1.255   2.833   0.039  0.0818 -0.1558 -1.5181
14840TIP3    H265936   1.143   2.858  -0.060 -1.0141  0.6514 -0.0984
14841TIP3   OH265937   2.367   4.263  13.837 -0.1549 -0.0298 -0.0996
14841TIP3    H165938   2.305   4.253  13.908 -1.7804 -0.5289 -1.5679
14841TIP3    H265939   2.394   4.174  13.815  2.5350  0.2481  1.7267
14842TIP3   OH265940   6.666   3.297  12.483 -0.0417 -0.2880  0.3009
14842TIP3    H165941   6.661   3.229  12.549  0.8639 -1.4211 -0.7729
14842TIP3    H265942   6.731   3.265  12.420  0.1402  1.3956 -0.4065
14843TIP3   OH265943   3.217   4.967  15.409 -0.0397  0.3081 -0.1826
14843TIP3    H165944   3.189   5.059  15.417  0.3247  0.3573  0.6533
14843TIP3    H265945   3.199   4.944  15.318 -0.2093  1.1862 -0.3789
14844TIP3   OH265946   4.784   2.641   4.386  0.0367  0.3965  0.3003
14844TIP3    H165947   4.863   2.605   4.427  0.9420  0.8544 -0.9871
14844TIP3    H265948   4.817   2.710   4.327 -1.3018  0.4701 -0.3856
14845TIP3   OH265949   0.026   1.862  11.358 -0.1137  0.1742  0.4410
14845TIP3    H165950   0.062   1.809  11.287 -0.2528  1.2501 -0.4472
14845TIP3    H265951   0.050   1.814  11.438  0.2335 -0.9304 -0.3083
14846TIP3   OH265952   0.513   6.386  17.142 -0.3973  0.4575  0.5140
14846TIP3    H165953   0.426   6.365  17.108 -0.9917 -1.3901  3.0487
14846TIP3    H265954   0.498   6.414  17.232  1.8128 -2.1160  1.7514
14847TIP3   OH265955   3.965   1.284  14.778 -0.0996 -1.4807  0.1361
14847TIP3    H165956   4.007   1.220  14.722  1.0994  1.5065 -2.5606
14847TIP3    H265957   4.036   1.340  14.809 -1.3806  0.1988  0.1474
14848TIP3   OH265958   2.933   4.320   0.227 -0.2161  0.0048  0.9151
14848TIP3    H165959   3.001   4.254   0.219  0.5947  0.8135  1.1128
14848TIP3    H265960   2.851   4.271   0.220  0.3817 -0.9582  0.6131
14849TIP3   OH265961   0.843   1.588  11.474 -0.0417 -0.1247  0.4821
14849TIP3    H165962   0.853   1.607  11.381 -2.0031 -0.1790  0.2440
14849TIP3    H265963   0.847   1.493  11.481 -0.3671 -0.1454  0.3899
14850TIP3   OH265964   1.014   0.537   1.812  0.0636 -0.3487 -0.4497
14850TIP3    H165965   0.997   0.444   1.823  1.2752 -0.5962 -0.5644
14850TIP3    H265966   1.087   0.541   1.749 -0.1036  0.6739 -0.5897
14851TIP3   OH265967   2.064   6.419   2.585 -0.3380 -0.2277  0.2052
14851TIP3    H165968   2.049   6.379   2.499 -0.8492  0.4157 -0.0090
14851TIP3    H265969   2.041   6.350   2.647 -2.7161  0.1891 -0.1475
14852TIP3   OH265970   3.111   0.854   3.196  0.2861  0.4153  0.0121
14852TIP3    H165971   3.115   0.949   3.202 -1.2194  0.4057  1.3476
14852TIP3    H265972   3.157   0.824   3.275 -1.2049  0.0798  0.7761
14853TIP3   OH265973   0.897   2.843   6.324 -0.1395 -0.7818  0.4104
14853TIP3    H165974   0.939   2.924   6.297 -2.3995  0.3021  0.0440
14853TIP3    H265975   0.969   2.780   6.331  1.4754  0.9051 -0.5400
14854TIP3   OH265976   0.884   6.682  14.513  0.4351 -0.2279  0.2501
14854TIP3    H165977   0.789   6.670  14.521  0.0916  2.3386  0.4421
14854TIP3    H265978   0.896   6.723  14.427  1.1284  1.7185  1.2547
14855TIP3   OH265979   4.874   4.914  14.349  0.3983  0.3619  0.2962
14855TIP3    H165980   4.788   4.898  14.310  0.9838 -3.3749  0.2950
14855TIP3    H265981   4.859   4.986  14.411 -2.1431  1.4706 -1.5040
14856TIP3   OH265982   5.050   2.123   0.011 -0.4776 -0.2425  0.3510
14856TIP3    H165983   5.011   2.041   0.040 -1.0685  0.5660  1.9342
14856TIP3    H265984   4.984   2.189   0.032 -0.1156  0.6226 -1.1261
14857TIP3   OH265985   6.332   2.027   2.677 -0.0989 -0.0963 -0.6795
14857TIP3    H165986   6.360   2.051   2.589  1.0376 -1.4965 -0.7191
14857TIP3    H265987   6.286   2.104   2.710  1.1887  1.1492 -1.7646
14858TIP3   OH265988   6.472   2.478  14.834 -0.0072  0.0938 -0.0824
14858TIP3    H165989   6.424   2.439  14.907 -1.1366  1.4814 -0.0641
14858TIP3    H265990   6.512   2.557  14.870 -0.4904  0.7403 -0.9446
14859TIP3   OH265991   2.648   0.306   4.771  0.0814  0.3145 -0.0546
14859TIP3    H165992   2.609   0.287   4.856 -1.0827  0.3409 -0.5753
14859TIP3    H265993   2.575   0.298   4.708  0.5181  2.0803 -0.8316
14860TIP3   OH265994   2.532   4.608   5.738  0.4454  0.0841  0.2816
14860TIP3    H165995   2.578   4.649   5.664 -0.1274  0.8557  0.3536
14860TIP3    H265996   2.583   4.633   5.815 -1.6387  3.2740  0.6823
14861TIP3   OH265997   0.557   3.103   0.663 -0.2001  0.1760 -0.2709
14861TIP3    H165998   0.530   3.190   0.692  0.6405  1.4615 -3.1143
14861TIP3    H265999   0.476   3.059   0.638 -0.4674  0.8219 -0.5485
14862TIP3   OH266000   1.781   4.305   5.766 -0.0591 -0.1153 -0.2205
14862TIP3    H166001   1.835   4.229   5.743 -1.1238 -0.5941 -1.2148
14862TIP3    H266002   1.796   4.318   5.860  1.5217 -0.4388 -0.4185
14863TIP3   OH266003   2.469   0.134  14.256  0.3818  0.4458 -0.1897
14863TIP3    H166004   2.398   0.081  14.219  0.3060  0.2680  0.2106
14863TIP3    H266005   2.490   0.091  14.339  0.5065  0.8874  0.0047
14864TIP3   OH266006   1.017   0.221  13.811  0.2790 -0.3369  0.0867
14864TIP3    H166007   0.939   0.179  13.776  0.7988 -2.3187  1.2198
14864TIP3    H266008   1.051   0.159  13.876  0.5663  2.2495  2.4819
14865TIP3   OH266009   3.214   6.116   5.536  0.3985  0.0333 -0.5717
14865TIP3    H166010   3.285   6.129   5.472 -1.5059  1.5803 -2.4629
14865TIP3    H266011   3.195   6.204   5.568 -0.0858 -0.4901  0.6182
14866TIP3   OH266012   4.047   5.982   0.358  0.5892  0.2845  0.1866
14866TIP3    H166013   4.123   6.010   0.410 -0.6651  3.0338  0.6118
14866TIP3    H266014   4.062   5.888   0.344  4.1446  0.7736  0.0847
14867TIP3   OH266015   0.547   6.076  15.980  0.8800 -0.4882 -0.2937
14867TIP3    H166016   0.556   6.165  15.946 -0.4163 -0.5381 -0.7894
14867TIP3    H266017   0.582   6.020  15.911  2.3380 -0.3337  0.3033
14868TIP3   OH266018   4.612   4.137   2.469  0.1011  0.1611 -0.3477
14868TIP3    H166019   4.699   4.148   2.432  0.6938  0.0377  0.9847
14868TIP3    H266020   4.583   4.227   2.489  0.2429  0.1423 -0.0624
14869TIP3   OH266021   5.823   2.010  15.957 -0.9123 -0.3000 -0.4250
14869TIP3    H166022   5.822   2.105  15.949  1.5610 -0.2462 -0.6120
14869TIP3    H266023   5.913   1.989  15.983 -2.1449 -2.3877  2.4420
14870TIP3   OH266024   4.506   2.396   5.092  0.1536  0.1360  0.3265
14870TIP3    H166025   4.456   2.356   5.021  1.5751 -1.2044  0.0584
14870TIP3    H266026   4.597   2.386   5.066  0.5818  2.7443  0.7111
14871TIP3   OH266027   0.300   1.002   4.494 -0.5804 -0.3201  0.0873
14871TIP3    H166028   0.276   1.049   4.414  1.4196 -1.5053 -1.2419
14871TIP3    H266029   0.353   0.929   4.464  0.9658 -0.2646  2.5881
14872TIP3   OH266030   5.080   2.525  17.183 -0.0002 -0.4411  0.2588
14872TIP3    H166031   5.175   2.519  17.191  0.1967  0.8317 -0.8574
14872TIP3    H266032   5.046   2.456  17.239  1.5951 -1.0853  0.4410
14873TIP3   OH266033   2.816   3.304  12.202  0.1868  0.0075  0.2691
14873TIP3    H166034   2.753   3.338  12.139  0.6646 -3.3649 -2.1235
14873TIP3    H266035   2.901   3.333  12.169  0.3752 -0.9720 -0.0892
14874TIP3   OH266036   4.670   5.116  16.672 -0.0509 -0.2603  0.2569
14874TIP3    H166037   4.682   5.178  16.743  1.7428 -0.8134  0.4638
14874TIP3    H266038   4.576   5.098  16.670 -0.3494  1.1971  1.2447
14875TIP3   OH266039   4.351   4.911   0.172 -0.2837 -0.5130 -0.0492
14875TIP3    H166040   4.329   4.841   0.234  1.4659  0.1769  1.3994
14875TIP3    H266041   4.285   4.979   0.190  0.5716 -0.0604  1.5344
14876TIP3   OH266042   3.848   1.222   1.887 -0.2723 -0.2592  0.3368
14876TIP3    H166043   3.774   1.169   1.916 -1.8605  1.9648  0.5390
14876TIP3    H266044   3.903   1.233   1.965 -1.2855  0.5315  0.9494
14877TIP3   OH266045   2.154   0.494  12.218 -0.0836  0.6039 -0.0457
14877TIP3    H166046   2.145   0.541  12.301 -1.8366 -1.1356  0.7838
14877TIP3    H266047   2.233   0.441  12.229 -0.8133 -0.3007  0.8632
14878TIP3   OH266048   2.424   6.371  11.401  0.4592  0.2753 -0.3654
14878TIP3    H166049   2.379   6.434  11.343  0.7852  0.1662 -0.7438
14878TIP3    H266050   2.505   6.350  11.354  0.7773  0.2647  0.1869
14879TIP3   OH266051   5.502   6.389   3.571  0.1055 -0.2220  0.0847
14879TIP3    H166052   5.512   6.324   3.501  1.5840  0.3502 -0.2505
14879TIP3    H266053   5.504   6.473   3.525  0.9176  0.1549  0.8097
14880TIP3   OH266054   4.412   2.084  17.213 -0.2698  0.3644  0.1941
14880TIP3    H166055   4.480   2.045  17.159  0.0882 -0.3008  1.1100
14880TIP3    H266056   4.396   2.170  17.174  1.4388  0.7200  0.2590
14881TIP3   OH266057   2.771   6.150   0.075  0.2477  0.2892  0.1908
14881TIP3    H166058   2.864   6.129   0.077  0.0318 -0.7647 -0.1830
14881TIP3    H266059   2.727   6.064   0.070 -0.7180  0.7912 -0.1500
14882TIP3   OH266060   6.475   1.146   2.950  0.9633 -0.4618 -0.2511
14882TIP3    H166061   6.485   1.215   3.016  0.6122 -0.7153  0.0676
14882TIP3    H266062   6.386   1.157   2.917  0.3247 -1.7991  0.9886
14883TIP3   OH266063   0.482   1.070  10.621 -0.9066 -0.2465 -0.1472
14883TIP3    H166064   0.558   1.041  10.671 -2.0069 -0.8079  1.2715
14883TIP3    H266065   0.516   1.134  10.559  1.3065 -3.0678 -2.0051
14884TIP3   OH266066   1.348   3.228   2.730 -0.1461 -0.1941  0.0683
14884TIP3    H166067   1.284   3.295   2.708 -0.7754 -0.9318 -0.4046
14884TIP3    H266068   1.313   3.148   2.690  0.2870 -0.9190  1.1158
14885TIP3   OH266069   1.664   5.997   6.301  0.1041  0.4826  0.0697
14885TIP3    H166070   1.578   5.975   6.265  0.8426 -0.0370 -1.4474
14885TIP3    H266071   1.677   5.934   6.372  0.4615 -1.4224 -1.6077
14886TIP3   OH266072   2.101   5.811  12.856 -0.4451 -0.0054 -0.9431
14886TIP3    H166073   2.062   5.792  12.771  0.4329 -0.8042 -1.1774
14886TIP3    H266074   2.056   5.753  12.917 -0.5471  0.0224 -0.9926
14887TIP3   OH266075   0.724   1.964   4.531 -0.0074 -0.1689 -0.3365
14887TIP3    H166076   0.751   1.981   4.441  0.5577 -1.2194 -0.3601
14887TIP3    H266077   0.666   1.888   4.525  0.5364 -0.6260  0.2756
14888TIP3   OH266078   5.896   2.450  10.806 -0.5451 -0.8980 -0.2356
14888TIP3    H166079   5.933   2.379  10.754  1.3311 -0.8192  0.9474
14888TIP3    H266080   5.916   2.426  10.897  0.1016  1.1151  0.1825
14889TIP3   OH266081   4.418   1.562  13.569  0.0123  0.0253  0.6224
14889TIP3    H166082   4.498   1.591  13.527 -0.1320  0.6237  0.7643
14889TIP3    H266083   4.447   1.510  13.644  0.2643  1.6829  1.6841
14890TIP3   OH266084   3.963   0.830   5.138  0.3150  0.7708  0.3023
14890TIP3    H166085   4.008   0.817   5.054  0.7606 -1.7327  0.8850
14890TIP3    H266086   3.875   0.794   5.124  0.1825  0.9290  0.7241
14891TIP3   OH266087   1.084   1.200   4.032  0.8930 -0.7431  0.3844
14891TIP3    H166088   1.142   1.225   4.104  1.1984  2.0910 -0.7983
14891TIP3    H266089   1.114   1.250   3.957 -0.4801 -2.3939 -1.3366
14892TIP3   OH266090   1.095   6.229   5.949 -0.1714 -0.0657  0.0618
14892TIP3    H166091   1.088   6.133   5.952  2.5045 -0.3211 -0.5028
14892TIP3    H266092   1.085   6.256   6.040  0.0845 -0.9792  0.3727
14893TIP3   OH266093   4.409   1.705  16.453  0.0443  0.0247  0.3103
14893TIP3    H166094   4.451   1.695  16.367 -0.9209 -1.2310 -0.0385
14893TIP3    H266095   4.389   1.615  16.480 -2.6638  0.6033  0.3357
14894TIP3   OH266096   3.816   3.456  15.019 -0.1325 -0.6050  0.2090
14894TIP3    H166097   3.773   3.470  14.935 -1.5639 -4.4266  0.1817
14894TIP3    H266098   3.900   3.416  14.998 -0.0074 -0.5249  0.5421
14895TIP3   OH266099   5.744   2.216   4.635 -0.2776 -1.1430 -0.4027
14895TIP3    H166100   5.758   2.305   4.602 -1.1924 -1.1962 -0.9406
14895TIP3    H266101   5.733   2.228   4.729  2.5864 -1.0175 -0.0262
14896TIP3   OH266102   4.615   0.177   0.521  0.2397 -0.4449 -0.0168
14896TIP3    H166103   4.642   0.255   0.569 -1.3156  0.3808 -0.4381
14896TIP3    H266104   4.672   0.108   0.554 -1.3382 -0.1129  3.7504
14897TIP3   OH266105   5.652   3.992  11.127  0.2983  0.0821 -0.5877
14897TIP3    H166106   5.717   4.006  11.058  0.9771  2.4973  0.4687
14897TIP3    H266107   5.683   3.915  11.175  3.1608  1.9243  0.6825
14898TIP3   OH266108   1.358   6.367  17.144  0.1090  0.1873 -0.5166
14898TIP3    H166109   1.277   6.389  17.096 -1.5892 -1.6066  1.4384
14898TIP3    H266110   1.405   6.451  17.150 -1.9576  1.4331 -1.0089
14899TIP3   OH266111   3.068   6.091  12.796 -0.2299  0.1736 -0.5150
14899TIP3    H166112   3.100   6.073  12.884 -2.9469 -1.5795  0.1660
14899TIP3    H266113   3.136   6.058  12.738  0.9629  0.1097  0.9013
14900TIP3   OH266114   3.521   5.079   0.403  0.1280  0.2120  0.0960
14900TIP3    H166115   3.530   5.158   0.351 -0.2196 -0.4395 -0.9809
14900TIP3    H266116   3.606   5.036   0.397  0.1803  0.2826  0.3176
14901TIP3   OH266117   1.260   0.426   2.005  0.0699 -0.1778 -0.0794
14901TIP3    H166118   1.226   0.463   1.924 -1.7247 -3.2388 -0.8034
14901TIP3    H266119   1.191   0.438   2.069 -0.0195 -1.0536  0.0054
14902TIP3   OH266120   6.409   2.465  14.214 -0.1872  0.4713 -0.1017
14902TIP3    H166121   6.374   2.488  14.128  0.9531 -0.9723 -0.9844
14902TIP3    H266122   6.402   2.546  14.265 -0.7143  1.3989 -1.6041
14903TIP3   OH266123   2.034   6.276  13.273 -0.5967 -0.2892  0.0362
14903TIP3    H166124   1.986   6.206  13.230 -1.9836 -0.5215  1.9070
14903TIP3    H266125   2.040   6.249  13.364  3.1473 -0.2721 -0.1364
14904TIP3   OH266126   0.390   6.615   6.203 -0.2890  0.0060  0.1034
14904TIP3    H166127   0.381   6.552   6.131  0.2191  0.7878 -0.6402
14904TIP3    H266128   0.305   6.660   6.206 -0.0683  0.4628 -0.4648
14905TIP3   OH266129   1.156   0.415   2.705  0.5152  0.3734 -0.0719
14905TIP3    H166130   1.157   0.505   2.672 -1.6642  0.2966 -0.4277
14905TIP3    H266131   1.247   0.389   2.707  1.0620  2.1339 -1.2445
14906TIP3   OH266132   3.171   4.513   5.788  0.2288  0.3837 -0.1198
14906TIP3    H166133   3.181   4.436   5.842 -0.1443  1.1754  1.1023
14906TIP3    H266134   3.124   4.576   5.843  0.6885  1.5515 -1.0175
14907TIP3   OH266135   2.694   4.209   0.302 -0.5970  0.3885  0.0894
14907TIP3    H166136   2.667   4.276   0.365 -1.3674 -0.2672  0.4557
14907TIP3    H266137   2.640   4.226   0.225  0.0061  0.8885 -0.2301
14908TIP3   OH266138   3.767   1.030  12.413 -0.0452 -0.1799 -0.3844
14908TIP3    H166139   3.850   1.079  12.421  0.3324 -0.8305 -0.3043
14908TIP3    H266140   3.786   0.962  12.348 -1.5722  1.9017 -3.1154
14909TIP3   OH266141   2.836   1.444   5.054 -0.2160 -0.3375 -0.0524
14909TIP3    H166142   2.820   1.518   5.112 -0.2804  0.1999 -0.7427
14909TIP3    H266143   2.763   1.445   4.992  0.8429  0.2666 -1.3172
14910TIP3   OH266144   0.445   0.368  16.433  0.1267  0.2372 -0.0457
14910TIP3    H166145   0.523   0.315  16.420 -0.8854 -1.0501 -1.0371
14910TIP3    H266146   0.472   0.457  16.409  1.7994  0.1647  1.5030
14911TIP3   OH266147   2.479   5.176  16.617  0.0307  0.4834  0.4741
14911TIP3    H166148   2.398   5.149  16.660 -0.2176 -1.6110 -1.2002
14911TIP3    H266149   2.465   5.268  16.595 -1.1172  0.6683  1.8919
14912TIP3   OH266150   3.012   3.454   5.085  0.1443  0.3594  0.2033
14912TIP3    H166151   3.090   3.399   5.084  0.2661  0.4335 -3.7732
14912TIP3    H266152   2.941   3.396   5.112  0.9158 -0.7594 -0.1716
14913TIP3   OH266153   1.916   4.712  10.972 -0.2833  0.1268  0.0644
14913TIP3    H166154   1.828   4.701  11.007 -0.9050  0.3702 -1.3653
14913TIP3    H266155   1.924   4.641  10.908  0.4232  0.3270 -0.0681
14914TIP3   OH266156   0.728   3.419   5.720 -0.0666 -0.4076  0.1126
14914TIP3    H166157   0.748   3.487   5.785 -1.2807 -0.3065  0.4137
14914TIP3    H266158   0.794   3.429   5.652  0.4321  0.3540  0.7062
14915TIP3   OH266159   4.864   4.515  15.291  0.0323 -0.0010 -0.2821
14915TIP3    H166160   4.918   4.436  15.296  0.1037 -0.0474 -1.4546
14915TIP3    H266161   4.922   4.581  15.253 -0.0056  0.6382  0.7638
14916TIP3   OH266162   5.457   3.754  11.335 -0.1988 -0.4387  0.1309
14916TIP3    H166163   5.525   3.712  11.283 -0.0775  0.8629 -0.8016
14916TIP3    H266164   5.389   3.776  11.271 -1.2871 -1.3021  0.9744
14917TIP3   OH266165   6.451   2.929  12.569  0.4866  0.6546 -0.3611
14917TIP3    H166166   6.537   2.902  12.602  0.5232 -0.3984 -1.3265
14917TIP3    H266167   6.401   2.849  12.562 -0.4760  1.2299 -0.1271
14918TIP3   OH266168   5.652   6.035  17.234  0.1033 -0.2773  0.2825
14918TIP3    H166169   5.747   6.033  17.246  0.0769  1.3779  0.9540
14918TIP3    H266170   5.621   6.098  17.300 -1.4706 -0.9054  0.1673
14919TIP3   OH266171   0.826   1.290  16.127 -0.2322 -0.3046 -0.3083
14919TIP3    H166172   0.824   1.378  16.164 -1.0399 -0.3319 -0.2806
14919TIP3    H266173   0.880   1.298  16.048 -2.6008  0.8080 -1.8426
14920TIP3   OH266174   1.425   3.135   0.710  0.7510  0.3623  0.4967
14920TIP3    H166175   1.464   3.199   0.650  1.0370 -0.0370  0.2540
14920TIP3    H266176   1.494   3.115   0.772  0.1190  1.5928  1.6348
14921TIP3   OH266177   1.985   2.054  13.751  0.0106  0.2263 -0.4210
14921TIP3    H166178   1.963   1.976  13.700  1.3753 -0.1987 -0.3674
14921TIP3    H266179   2.060   2.092  13.706 -2.1040  2.8697 -1.8582
14922TIP3   OH266180   4.465   4.038  13.442  0.5958  0.0093  0.0994
14922TIP3    H166181   4.418   4.020  13.523 -1.6606  1.2985 -0.8938
14922TIP3    H266182   4.439   3.968  13.382 -0.9851  1.3711 -0.8223
14923TIP3   OH266183   1.514   3.286  17.222 -0.3552  0.3009  0.7732
14923TIP3    H166184   1.465   3.352  17.272 -0.2798  0.0486  1.1898
14923TIP3    H266185   1.581   3.336  17.175  0.5959  0.3990  2.1648
14924TIP3   OH266186   0.727   2.614   5.725 -0.2986 -0.1600  0.1960
14924TIP3    H166187   0.679   2.607   5.642 -0.4028  0.3832  0.2012
14924TIP3    H266188   0.679   2.558   5.785 -0.5041 -0.1909  0.0061
14925TIP3   OH266189   3.142   1.996   2.247 -0.3551 -0.3281 -0.7726
14925TIP3    H166190   3.159   2.070   2.188 -0.0209 -0.2583 -0.5850
14925TIP3    H266191   3.053   2.011   2.279  0.0168  0.4211 -0.1012
14926TIP3   OH266192   3.700   1.011  12.913  0.0085 -0.3926 -0.2245
14926TIP3    H166193   3.761   0.937  12.913  2.0075  1.1971  1.4288
14926TIP3    H266194   3.756   1.087  12.899 -1.5528  1.1524  1.8224
14927TIP3   OH266195   2.305   3.182  11.367 -0.3741  0.3913  0.2984
14927TIP3    H166196   2.400   3.178  11.377 -0.4094  1.0653  0.9405
14927TIP3    H266197   2.291   3.181  11.272  0.2390 -0.2659  0.2063
14928TIP3   OH266198   5.945   2.917  14.280  0.1478 -0.3049 -0.2312
14928TIP3    H166199   5.929   2.889  14.189  3.0562 -1.7249 -0.3391
14928TIP3    H266200   6.003   2.850  14.316  1.2305  1.6958  1.8347
14929TIP3   OH266201   6.206   3.590   3.913 -0.1698 -0.6951 -0.5473
14929TIP3    H166202   6.258   3.583   3.993 -1.4295 -0.8709  0.2662
14929TIP3    H266203   6.186   3.499   3.890 -1.6772 -0.5604  0.1857
14930TIP3   OH266204   5.225   4.940   0.807 -0.4672  0.4413 -0.3822
14930TIP3    H166205   5.225   4.951   0.712  1.6029 -0.0845 -0.4629
14930TIP3    H266206   5.210   5.028   0.841 -0.4194  0.7610 -1.1833
14931TIP3   OH266207   3.113   2.214   5.083 -0.5480 -0.1130  0.4266
14931TIP3    H166208   3.045   2.164   5.038 -1.4099 -0.0499  1.6365
14931TIP3    H266209   3.188   2.154   5.087 -0.7934 -0.4677 -0.1985
14932TIP3   OH266210   5.824   2.137  17.142 -1.1619 -0.1907 -0.0767
14932TIP3    H166211   5.768   2.084  17.198 -2.1718 -0.4507 -1.3007
14932TIP3    H266212   5.786   2.128  17.054 -1.7171  3.0453 -0.2261
14933TIP3   OH266213   3.686   6.275  14.895 -0.1430 -0.0848 -0.0711
14933TIP3    H166214   3.690   6.246  14.804 -3.8719 -0.1211 -0.3185
14933TIP3    H266215   3.593   6.293  14.910  0.5620  1.0492  3.3897
14934TIP3   OH266216   5.223   6.450  13.479  0.4216 -1.1008  0.4854
14934TIP3    H166217   5.192   6.495  13.400  1.7901  1.5479  1.4327
14934TIP3    H266218   5.316   6.438  13.464  0.5122 -1.4227  1.3223
14935TIP3   OH266219   4.321   6.455   6.414  0.0574  0.2204 -0.6331
14935TIP3    H166220   4.410   6.430   6.390  0.5708  2.7030 -1.4419
14935TIP3    H266221   4.329   6.493   6.501 -0.3237 -0.1050 -0.4536
14936TIP3   OH266222   2.876   4.442   1.681 -0.3914  0.0124  0.1994
14936TIP3    H166223   2.839   4.515   1.631 -0.0767 -0.2720 -0.4497
14936TIP3    H266224   2.802   4.408   1.732 -0.9198 -0.2459 -0.7187
14937TIP3   OH266225   1.455   4.406   1.327  0.2244 -0.7373  0.2136
14937TIP3    H166226   1.535   4.399   1.274  0.9046 -1.0336  1.2740
14937TIP3    H266227   1.483   4.383   1.415 -1.0825 -1.0283  0.5560
14938TIP3   OH266228   2.463   1.437  16.560  0.0729  0.6752 -0.2107
14938TIP3    H166229   2.407   1.455  16.636 -1.5238  1.2373 -1.4813
14938TIP3    H266230   2.478   1.523  16.521  1.4668  0.4668 -0.1247
14939TIP3   OH266231   3.290   1.485  10.837  0.2058  0.0707  0.1629
14939TIP3    H166232   3.367   1.463  10.785  0.4152 -0.5824  0.7425
14939TIP3    H266233   3.239   1.404  10.839 -1.3974  0.9916 -1.7554
14940TIP3   OH266234   2.408   2.090   3.659  1.2442 -0.5213 -0.6056
14940TIP3    H166235   2.352   2.163   3.634  0.9668 -0.8615 -0.9948
14940TIP3    H266236   2.494   2.111   3.622  1.2340 -0.2612 -0.4783
14941TIP3   OH266237   3.422   5.232  11.946  0.3819  0.0220  0.1482
14941TIP3    H166238   3.340   5.269  11.978 -0.0231 -1.1953  0.5440
14941TIP3    H266239   3.489   5.295  11.972 -0.3132  0.5623  0.6504
14942TIP3   OH266240   4.384   1.518   3.498  0.5493 -0.5151 -0.3589
14942TIP3    H166241   4.384   1.423   3.507 -0.4810 -0.4623  0.3007
14942TIP3    H266242   4.450   1.548   3.560  0.5117 -0.7665 -0.1955
14943TIP3   OH266243   0.930   5.876   0.872  0.2850  0.5644 -0.1070
14943TIP3    H166244   0.972   5.943   0.819  1.1830 -0.8712 -1.2281
14943TIP3    H266245   0.995   5.854   0.939 -0.0840  0.9239  0.3816
14944TIP3   OH266246   6.732   3.265   0.834 -0.6481 -0.1636 -0.1946
14944TIP3    H166247   6.644   3.302   0.824 -0.3111  1.1603  1.4937
14944TIP3    H266248   6.791   3.337   0.811 -0.0068 -0.3787  0.7460
14945TIP3   OH266249   1.532   2.598   3.644 -0.4855 -0.0470  0.6609
14945TIP3    H166250   1.522   2.684   3.604 -1.6690  1.6018  4.2897
14945TIP3    H266251   1.442   2.564   3.650 -0.1410 -1.0436  0.3020
14946TIP3   OH266252   4.745   1.411   0.712  0.3609 -0.6410  0.3013
14946TIP3    H166253   4.730   1.465   0.634 -0.5576 -2.4835 -0.8423
14946TIP3    H266254   4.837   1.385   0.706  0.4747 -0.2172  0.1959
14947TIP3   OH266255   6.395   4.498   3.294 -0.7416 -0.2906 -0.0456
14947TIP3    H166256   6.383   4.583   3.338 -2.4098 -0.0976 -0.8165
14947TIP3    H266257   6.411   4.521   3.202  1.4532 -0.7375  0.1925
14948TIP3   OH266258   4.778   3.367  12.424  0.2272  0.5547 -0.4211
14948TIP3    H166259   4.860   3.402  12.388  0.4675  0.5900  0.1613
14948TIP3    H266260   4.801   3.280  12.457  0.1369  0.7557  0.1714
14949TIP3   OH266261   4.871   0.996   2.618 -0.1737  0.3650  0.0457
14949TIP3    H166262   4.850   1.040   2.700  0.3411 -1.5607  1.2074
14949TIP3    H266263   4.891   1.068   2.558  1.5655  1.7062  2.1723
14950TIP3   OH266264   4.968   4.114   3.965 -0.7579 -0.1524 -0.5416
14950TIP3    H166265   4.947   4.147   3.878 -1.4360 -0.9752 -0.6884
14950TIP3    H266266   4.997   4.024   3.950 -0.1966 -0.0688  0.0095
14951TIP3   OH266267   1.281   0.836  14.270 -0.3469 -0.0400  0.4959
14951TIP3    H166268   1.235   0.882  14.199 -0.4788  0.6912  1.0410
14951TIP3    H266269   1.236   0.752  14.278  0.2729 -0.5324 -0.9266
14952TIP3   OH266270   4.836   4.007   1.408  0.3899  0.0570 -0.1927
14952TIP3    H166271   4.821   3.931   1.351  2.0050  0.5914 -1.3645
14952TIP3    H266272   4.912   3.983   1.461 -0.9374 -0.3314  1.6075
14953TIP3   OH266273   3.017   0.753   2.472  0.2357  0.0465 -0.0448
14953TIP3    H166274   3.035   0.811   2.547  0.5573  0.6985 -0.6248
14953TIP3    H266275   2.923   0.732   2.480 -0.9093  3.8948 -2.0655
14954TIP3   OH266276   4.805   1.658  12.331 -0.1073  0.0590 -0.0160
14954TIP3    H166277   4.839   1.589  12.388  0.0989 -1.9306 -2.4577
14954TIP3    H266278   4.713   1.665  12.354 -0.0463 -0.7696  0.4842
14955TIP3   OH266279   5.574   6.536   5.578  0.2592  0.4157  0.0697
14955TIP3    H166280   5.636   6.605   5.555  0.3756 -0.0488 -1.0758
14955TIP3    H266281   5.628   6.467   5.616  0.4444  0.0764 -0.7824
14956TIP3   OH266282   3.174   0.794  14.865 -0.0672 -0.3462  0.9005
14956TIP3    H166283   3.182   0.757  14.954 -1.7378  1.2514  1.7381
14956TIP3    H266284   3.197   0.886  14.875 -0.1975 -0.1729 -0.3462
14957TIP3   OH266285   5.816   0.532   5.967 -0.2605  0.4132 -0.4869
14957TIP3    H166286   5.754   0.572   5.906 -1.2556  1.2213  1.0544
14957TIP3    H266287   5.847   0.604   6.022  0.5366 -0.3341  0.0630
14958TIP3   OH266288   3.836   1.253  14.109  0.7462 -0.0413 -0.3618
14958TIP3    H166289   3.792   1.243  14.193  0.9382 -1.0697 -0.3787
14958TIP3    H266290   3.908   1.314  14.126  0.1273  0.6099 -0.0367
14959TIP3   OH266291   3.919   5.946  13.875  0.5355  0.5626 -0.0393
14959TIP3    H166292   3.874   5.883  13.933 -0.4040  1.8635  0.6765
14959TIP3    H266293   4.010   5.945  13.905  0.0124  1.3956  1.6266
14960TIP3   OH266294   2.729   2.010  10.867  0.3441 -0.0923 -0.3060
14960TIP3    H166295   2.675   1.979  10.940  1.2677 -1.0954 -0.0258
14960TIP3    H266296   2.716   2.105  10.867 -1.2984 -0.3040 -0.1704
14961TIP3   OH266297   1.523   2.257  13.497  0.0164  0.5760 -0.4899
14961TIP3    H166298   1.508   2.164  13.480  2.1404 -0.0325  0.8543
14961TIP3    H266299   1.595   2.281  13.439 -1.2104  1.6761 -1.5965
14962TIP3   OH266300   3.048   3.173   1.839 -0.2338  0.3627  0.0411
14962TIP3    H166301   2.959   3.138   1.840 -0.4102  0.7871 -0.4054
14962TIP3    H266302   3.068   3.182   1.745  1.0007 -1.5709  0.1005
14963TIP3   OH266303   1.412   2.493  11.062  0.0608 -0.6531  0.2767
14963TIP3    H166304   1.342   2.533  11.012  0.9621  0.1700 -0.3237
14963TIP3    H266305   1.429   2.410  11.018 -1.6505 -1.6332  1.3913
14964TIP3   OH266306   1.549   1.962  10.390  0.3678  0.1374  0.2096
14964TIP3    H166307   1.499   2.021  10.334 -0.0353  1.8290  2.2657
14964TIP3    H266308   1.579   2.018  10.462 -0.8547 -2.3756  2.7489
14965TIP3   OH266309   3.543   4.951   2.844  0.1903 -0.3610  0.0786
14965TIP3    H166310   3.600   5.028   2.839 -0.2952 -0.0680 -1.2367
14965TIP3    H266311   3.479   4.972   2.912 -1.0925  1.2200 -1.5503
14966TIP3   OH266312   2.225   5.337   6.392  0.2937 -0.0694  0.2547
14966TIP3    H166313   2.226   5.400   6.465 -1.6659 -0.1006  0.3211
14966TIP3    H266314   2.222   5.391   6.314  2.2544 -0.0391  0.1699
14967TIP3   OH266315   4.023   1.669   2.720 -0.0451  0.0522  0.5959
14967TIP3    H166316   4.103   1.633   2.758 -0.1674 -1.3181 -0.3908
14967TIP3    H266317   4.020   1.633   2.632 -2.4191 -1.0083  1.0590
14968TIP3   OH266318   2.271   1.056  12.470  0.0734  0.1320 -0.0691
14968TIP3    H166319   2.184   1.040  12.434 -0.4105 -2.0838  1.9700
14968TIP3    H266320   2.331   1.028  12.402 -0.8125 -1.5849 -0.1632
14969TIP3   OH266321   1.981   5.995   1.199 -0.3998 -0.3993  0.1901
14969TIP3    H166322   1.911   5.968   1.140 -0.2982 -1.1456  0.4016
14969TIP3    H266323   2.051   5.932   1.182 -0.2392 -0.3997  0.8469
14970TIP3   OH266324   5.275   5.641  15.683 -0.1053 -0.6214  0.0190
14970TIP3    H166325   5.343   5.574  15.672  0.8897  0.2703  0.6674
14970TIP3    H266326   5.224   5.637  15.602  2.4368  0.6137 -1.6839
14971TIP3   OH266327   2.134   6.070  12.528 -0.2971 -0.2013  0.0895
14971TIP3    H166328   2.097   6.156  12.547 -0.2989 -0.4421  1.2189
14971TIP3    H266329   2.199   6.086  12.460  2.3038  1.2771  2.8373
14972TIP3   OH266330   0.880   1.626   1.765 -0.2037  0.2866 -0.4326
14972TIP3    H166331   0.806   1.681   1.741 -0.8860  0.0677  1.1092
14972TIP3    H266332   0.946   1.688   1.798 -0.9374  0.2335  1.2182
14973TIP3   OH266333   0.312   3.084  11.143  0.2095  0.0863 -0.1415
14973TIP3    H166334   0.232   3.033  11.156 -0.4288  0.3671 -2.6121
14973TIP3    H266335   0.286   3.174  11.162  0.2734 -0.0002  0.3438
14974TIP3   OH266336   5.727   3.919  16.718 -0.1271 -0.2305 -0.5585
14974TIP3    H166337   5.764   3.954  16.637 -0.6922  0.4489 -0.5245
14974TIP3    H266338   5.745   3.825  16.714  1.2576  0.0257 -0.7240
14975TIP3   OH266339   0.357   0.758   1.450 -0.0709 -0.4422 -0.2834
14975TIP3    H166340   0.360   0.807   1.367  0.3957  1.1404  0.6521
14975TIP3    H266341   0.432   0.791   1.500 -0.7434 -0.9153  1.0505
14976TIP3   OH266342   2.568   3.349  11.107  0.0845 -0.2094 -0.3013
14976TIP3    H166343   2.604   3.437  11.101 -3.2688  1.2395  0.0316
14976TIP3    H266344   2.543   3.327  11.017  1.0801 -0.9487 -0.4167
14977TIP3   OH266345   5.029   3.155  14.094 -0.0053  0.3033 -0.4580
14977TIP3    H166346   5.043   3.125  14.183  0.2115 -3.5834 -1.7008
14977TIP3    H266347   5.115   3.186  14.065  0.9422 -2.3479 -0.6367
14978TIP3   OH266348   2.471   2.276   3.456 -0.3321  0.6958 -0.4622
14978TIP3    H166349   2.512   2.308   3.377 -0.5911  0.5216 -0.6686
14978TIP3    H266350   2.426   2.353   3.492 -0.5600  0.6757 -0.7040
14979TIP3   OH266351   2.794   5.314  12.138  0.3620  0.2328  0.1903
14979TIP3    H166352   2.780   5.221  12.117  0.5814 -0.5831  3.4440
14979TIP3    H266353   2.803   5.356  12.052  1.6062 -2.9502 -1.3482
14980TIP3   OH266354   3.433   6.631  15.047  0.0018 -0.2136  0.0068
14980TIP3    H166355   3.352   6.681  15.056 -0.1463 -0.3618 -0.5062
14980TIP3    H266356   3.440   6.612  14.954  0.6702 -0.1355  0.0368
14981TIP3   OH266357   4.825   1.001  12.661 -0.0449  0.4479 -0.6918
14981TIP3    H166358   4.798   1.036  12.576 -3.6775  0.2061  0.2891
14981TIP3    H266359   4.792   0.911  12.661  0.8376  0.1159  0.6030
14982TIP3   OH266360   0.708   5.401  12.236  0.6494  0.2884 -0.0929
14982TIP3    H166361   0.769   5.473  12.222 -1.2481  2.0289  0.3220
14982TIP3    H266362   0.755   5.323  12.205  2.8517  1.6429 -0.2561
14983TIP3   OH266363   5.306   6.496   2.671 -0.2410 -0.3542 -0.2187
14983TIP3    H166364   5.256   6.562   2.719  0.3544  0.5971 -0.8786
14983TIP3    H266365   5.293   6.415   2.720 -1.2893  0.1787  0.3880
14984TIP3   OH266366   4.182   2.921  17.095  0.5114 -0.5031 -0.0763
14984TIP3    H166367   4.105   2.865  17.089  0.5719 -0.5564 -0.3725
14984TIP3    H266368   4.151   3.001  17.137 -0.1001  0.1906 -1.8397
14985TIP3   OH266369   2.329   3.775   3.541  0.5281  0.0792 -0.2744
14985TIP3    H166370   2.296   3.756   3.628  0.5763 -0.4683 -0.3726
14985TIP3    H266371   2.259   3.824   3.498  0.2188 -0.2710 -0.1686
14986TIP3   OH266372   0.628   4.780  15.550  0.0360 -0.6072 -0.6878
14986TIP3    H166373   0.545   4.750  15.587  0.6088  0.5714  1.6988
14986TIP3    H266374   0.607   4.864  15.509  0.2905  0.4340  1.2416
14987TIP3   OH266375   5.246   6.508   1.189 -0.7086 -0.3316 -0.1394
14987TIP3    H166376   5.328   6.494   1.236 -1.4107 -2.0242  0.6206
14987TIP3    H266377   5.273   6.529   1.099  0.6283  2.5723  0.8653
14988TIP3   OH266378   3.754   4.448   6.220 -0.5430  0.1936  0.2442
14988TIP3    H166379   3.673   4.481   6.260 -0.1878  0.5951  0.6392
14988TIP3    H266380   3.746   4.472   6.128 -1.1804 -0.3625  0.1519
14989TIP3   OH266381   4.751   4.676   5.366  0.0658  0.1278  0.3671
14989TIP3    H166382   4.697   4.707   5.294 -1.9787 -0.7357  1.4861
14989TIP3    H266383   4.798   4.753   5.396 -0.6382  0.9281 -0.5574
14990TIP3   OH266384   5.020   3.621  16.637 -0.4543 -0.5058 -0.5386
14990TIP3    H166385   5.023   3.525  16.639  1.5232 -0.4340  1.2263
14990TIP3    H266386   4.974   3.644  16.718 -0.6035  0.0679 -0.7883
14991TIP3   OH266387   3.518   3.907  12.576  0.0723 -0.5436 -0.2322
14991TIP3    H166388   3.600   3.895  12.624 -1.3813 -0.8716  2.2955
14991TIP3    H266389   3.494   3.819  12.547  0.8585 -0.3731 -1.4232
14992TIP3   OH266390   4.051   5.787   4.526 -0.6252  0.2425 -0.4648
14992TIP3    H166391   4.080   5.756   4.441 -1.0445 -0.2836 -0.4143
14992TIP3    H266392   4.096   5.871   4.537 -0.2107  0.0939 -0.9974
14993TIP3   OH266393   2.612   6.102  12.720 -0.4263  0.2687  0.0667
14993TIP3    H166394   2.518   6.086  12.709 -0.7925  2.4321 -0.1731
14993TIP3    H266395   2.626   6.101  12.815 -1.0707  1.7713  0.2026
14994TIP3   OH266396   1.806   0.375   0.827 -0.3440 -0.5717  0.5284
14994TIP3    H166397   1.759   0.458   0.821 -0.9623 -0.8916  1.0125
14994TIP3    H266398   1.899   0.401   0.823 -0.5222  0.1843  1.2096
14995TIP3   OH266399   5.634   4.135   1.414 -0.3970  0.3695  0.6928
14995TIP3    H166400   5.629   4.226   1.384  0.3652  0.1676 -0.0579
14995TIP3    H266401   5.655   4.085   1.335 -0.9801 -0.4810  1.0755
14996TIP3   OH266402   4.863   4.725  11.252 -0.1963 -0.0277  0.3161
14996TIP3    H166403   4.957   4.729  11.236  0.2838 -0.3518  2.8181
14996TIP3    H266404   4.855   4.690  11.341 -2.7862 -3.1600 -1.0389
14997TIP3   OH266405   5.641   3.943  13.296  0.3946  0.4889 -0.5696
14997TIP3    H166406   5.609   3.904  13.214  0.8915 -1.3086  0.0524
14997TIP3    H266407   5.589   3.900  13.364 -0.7179  2.7190  0.0049
14998TIP3   OH266408   2.621   1.185   2.033  0.2929 -0.2520 -0.3697
14998TIP3    H166409   2.588   1.150   2.116 -1.1307 -1.4489 -1.4108
14998TIP3    H266410   2.542   1.205   1.982  1.1538  0.0267 -1.6109
14999TIP3   OH266411   4.985   4.085  12.968  0.5901  0.6884  0.4219
14999TIP3    H166412   5.042   4.068  12.893 -0.6619  0.9715 -0.6241
14999TIP3    H266413   4.971   4.180  12.965 -1.1574  0.4267 -0.2636
15000TIP3   OH266414   4.226   1.764   1.455 -0.0387  0.4924  1.1204
15000TIP3    H166415   4.301   1.787   1.511  0.4533 -1.3057  1.2093
15000TIP3    H266416   4.260   1.776   1.366  0.4514 -0.6237  1.1567
15001TIP3   OH266417   2.441   4.293   0.701  0.1923  0.4597 -0.2808
15001TIP3    H166418   2.492   4.222   0.739  1.3590  1.1243 -0.5945
15001TIP3    H266419   2.366   4.250   0.660 -0.0653 -0.4226  1.1174
15002TIP3   OH266420   5.606   6.685   6.428  0.3701 -0.0213 -0.2189
15002TIP3    H166421   5.539   6.617   6.422  1.0924 -0.8295  0.6794
15002TIP3    H266422   5.560   6.762   6.460 -0.5603  0.0861 -1.7448
15003TIP3   OH266423   1.597   2.351  11.756  0.2485 -0.6275  0.5112
15003TIP3    H166424   1.513   2.332  11.713 -0.6309  0.0097  1.9071
15003TIP3    H266425   1.605   2.284  11.824  0.9019 -0.7115  0.3548
15004TIP3   OH266426   1.919   6.531   6.482  0.3449  0.3915  0.0048
15004TIP3    H166427   1.935   6.545   6.389  1.2878  2.3494  0.4369
15004TIP3    H266428   1.839   6.580   6.501  1.2510  1.7013  0.6064
15005TIP3   OH266429   4.106   2.314   2.277 -0.1374 -0.2598 -0.7678
15005TIP3    H166430   4.105   2.244   2.342  3.0484 -0.3377 -0.7113
15005TIP3    H266431   4.054   2.384   2.316 -2.4750 -2.1571 -0.3621
15006TIP3   OH266432   4.361   3.161   1.870  0.8146 -1.0619 -0.3825
15006TIP3    H166433   4.279   3.134   1.911  0.3192  1.2480  0.2548
15006TIP3    H266434   4.378   3.095   1.803 -1.8114 -1.3287 -0.8367
15007TIP3   OH266435   2.951   5.898  16.565 -0.4081  0.5385 -0.5220
15007TIP3    H166436   3.012   5.829  16.592 -1.1488  0.5963  1.4123
15007TIP3    H266437   2.872   5.851  16.538 -0.0855  0.5370 -1.4833
15008TIP3   OH266438   5.348   5.212  12.245  0.5719  0.2827  0.0953
15008TIP3    H166439   5.372   5.238  12.156  0.3122  0.8210  0.1812
15008TIP3    H266440   5.382   5.282  12.301  2.4711 -0.9971  0.6236
15009TIP3   OH266441   3.153   3.940  17.077  0.0781 -0.3317  0.2048
15009TIP3    H166442   3.113   3.871  17.129 -2.4083  0.2397 -0.8857
15009TIP3    H266443   3.081   3.975  17.024  1.4548  2.5356  0.1439
15010TIP3   OH266444   3.193   0.625   1.253  0.3691  0.0630 -0.7802
15010TIP3    H166445   3.154   0.677   1.323 -0.6449 -0.3543 -1.0220
15010TIP3    H266446   3.131   0.552   1.241  1.6493 -1.0712 -0.5884
15011TIP3   OH266447   4.780   1.022   3.448  0.3846 -0.1634 -0.1177
15011TIP3    H166448   4.729   1.046   3.370 -1.8839  1.2166  1.7523
15011TIP3    H266449   4.809   1.106   3.484  2.8526 -0.8649 -0.3483
15012TIP3   OH266450   4.774   4.837  16.237 -0.4241 -0.4743  0.0776
15012TIP3    H166451   4.839   4.769  16.256  0.3260  0.1949 -0.0759
15012TIP3    H266452   4.773   4.892  16.316  0.5816  0.6150 -0.6529
15013TIP3   OH266453   0.096   2.393  10.687 -0.0351  0.3475  0.1928
15013TIP3    H166454   0.070   2.308  10.723  2.3204 -0.2461  0.5212
15013TIP3    H266455   0.125   2.443  10.763 -1.1143  1.3714 -0.0438
15014TIP3   OH266456   3.142   5.414  17.162  0.5074  0.0938 -0.3381
15014TIP3    H166457   3.188   5.491  17.129 -2.1460  2.1413  0.5836
15014TIP3    H266458   3.096   5.378  17.086 -0.3153  0.9526 -0.2549
15015TIP3   OH266459   6.722   6.429   0.025  0.0293  0.1830  0.4845
15015TIP3    H166460   6.746   6.510   0.070  2.5841  0.1877 -0.7909
15015TIP3    H266461   6.641   6.450  -0.021  1.2635  2.3813 -0.7588
15016TIP3   OH266462   5.956   1.281  13.465 -0.3156 -0.4786  0.1409
15016TIP3    H166463   6.008   1.340  13.411 -0.5744 -0.7354 -0.3903
15016TIP3    H266464   5.960   1.319  13.553  1.3121 -0.8282  0.2412
15017TIP3   OH266465   6.118   4.677  11.712 -0.0280 -0.1264  0.1977
15017TIP3    H166466   6.107   4.585  11.687 -0.7869 -0.2069  0.8167
15017TIP3    H266467   6.193   4.707  11.661 -0.1711 -0.9159 -0.4756
15018TIP3   OH266468   3.712   3.142  12.264  0.5018 -0.0989  0.1333
15018TIP3    H166469   3.740   3.133  12.356  0.3683  0.1352  0.1966
15018TIP3    H266470   3.653   3.217  12.265 -1.5825 -1.7061  0.3215
15019TIP3   OH266471   5.202   0.627   2.885  0.2882 -0.1111 -0.4666
15019TIP3    H166472   5.193   0.634   2.980  1.5443 -1.5836 -0.2173
15019TIP3    H266473   5.140   0.691   2.850  0.0547  0.6768  1.3463
15020TIP3   OH266474   5.813   2.570   5.154  0.5351  0.4315  0.5402
15020TIP3    H166475   5.765   2.653   5.155  0.6690  0.6154 -2.4532
15020TIP3    H266476   5.760   2.513   5.098  0.9117 -1.2212  1.8411
15021TIP3   OH266477   5.664   5.063  12.046 -0.2207 -0.0986  0.1592
15021TIP3    H166478   5.689   5.048  12.137 -1.1984 -1.3584  0.2399
15021TIP3    H266479   5.594   5.000  12.030 -0.4556  0.5120 -1.2947
15022TIP3   OH266480   1.875   4.714   0.754 -0.0761 -0.3755  0.1468
15022TIP3    H166481   1.921   4.797   0.763  1.4297 -1.1296 -0.3910
15022TIP3    H266482   1.801   4.734   0.697  1.5372  0.1430 -1.8344
15023TIP3   OH266483   6.006   1.313  15.407 -0.4387 -0.0699  0.3235
15023TIP3    H166484   6.076   1.254  15.433 -2.1565 -1.9296  0.9003
15023TIP3    H266485   6.017   1.324  15.313  1.4406  0.8203  0.6208
15024TIP3   OH266486   5.111   3.064   0.839 -0.0840 -0.4358  0.0648
15024TIP3    H166487   5.080   2.982   0.801 -0.4472 -1.0235  1.6076
15024TIP3    H266488   5.146   3.113   0.764 -2.1476 -0.9275 -1.2643
15025TIP3   OH266489   0.323   6.710   5.906  0.0388 -0.0477  0.1516
15025TIP3    H166490   0.379   6.652   5.855  1.3350  0.2678  1.1863
15025TIP3    H266491   0.378   6.785   5.926 -0.6283  0.1046  1.5081
15026TIP3   OH266492   1.836   0.146   4.109 -0.3082 -0.3289  0.0138
15026TIP3    H166493   1.765   0.202   4.141 -0.8213  0.0630 -1.7609
15026TIP3    H266494   1.916   0.185   4.146 -0.7709  0.8487 -0.1924
15027TIP3   OH266495   1.112   2.610   3.061 -0.5507  0.2816 -0.2561
15027TIP3    H166496   1.201   2.614   3.027 -0.6424 -0.1795 -0.5571
15027TIP3    H266497   1.120   2.564   3.144 -0.3417  1.3099  0.3067
15028TIP3   OH266498   6.736   4.985  13.478 -0.4369  0.0762 -0.6739
15028TIP3    H166499   6.737   4.892  13.457 -0.9004  0.1479 -1.0113
15028TIP3    H266500   6.649   5.001  13.515  0.1119  0.1012  0.6386
15029TIP3   OH266501   1.787   2.720   1.958  0.6585 -0.6643  0.9188
15029TIP3    H166502   1.777   2.805   1.916 -0.8212 -1.3553 -0.1687
15029TIP3    H266503   1.866   2.683   1.919  1.4617  0.2890  1.5899
15030TIP3   OH266504   5.486   2.875   1.371  0.3311  0.1551  0.6413
15030TIP3    H166505   5.526   2.915   1.448 -1.2541  0.4154  1.3485
15030TIP3    H266506   5.392   2.895   1.380 -0.0414 -0.9692 -0.6525
15031TIP3   OH266507   6.295   5.586   0.521  0.3717 -0.6812  0.1666
15031TIP3    H166508   6.342   5.669   0.529 -2.9639  1.2801  0.4052
15031TIP3    H266509   6.266   5.566   0.610 -3.0078  0.5099 -0.5968
15032TIP3   OH266510   5.584   5.394   4.432 -0.5994  0.0540  0.4287
15032TIP3    H166511   5.519   5.422   4.367 -0.0087  1.0178  0.2383
15032TIP3    H266512   5.570   5.453   4.506  0.8617  1.0693 -0.0927
15033TIP3   OH266513   1.627   3.988   4.322 -0.0856 -0.2449 -0.0457
15033TIP3    H166514   1.655   4.055   4.385 -0.0197  0.5847 -0.9439
15033TIP3    H266515   1.532   4.000   4.314  0.3114  1.7794 -2.4767
15034TIP3   OH266516   2.565   4.905  14.056 -0.0770 -0.0942  0.0403
15034TIP3    H166517   2.499   4.929  13.991  0.8077  2.1026 -0.0677
15034TIP3    H266518   2.637   4.870  14.004 -0.8282 -1.8013  0.1110
15035TIP3   OH266519   1.267   0.390   0.444 -0.6147  0.7202 -0.2734
15035TIP3    H166520   1.234   0.301   0.452 -0.1313  0.7128  2.0158
15035TIP3    H266521   1.197   0.438   0.401 -1.5654 -0.3973  0.0182
15036TIP3   OH266522   0.792   0.549  16.155  0.2473  0.6227  0.3138
15036TIP3    H166523   0.867   0.580  16.207  1.7422  1.6260 -2.3368
15036TIP3    H266524   0.747   0.629  16.128 -1.0294  0.0684  0.7504
15037TIP3   OH266525   6.164   1.688  12.296  0.0888  0.1208  0.5023
15037TIP3    H166526   6.119   1.730  12.369  0.8170  0.7197  0.6143
15037TIP3    H266527   6.117   1.606  12.283 -0.3113  0.2063  1.3620
15038TIP3   OH266528   2.454   5.431  16.538 -0.0853  0.0044 -0.4413
15038TIP3    H166529   2.498   5.513  16.558 -1.5909  0.2605  2.0134
15038TIP3    H266530   2.383   5.455  16.478 -0.9214  0.6112  0.7796
15039TIP3   OH266531   4.689   2.251  13.279 -0.4268  0.3109  0.5296
15039TIP3    H166532   4.610   2.222  13.325 -1.0637 -0.8721 -1.2671
15039TIP3    H266533   4.656   2.299  13.203  0.5718 -0.0580 -0.1424
15040TIP3   OH266534   5.309   5.478   3.864  0.2705 -0.1570  0.1454
15040TIP3    H166535   5.225   5.518   3.889  1.7976  1.5975  2.7039
15040TIP3    H266536   5.292   5.384   3.864 -2.0925  0.2462 -0.9113
15041TIP3   OH266537   1.912   1.997  13.029 -0.3867  0.4778 -0.5166
15041TIP3    H166538   1.902   1.910  12.991  1.8366 -0.3664  0.7316
15041TIP3    H266539   1.864   1.993  13.112  0.9046 -0.0698  0.2338
15042TIP3   OH266540   4.309   4.897   1.645  0.0591 -0.3424 -0.8047
15042TIP3    H166541   4.295   4.933   1.733  1.3518  0.3097 -0.8575
15042TIP3    H266542   4.221   4.886   1.609 -0.4705 -0.3146  0.4537
15043TIP3   OH266543   5.275   2.090   3.257 -0.4446 -0.2866 -0.0646
15043TIP3    H166544   5.338   2.130   3.317  0.4286  0.4529 -1.4620
15043TIP3    H266545   5.317   2.095   3.171 -1.1175 -2.5059 -0.5619
15044TIP3   OH266546   0.102   5.208  12.581 -0.3900 -0.1836 -0.5009
15044TIP3    H166547   0.175   5.268  12.598 -0.3050 -0.7702  1.2799
15044TIP3    H266548   0.072   5.232  12.493  1.5602  0.4658 -1.0251
15045TIP3   OH266549   5.035   0.151   0.892 -0.0295  0.7440 -0.0821
15045TIP3    H166550   4.981   0.102   0.954  0.5148 -1.1329 -1.0524
15045TIP3    H266551   4.980   0.224   0.864 -1.1488  0.2465  0.8026
15046TIP3   OH266552   1.929   2.753   5.865  0.0504 -0.5279 -0.3488
15046TIP3    H166553   2.002   2.693   5.855  1.1027  0.8045 -0.9075
15046TIP3    H266554   1.944   2.796   5.950 -1.1376 -1.6269  0.4311
15047TIP3   OH266555   0.714   1.637  15.449  0.1610 -0.7200 -0.2922
15047TIP3    H166556   0.672   1.671  15.528 -0.7125  0.4381 -1.2284
15047TIP3    H266557   0.779   1.575  15.481 -1.0092 -1.1662  1.2730
15048TIP3   OH266558   6.736   2.881  15.845 -0.4563  0.3904  0.0337
15048TIP3    H166559   6.675   2.871  15.773 -0.0524  2.7337 -0.6884
15048TIP3    H266560   6.683   2.915  15.917 -0.0179  2.6975 -0.6783
15049TIP3   OH266561   3.605   1.791  13.391  0.3857  0.0501 -0.0606
15049TIP3    H166562   3.561   1.717  13.349  2.5614 -0.5244 -1.4242
15049TIP3    H266563   3.667   1.822  13.325  1.0359  1.7017  1.3056
15050TIP3   OH266564   4.222   2.534  14.558 -0.3460 -0.2256  0.3647
15050TIP3    H166565   4.217   2.627  14.539  1.3226 -0.0993  0.4455
15050TIP3    H266566   4.134   2.501  14.543 -0.5321  1.0413 -1.3539
15051TIP3   OH266567   3.612   6.661  13.972 -0.4258 -0.0673 -0.4812
15051TIP3    H166568   3.517   6.673  13.979 -0.4644  0.9571 -2.5998
15051TIP3    H266569   3.623   6.585  13.916  0.0079  0.8942 -1.7269
15052TIP3   OH266570   4.341   4.659  11.362 -0.2969  0.5588 -0.0832
15052TIP3    H166571   4.418   4.664  11.304 -0.8702  0.0098 -0.8943
15052TIP3    H266572   4.311   4.750  11.369  1.2949  1.0128  1.4448
15053TIP3   OH266573   6.380   1.865   1.930 -0.4294  0.2408 -0.2992
15053TIP3    H166574   6.295   1.903   1.948 -1.0672 -0.1633 -2.3570
15053TIP3    H266575   6.442   1.923   1.975 -1.6798  1.1913  0.2326
15054TIP3   OH266576   2.798   5.113  16.676  0.1725 -0.0156 -0.0613
15054TIP3    H166577   2.760   5.034  16.714  1.9512 -1.1581 -0.5891
15054TIP3    H266578   2.814   5.170  16.751 -3.4363  0.9215  0.0818
15055TIP3   OH266579   2.235   1.557  11.732  0.0704  0.2117  0.8716
15055TIP3    H166580   2.231   1.647  11.763 -3.1572  0.6127 -0.5826
15055TIP3    H266581   2.214   1.504  11.810  1.1250  0.7234  1.5186
15056TIP3   OH266582   3.542   5.676  16.877 -0.0697  0.3647 -0.3132
15056TIP3    H166583   3.547   5.638  16.789 -0.9864  0.2591 -0.3255
15056TIP3    H266584   3.568   5.767  16.865  3.1548 -0.4530 -0.1217
15057TIP3   OH266585   6.076   3.809  15.624  0.2716 -0.1228  0.2528
15057TIP3    H166586   6.003   3.749  15.612  0.8724 -0.3931 -2.2482
15057TIP3    H266587   6.058   3.852  15.708 -2.1972 -0.9489  0.1807
15058TIP3   OH266588   1.602   0.395   5.807 -0.3938 -0.3356  0.3045
15058TIP3    H166589   1.651   0.439   5.876 -0.3772 -0.3766  0.3191
15058TIP3    H266590   1.624   0.303   5.817  0.5318 -0.2014 -0.5065
15059TIP3   OH266591   2.589   5.048  14.790  0.1577  0.4679 -0.9440
15059TIP3    H166592   2.552   5.121  14.840  0.0660  1.0035 -1.7615
15059TIP3    H266593   2.582   5.077  14.699 -3.3596 -2.0999 -1.6074
15060TIP3   OH266594   5.987   1.867   5.276  0.6097  0.6870 -0.5822
15060TIP3    H166595   6.009   1.941   5.332  1.3025 -1.0583  1.5613
15060TIP3    H266596   5.906   1.892   5.232 -1.8705  0.8428  3.8186
15061TIP3   OH266597   3.907   6.276   6.864  0.1444 -0.0997  0.4221
15061TIP3    H166598   3.988   6.306   6.906 -0.7277 -0.1747  2.2328
15061TIP3    H266599   3.862   6.226   6.933 -2.4397  1.7485  0.1403
15062TIP3   OH266600   3.010   3.933   0.816  0.1505  0.0578  0.2683
15062TIP3    H166601   2.991   3.893   0.731 -1.5130  0.8799  0.2498
15062TIP3    H266602   3.016   3.859   0.876 -0.4759 -0.3946 -0.2196
15063TIP3   OH266603   3.750   2.026  12.919  0.4487  0.3020  0.0599
15063TIP3    H166604   3.760   2.072  13.002 -1.6414 -0.2309  0.6465
15063TIP3    H266605   3.819   1.959  12.919  1.4121  1.2867  0.6671
15064TIP3   OH266606   1.358   1.106   1.611  0.0723 -0.2869 -0.5556
15064TIP3    H166607   1.427   1.170   1.592  0.6077 -0.2959  1.3133
15064TIP3    H266608   1.276   1.153   1.595  0.4523  0.9953  1.1215
15065TIP3   OH266609   6.503   4.717  14.150  0.1106 -0.3433  0.3360
15065TIP3    H166610   6.443   4.774  14.102  0.4729 -1.2075 -1.1431
15065TIP3    H266611   6.485   4.737  14.242 -1.4589  0.4166 -0.1131
15066TIP3   OH266612   6.418   0.462  13.502  0.4903  0.0528  0.1864
15066TIP3    H166613   6.378   0.543  13.535 -0.8246 -0.8765  0.9400
15066TIP3    H266614   6.480   0.491  13.435 -2.2599  1.4985 -1.8294
15067TIP3   OH266615   1.715   5.145   3.485  0.0505  0.4627  0.1787
15067TIP3    H166616   1.712   5.188   3.399  1.2994 -0.4738 -0.3644
15067TIP3    H266617   1.659   5.198   3.541 -1.3141  0.7181 -1.3852
15068TIP3   OH266618   5.796   2.165   5.198  0.2402  0.6365 -0.6687
15068TIP3    H166619   5.747   2.173   5.279  0.8924  0.2229 -0.2349
15068TIP3    H266620   5.752   2.226   5.138 -2.0569 -1.2083 -0.9164
15069TIP3   OH266621   3.466   1.330  16.308  0.4824 -0.1003  0.1591
15069TIP3    H166622   3.537   1.336  16.373  0.6311 -0.7945  0.0676
15069TIP3    H266623   3.509   1.344  16.224  0.6327 -1.1642  0.0459
15070TIP3   OH266624   4.321   3.288   5.584 -0.3054 -0.4698 -0.2346
15070TIP3    H166625   4.282   3.354   5.527 -0.8983 -0.0306  0.6635
15070TIP3    H266626   4.261   3.283   5.659  0.0007 -1.6591 -0.0571
15071TIP3   OH266627   3.075   4.466  16.370 -0.1539 -0.2349 -0.4898
15071TIP3    H166628   3.088   4.539  16.431  0.3936  0.8500 -1.8523
15071TIP3    H266629   3.130   4.396  16.405  0.6959  0.5996 -0.1005
15072TIP3   OH266630   3.541   1.731   2.032  0.1674 -0.1559 -0.0103
15072TIP3    H166631   3.521   1.706   1.942  1.8018  1.5492 -0.8635
15072TIP3    H266632   3.458   1.721   2.078 -1.3741  1.6487 -2.3127
15073TIP3   OH266633   3.927   2.383  13.256 -0.2437 -0.1641 -0.5137
15073TIP3    H166634   3.903   2.290  13.254  0.7558 -0.4186 -0.6981
15073TIP3    H266635   4.020   2.383  13.276 -0.6018  0.8633  1.1904
15074TIP3   OH266636   3.708   2.881   0.909 -0.2861  0.1114  0.2346
15074TIP3    H166637   3.756   2.799   0.925 -0.6575 -0.0982  0.2653
15074TIP3    H266638   3.723   2.933   0.989  0.8466  0.5132 -0.2261
15075TIP3   OH266639   0.037   0.078   4.973 -0.2817  0.4709  0.6285
15075TIP3    H166640   0.008   0.112   5.058 -0.5720 -0.3162  0.8485
15075TIP3    H266641   0.037   0.154   4.915 -0.6239  0.9032  1.1941
15076TIP3   OH266642   1.616   6.262  14.697 -0.0545  0.0274  0.0737
15076TIP3    H166643   1.689   6.291  14.752 -0.5959 -1.2777  1.4922
15076TIP3    H266644   1.546   6.325  14.715  0.3714  0.6898 -0.5398
15077TIP3   OH266645   5.759   4.020   3.545 -0.4010 -0.2843 -0.0005
15077TIP3    H166646   5.848   4.024   3.580 -1.3195 -0.3168  2.3830
15077TIP3    H266647   5.741   3.926   3.538 -0.3311 -0.2777 -0.2735
15078TIP3   OH266648   4.254   5.150   5.044 -0.0423 -0.0458  0.0628
15078TIP3    H166649   4.220   5.181   4.960 -0.2029 -0.8729 -0.1763
15078TIP3    H266650   4.322   5.214   5.066 -2.2072  2.0392  0.8953
15079TIP3   OH266651   5.597   5.609   6.027  0.1424  0.8802  0.4068
15079TIP3    H166652   5.637   5.630   6.111  0.7607  0.7583  0.1447
15079TIP3    H266653   5.508   5.581   6.050 -0.0696  1.9432  0.9145
15080TIP3   OH266654   1.774   2.568  15.777 -0.2443 -0.2926 -0.0446
15080TIP3    H166655   1.688   2.611  15.773  0.0621  0.3160 -0.1584
15080TIP3    H266656   1.786   2.547  15.869 -0.2632  0.1499  0.0614
15081TIP3   OH266657   4.533   5.117  16.957 -0.0144 -0.0645 -0.1049
15081TIP3    H166658   4.595   5.062  17.004  0.4312  0.7992  0.3192
15081TIP3    H266659   4.448   5.093  16.994  0.3664  0.9005  1.4595
15082TIP3   OH266660   1.154   5.579  15.613 -0.2771 -0.1878  0.9075
15082TIP3    H166661   1.131   5.635  15.539 -1.9374 -0.3186  1.3093
15082TIP3    H266662   1.161   5.639  15.687  0.5732 -0.1698  0.8190
15083TIP3   OH266663   5.415   2.033   0.708  0.8741 -0.5041 -0.0159
15083TIP3    H166664   5.407   2.118   0.750  0.9540 -0.8166  0.6527
15083TIP3    H266665   5.505   2.005   0.728  0.0631 -1.8481  1.9352
15084TIP3   OH266666   4.333   4.165   2.351 -0.6496 -0.0989  0.3245
15084TIP3    H166667   4.307   4.121   2.270  1.4236 -0.8964  0.0466
15084TIP3    H266668   4.272   4.238   2.360 -0.7309  0.1803 -2.1127
15085TIP3   OH266669   1.663   4.193  15.262  0.3678 -0.1570  0.1577
15085TIP3    H166670   1.715   4.228  15.190 -0.7193 -1.2479 -1.1875
15085TIP3    H266671   1.726   4.147  15.318  1.4147  1.7592  0.6077
15086TIP3   OH266672   4.389   0.273  12.853  0.6519  0.3268  0.1623
15086TIP3    H166673   4.439   0.342  12.899  2.0654  0.5460 -1.6351
15086TIP3    H266674   4.447   0.197  12.854  0.3996  0.1211 -0.6233
15087TIP3   OH266675   2.013   2.289  10.930 -0.6776 -0.0396 -0.2386
15087TIP3    H166676   2.042   2.291  11.021 -0.5940  0.2441 -0.2720
15087TIP3    H266677   2.090   2.261  10.880 -0.9629 -1.0382 -0.1282
15088TIP3   OH266678   3.384   5.319  15.490  0.0895 -0.1778 -0.0840
15088TIP3    H166679   3.367   5.413  15.495 -1.4594 -0.4307 -0.2956
15088TIP3    H266680   3.313   5.285  15.436  1.4166 -1.2802 -1.2012
15089TIP3   OH266681   5.330   4.719  15.396  0.5859 -0.1405  0.3894
15089TIP3    H166682   5.367   4.640  15.356 -0.7767 -0.8781  0.5615
15089TIP3    H266683   5.369   4.791  15.347 -0.2907 -0.9993 -1.6214
15090TIP3   OH266684   2.618   1.788  12.197 -0.3315  0.2262 -0.1255
15090TIP3    H166685   2.655   1.874  12.175  0.5085 -0.0446  0.2036
15090TIP3    H266686   2.635   1.778  12.291  0.6741 -0.8267 -0.4081
15091TIP3   OH266687   4.014   1.574   2.467  0.3168  0.2192  0.0647
15091TIP3    H166688   3.923   1.587   2.441  0.6206 -0.0712 -1.1648
15091TIP3    H266689   4.064   1.587   2.387  1.2014 -1.7034  0.2768
15092TIP3   OH266690   2.718   4.501   5.518 -0.4253  0.3486  0.0224
15092TIP3    H166691   2.687   4.421   5.475  0.2494  0.1388 -0.0713
15092TIP3    H266692   2.751   4.471   5.603 -0.4332  0.5733  0.1066
15093TIP3   OH266693   3.671   1.802   1.632 -0.1323 -0.3100  0.3135
15093TIP3    H166694   3.591   1.756   1.657 -1.8753  2.1530 -0.5997
15093TIP3    H266695   3.678   1.875   1.694 -0.8460  1.8883 -2.1218
15094TIP3   OH266696   4.635   6.327   5.805 -0.3812 -0.4037  0.3781
15094TIP3    H166697   4.656   6.277   5.726  1.8833  1.3105 -0.1609
15094TIP3    H266698   4.662   6.271   5.877 -0.2879 -1.0437 -0.1528
15095TIP3   OH266699   1.597   1.172   5.800 -0.1473  0.4218 -0.3458
15095TIP3    H166700   1.550   1.207   5.725  1.2737  0.0386 -1.4298
15095TIP3    H266701   1.582   1.077   5.796 -0.6177  0.4670  0.2413
15096TIP3   OH266702   4.892   6.602  15.760 -0.5607 -0.3026  0.2144
15096TIP3    H166703   4.966   6.568  15.710 -0.7510 -0.6837  0.1875
15096TIP3    H266704   4.883   6.542  15.834 -0.8409 -0.2532  0.2215
15097TIP3   OH266705   4.968   0.357   3.153 -0.1139  0.4503  0.5890
15097TIP3    H166706   5.029   0.321   3.087  0.5957 -0.6783  1.8374
15097TIP3    H266707   4.935   0.437   3.113 -1.8199 -1.6049 -2.3393
15098TIP3   OH266708   6.467   2.453   5.825 -0.3640  0.6677  0.2447
15098TIP3    H166709   6.529   2.417   5.761 -1.1361  0.2638 -0.2747
15098TIP3    H266710   6.516   2.453   5.907 -0.3520 -1.5602  0.2511
15099TIP3   OH266711   1.659   2.027  12.206 -0.4684 -0.7668  0.1750
15099TIP3    H166712   1.749   2.044  12.177 -0.0385  1.1428  2.4956
15099TIP3    H266713   1.648   1.932  12.195  1.2705 -0.7827 -1.6299
15100TIP3   OH266714   2.201   2.355  14.289  0.4179 -0.1832 -0.0215
15100TIP3    H166715   2.265   2.427  14.293  0.3612 -0.1766  0.7999
15100TIP3    H266716   2.131   2.382  14.348 -0.2741 -0.2650 -0.8023
15101TIP3   OH266717   3.223   1.101  15.670  0.0426 -0.2098 -0.1919
15101TIP3    H166718   3.229   1.193  15.695  1.0178 -0.4964  0.6560
15101TIP3    H266719   3.175   1.060  15.742 -1.1221 -0.2338 -0.9591
15102TIP3   OH266720   4.710   0.810  11.954  0.6059  0.1634  0.4487
15102TIP3    H166721   4.708   0.869  11.879 -0.3272  1.2890  1.3260
15102TIP3    H266722   4.749   0.729  11.921 -0.3307  0.4380 -1.3882
15103TIP3   OH266723   1.753   3.911   5.816  0.0733 -0.7430 -0.1174
15103TIP3    H166724   1.723   3.942   5.901  0.7718 -0.2170 -0.0567
15103TIP3    H266725   1.751   3.816   5.823  0.5981 -0.6982  0.6566
15104TIP3   OH266726   3.855   1.181  16.583  0.4130  0.3378 -0.0737
15104TIP3    H166727   3.923   1.200  16.647 -0.1882  1.5638  0.2124
15104TIP3    H266728   3.794   1.123  16.629 -0.5098  1.9654  0.7764
15105TIP3   OH266729   3.995   2.519  11.907  0.4132 -0.7133 -0.4833
15105TIP3    H166730   4.089   2.537  11.910  0.3043 -0.0966 -0.7593
15105TIP3    H266731   3.975   2.515  11.813  0.0511 -0.2713 -0.4223
15106TIP3   OH266732   4.687   5.949  15.339  0.2941  0.2476  0.0472
15106TIP3    H166733   4.701   6.028  15.392 -0.8511  1.7227 -1.7772
15106TIP3    H266734   4.658   5.883  15.402 -0.5830  1.8137  1.3349
15107TIP3   OH266735   1.858   5.467  11.019  0.0227  0.3545 -0.5883
15107TIP3    H166736   1.937   5.426  11.054  0.3183  0.9859 -0.5069
15107TIP3    H266737   1.884   5.497  10.932 -0.3430 -0.0898 -0.8539
15108TIP3   OH266738   2.614   5.897  12.276 -0.9437 -0.4600 -0.0536
15108TIP3    H166739   2.599   5.819  12.329 -0.1560  0.0128  0.8603
15108TIP3    H266740   2.625   5.968  12.339  0.4938  0.0145 -0.8059
15109TIP3   OH266741   4.967   1.879  10.613 -0.4062 -0.4181 -0.3719
15109TIP3    H166742   4.889   1.914  10.570 -0.8994 -0.7216  0.2581
15109TIP3    H266743   5.017   1.839  10.543 -1.5061 -1.4748 -0.5823
15110TIP3   OH266744   1.553   1.215  13.511 -0.2501 -0.0086  0.4026
15110TIP3    H166745   1.502   1.292  13.488 -0.0563  0.0599  0.2032
15110TIP3    H266746   1.578   1.230  13.603  1.8632  1.3339 -0.3531
15111TIP3   OH266747   2.621   6.463  15.937  0.2018 -0.3271 -0.1842
15111TIP3    H166748   2.529   6.436  15.940  0.3272 -0.6092  1.4507
15111TIP3    H266749   2.622   6.551  15.973  0.6233 -0.4960  0.2280
15112TIP3   OH266750   0.187   1.084  10.739 -0.2435 -0.5265  0.2903
15112TIP3    H166751   0.118   1.127  10.688  1.7428  1.1358 -1.0976
15112TIP3    H266752   0.268   1.113  10.698  1.2405 -4.2924  0.4238
15113TIP3   OH266753   1.021   6.613  16.447 -0.4968 -0.1179 -0.2009
15113TIP3    H166754   1.006   6.530  16.494 -0.9565  0.0228 -0.1012
15113TIP3    H266755   1.011   6.680  16.514  0.4332 -0.0126 -0.1631
15114TIP3   OH266756   4.382   6.708   1.935  0.7172 -0.1791  0.0465
15114TIP3    H166757   4.353   6.768   1.867  0.6311  0.8374  0.9694
15114TIP3    H266758   4.397   6.763   2.011  0.0764 -1.4069  1.0788
15115TIP3   OH266759   4.631   5.611  12.675 -0.3507  0.4439 -0.3701
15115TIP3    H166760   4.628   5.524  12.715  3.0040  0.5174  0.1165
15115TIP3    H266761   4.551   5.616  12.623 -0.7627 -2.7827 -0.1193
15116TIP3   OH266762   5.662   1.322   1.098 -0.0164  0.1555 -0.2939
15116TIP3    H166763   5.747   1.311   1.139  0.6108  1.1580 -1.2977
15116TIP3    H266764   5.604   1.263   1.146  1.3417 -0.8803  0.1052
15117TIP3   OH266765   3.701   4.135  16.772  0.7265  0.4278  0.3727
15117TIP3    H166766   3.681   4.066  16.836 -0.3765  0.1447 -0.2593
15117TIP3    H266767   3.652   4.109  16.694  1.0066  1.4759 -0.1517
15118TIP3   OH266768   4.453   2.425   2.543  0.0068  0.3780  0.2043
15118TIP3    H166769   4.374   2.471   2.571 -0.8908 -0.9892 -0.0035
15118TIP3    H266770   4.421   2.341   2.509  1.5852 -0.3952  0.5594
15119TIP3   OH266771   0.738   4.259   3.551 -0.3280 -0.1996 -0.2362
15119TIP3    H166772   0.679   4.332   3.527  0.6720  1.2328  1.5305
15119TIP3    H266773   0.691   4.213   3.620  0.2959  0.5095  0.6669
15120TIP3   OH266774   5.865   5.086   0.276  0.4687 -0.6035 -0.0483
15120TIP3    H166775   5.822   5.150   0.333  0.8395 -0.8496  0.5151
15120TIP3    H266776   5.907   5.139   0.208  1.3941 -0.1766  0.8253
15121TIP3   OH266777   1.800   5.088   0.814  0.6094  0.2457 -0.0904
15121TIP3    H166778   1.878   5.041   0.783  0.4014  0.2636 -0.6551
15121TIP3    H266779   1.832   5.143   0.886  1.0598  0.0327 -0.1238
15122TIP3   OH266780   3.799   2.482  13.537 -0.0247  0.1762 -0.2466
15122TIP3    H166781   3.891   2.489  13.563 -0.3895  0.6117  0.9677
15122TIP3    H266782   3.799   2.501  13.443  0.9586  1.5537  0.0194
15123TIP3   OH266783   3.119   4.328  14.482  0.5431 -0.3438 -0.0448
15123TIP3    H166784   3.072   4.410  14.496 -0.0578 -0.5981 -0.5521
15123TIP3    H266785   3.151   4.334  14.392 -1.7428 -1.7694 -0.9893
15124TIP3   OH266786   0.517   4.222  15.276  0.3336 -0.5665  0.0487
15124TIP3    H166787   0.432   4.178  15.282  0.0918 -0.0636  0.4360
15124TIP3    H266788   0.547   4.205  15.187  0.5421 -2.0331  0.3834
15125TIP3   OH266789   0.017   6.431   1.537 -0.3465 -0.3612  0.1461
15125TIP3    H166790   0.025   6.391   1.624 -0.4015 -0.9659 -0.1238
15125TIP3    H266791   0.105   6.428   1.501 -0.2706  0.1374  0.2855
15126TIP3   OH266792   4.452   4.104  16.273 -0.0847  0.2751  0.4733
15126TIP3    H166793   4.547   4.099  16.267  0.0176 -1.6083  2.8259
15126TIP3    H266794   4.435   4.194  16.299  1.0732  0.5741  0.2303
15127TIP3   OH266795   6.764   2.359  14.135  0.0419  0.1010 -0.0635
15127TIP3    H166796   6.714   2.358  14.054  0.7274 -0.9377 -0.4765
15127TIP3    H266797   6.738   2.280  14.181 -0.0694  0.5025  0.5757
15128TIP3   OH266798   0.040   4.618   2.730  0.1487 -0.1106 -0.3145
15128TIP3    H166799   0.049   4.563   2.652  0.0868  0.6604 -0.8642
15128TIP3    H266800   0.115   4.594   2.785 -0.5307 -1.6049 -0.0235
15129TIP3   OH266801   2.079   6.329   2.034 -1.1428 -0.3354 -0.3418
15129TIP3    H166802   2.128   6.247   2.021  1.0755  1.0264 -0.8251
15129TIP3    H266803   2.036   6.317   2.118  1.6655 -0.8260  1.0930
15130TIP3   OH266804   0.831   3.799  11.430 -0.6102  0.2854 -0.8230
15130TIP3    H166805   0.822   3.894  11.415 -1.5673  0.6319  1.6653
15130TIP3    H266806   0.907   3.791  11.487 -1.5734 -0.2702  0.4075
15131TIP3   OH266807   4.829   1.119  12.895 -0.3198 -0.4317  0.1124
15131TIP3    H166808   4.742   1.083  12.910  0.0671 -1.0120  1.0859
15131TIP3    H266809   4.863   1.070  12.820  0.1258 -2.0163  1.3036
15132TIP3   OH266810   1.710   1.713   5.016 -0.3307  0.1873 -0.1904
15132TIP3    H166811   1.791   1.698   4.966  0.9959  2.7238  1.0978
15132TIP3    H266812   1.692   1.806   5.004 -2.0580  0.0311  1.0540
15133TIP3   OH266813   6.055   0.585  12.132  0.0440  0.4184 -0.0777
15133TIP3    H166814   6.010   0.602  12.215  0.1895  1.1444 -0.1449
15133TIP3    H266815   6.134   0.537  12.158  0.4842  1.3167  0.2942
15134TIP3   OH266816   3.135   1.701   6.028 -0.7998 -0.5396 -0.2872
15134TIP3    H166817   3.160   1.747   5.947  2.4748  2.1315  2.1140
15134TIP3    H266818   3.177   1.615   6.020  0.4394  0.1121 -0.9615
15135TIP3   OH266819   2.593   5.069   3.558 -0.2857  0.1236  0.1964
15135TIP3    H166820   2.634   5.153   3.541 -1.8827  1.1100  1.1558
15135TIP3    H266821   2.666   5.006   3.559  0.9054  1.4816 -0.5002
15136TIP3   OH266822   4.807   0.978   0.001  0.0074  0.5566 -0.0150
15136TIP3    H166823   4.824   0.887   0.024  0.8743 -0.1100 -3.0070
15136TIP3    H266824   4.712   0.984  -0.006 -0.0897  0.0812  0.9588
15137TIP3   OH266825   2.085   2.097   5.584 -0.3308 -0.1380  0.2697
15137TIP3    H166826   2.010   2.145   5.616 -0.4512  1.5323 -2.3689
15137TIP3    H266827   2.048   2.030   5.526  0.1402  0.0131 -0.2156
15138TIP3   OH266828   3.049   0.938   1.786  0.2254  0.4742  0.6276
15138TIP3    H166829   2.985   0.998   1.748  2.2023  2.9184  1.0629
15138TIP3    H266830   3.011   0.913   1.870 -0.3660  1.5843  0.7040
15139TIP3   OH266831   4.433   4.509  15.379 -0.0463  0.1792 -0.2444
15139TIP3    H166832   4.350   4.517  15.425 -0.1686  1.7004 -0.7203
15139TIP3    H266833   4.473   4.430  15.416 -1.9426 -0.8907 -0.4309
15140TIP3   OH266834   4.793   5.261  16.287 -0.3942  0.1299 -0.2978
15140TIP3    H166835   4.871   5.314  16.307 -1.6685  1.4334  1.3111
15140TIP3    H266836   4.721   5.306  16.331 -1.8265 -1.9345 -0.4529
15141TIP3   OH266837   2.688   3.887  10.328 -0.4354 -0.0895  0.9031
15141TIP3    H166838   2.623   3.956  10.323  0.5871  1.1087  3.5114
15141TIP3    H266839   2.770   3.929  10.302 -0.2731 -1.0287 -0.1621
15142TIP3   OH266840   6.676   5.842   4.676 -0.1596 -0.9095 -0.0888
15142TIP3    H166841   6.589   5.881   4.665  0.7911  0.9895 -1.1306
15142TIP3    H266842   6.681   5.774   4.608 -0.0179  0.5077 -1.5348
15143TIP3   OH266843   2.791   3.314  10.408 -0.3387  0.5905  0.6612
15143TIP3    H166844   2.775   3.233  10.456 -0.6149  1.2083  1.6372
15143TIP3    H266845   2.864   3.355  10.454  1.7412 -0.4912 -1.6040
15144TIP3   OH266846   0.581   1.543   0.124 -0.6465 -0.5902  0.0473
15144TIP3    H166847   0.659   1.586   0.160 -1.7153  1.2435  0.2340
15144TIP3    H266848   0.612   1.502   0.043  0.6175 -0.2905  0.3634
15145TIP3   OH266849   1.843   6.193  16.341  0.4914  0.2172  0.2818
15145TIP3    H166850   1.894   6.272  16.319  0.4968  0.1522  0.0588
15145TIP3    H266851   1.767   6.226  16.389 -0.2553  0.4852 -1.0770
15146TIP3   OH266852   6.772   0.435  15.928  0.4589  0.1769  0.1703
15146TIP3    H166853   6.682   0.414  15.952  0.2518 -1.2210 -1.7197
15146TIP3    H266854   6.784   0.394  15.843  3.1426 -0.3265  0.7585
15147TIP3   OH266855   2.003   0.578   6.064 -0.2495 -0.0666  0.1723
15147TIP3    H166856   1.915   0.546   6.086 -0.9422  1.6435 -0.0021
15147TIP3    H266857   2.044   0.596   6.149 -0.7457  0.8640  0.2237
15148TIP3   OH266858   1.986   0.906   3.921 -0.1173 -0.7465  0.2628
15148TIP3    H166859   2.012   0.814   3.931  1.6431 -0.2802  0.0536
15148TIP3    H266860   2.058   0.956   3.958 -0.3352  0.6021 -1.0879
15149TIP3   OH266861   1.773   2.202  11.213 -0.2532  0.2973 -0.3010
15149TIP3    H166862   1.784   2.295  11.196 -0.3715  0.8446  2.3567
15149TIP3    H266863   1.835   2.183  11.283 -1.5383 -1.2041  0.4580
15150TIP3   OH266864   5.730   3.084  16.195 -0.2458 -0.1222 -0.2220
15150TIP3    H166865   5.772   3.151  16.249 -0.3326  0.5087 -0.9297
15150TIP3    H266866   5.637   3.107  16.198 -0.0418  1.0462 -2.1792
15151TIP3   OH266867   2.335   0.281  12.266  0.1839  0.1361 -0.0024
15151TIP3    H166868   2.428   0.292  12.286  0.3513 -0.1124 -0.6271
15151TIP3    H266869   2.327   0.190  12.236 -0.4561 -0.1880  1.1221
15152TIP3   OH266870   2.007   0.918   4.476 -0.2049 -0.5614 -1.1169
15152TIP3    H166871   1.951   0.935   4.400 -0.1359 -2.3801 -1.6070
15152TIP3    H266872   1.945   0.892   4.546 -0.1808  0.0388 -0.8704
15153TIP3   OH266873   1.723   2.894  12.355 -0.0036 -0.3632  0.3380
15153TIP3    H166874   1.677   2.912  12.273 -0.3212 -0.5921  0.4613
15153TIP3    H266875   1.709   2.800  12.370  1.2173 -0.6095 -0.0514
15154TIP3   OH266876   0.827   4.776   5.813  0.0853 -0.5058 -0.3841
15154TIP3    H166877   0.768   4.751   5.743 -1.4319 -0.4313  0.8384
15154TIP3    H266878   0.772   4.778   5.892  1.3431  1.2531  0.4865
15155TIP3   OH266879   2.158   3.384   1.503  0.2061  0.3880 -0.7644
15155TIP3    H166880   2.197   3.389   1.591 -0.6707  1.3366 -0.4202
15155TIP3    H266881   2.160   3.291   1.481 -0.9434 -0.0544  0.8989
15156TIP3   OH266882   6.510   5.758   5.715 -0.5410 -0.0954  0.0279
15156TIP3    H166883   6.555   5.824   5.768 -0.6272  0.5097 -0.6403
15156TIP3    H266884   6.580   5.706   5.676 -0.4903 -1.0124  1.3092
15157TIP3   OH266885   4.090   3.565  11.031  0.0190 -0.2819  0.0174
15157TIP3    H166886   4.071   3.570  10.937  0.0538 -0.9395 -0.0284
15157TIP3    H266887   4.010   3.598  11.072  0.3326  0.8299 -0.2555
15158TIP3   OH266888   0.824   0.176  15.301 -0.6714  0.2981 -0.1591
15158TIP3    H166889   0.761   0.105  15.287 -1.3260  0.5254  1.5005
15158TIP3    H266890   0.898   0.155  15.244 -0.3806 -2.2982  1.1087
15159TIP3   OH266891   5.563   3.630   4.131 -0.0158 -0.3904  0.2125
15159TIP3    H166892   5.610   3.707   4.162  0.1802 -1.0862  1.6758
15159TIP3    H266893   5.591   3.620   4.040  0.7146  0.6732  0.3083
15160TIP3   OH266894   5.857   0.034   3.174 -0.3289  0.4994 -0.2489
15160TIP3    H166895   5.799   0.043   3.099 -1.2795 -2.0503  0.1585
15160TIP3    H266896   5.920  -0.033   3.148  0.0864  0.4854  0.7800
15161TIP3   OH266897   1.970   1.360   4.859 -0.4526 -0.1605  0.1206
15161TIP3    H166898   1.895   1.376   4.801 -1.6778  1.5589  2.1087
15161TIP3    H266899   1.931   1.349   4.946  1.5002 -0.7963  0.9371
15162TIP3   OH266900   0.801   5.174  12.048 -0.2699 -0.0299 -0.2436
15162TIP3    H166901   0.893   5.180  12.075 -0.3545 -0.5493  0.1760
15162TIP3    H266902   0.783   5.080  12.047 -1.5346  0.1526  2.1879
15163TIP3   OH266903   0.555   4.213  11.121 -0.1054  0.3017  0.3908
15163TIP3    H166904   0.544   4.292  11.068  0.7623 -0.0603 -0.3271
15163TIP3    H266905   0.645   4.217  11.152  1.0762 -2.1561 -2.5324
15164TIP3   OH266906   0.846   4.280   1.036 -0.3543  0.4345  0.1261
15164TIP3    H166907   0.851   4.260   0.942  0.2623 -0.2025  0.2939
15164TIP3    H266908   0.838   4.375   1.039 -0.0650  0.4861 -0.5638
15165TIP3   OH266909   2.476   5.416  14.589 -0.4544 -0.2453 -0.0330
15165TIP3    H166910   2.470   5.465  14.507 -1.5560 -0.6122 -0.1719
15165TIP3    H266911   2.410   5.454  14.646  1.0713  0.7637  1.1041
15166TIP3   OH266912   5.924   2.949   4.978 -0.0360  0.6882 -0.0352
15166TIP3    H166913   5.995   2.885   4.974  0.3324  1.1325 -0.6928
15166TIP3    H266914   5.870   2.931   4.901  0.0276  1.1183 -0.1836
15167TIP3   OH266915   5.011   3.509  16.350  0.4755 -0.3711  0.1715
15167TIP3    H166916   5.000   3.545  16.438  0.5664  2.3211 -0.8761
15167TIP3    H266917   4.933   3.455  16.336 -0.4239  0.6583  1.1938
15168TIP3   OH266918   3.927   5.242   0.105  0.2094  0.3084 -0.6871
15168TIP3    H166919   3.845   5.287   0.124 -1.7165 -2.7296 -1.5468
15168TIP3    H266920   3.914   5.203   0.019 -0.5489 -6.8399  2.3565
15169TIP3   OH266921   6.393   1.053   0.907  0.1333  0.6152 -0.2126
15169TIP3    H166922   6.323   1.118   0.913  0.1914  0.6885 -0.3242
15169TIP3    H266923   6.375   0.992   0.978 -1.7128 -1.0086 -2.0044
15170TIP3   OH266924   1.945   4.861  12.606 -0.2076 -0.1480  0.1936
15170TIP3    H166925   1.956   4.816  12.690  0.8199  0.4767  0.4050
15170TIP3    H266926   1.902   4.944  12.629 -0.1272 -0.0751  0.0834
15171TIP3   OH266927   2.035   0.293   0.197 -0.8139 -0.1132 -0.0108
15171TIP3    H166928   1.992   0.235   0.134 -0.3730 -0.3441 -0.1035
15171TIP3    H266929   2.128   0.285   0.176 -0.6061 -0.6594  1.0620
15172TIP3   OH266930   1.068   4.232  13.255 -0.4497  0.0167 -0.5290
15172TIP3    H166931   0.998   4.231  13.321 -0.8521 -0.0906 -0.9521
15172TIP3    H266932   1.148   4.244  13.305 -0.3108 -4.0447  0.3990
15173TIP3   OH266933   4.806   5.164  12.259  0.4576 -0.8651  0.1041
15173TIP3    H166934   4.733   5.165  12.321 -0.8408  2.2262 -1.3920
15173TIP3    H266935   4.883   5.143  12.312 -0.7350  0.9809  2.6099
15174TIP3   OH266936   4.263   2.607  16.539 -0.2247  0.1957  0.0315
15174TIP3    H166937   4.261   2.684  16.483 -0.2587  0.5238  0.4784
15174TIP3    H266938   4.348   2.567  16.522 -1.8457 -1.9829 -3.2732
15175TIP3   OH266939   4.693   4.774   2.163  0.0307  0.4344  0.0416
15175TIP3    H166940   4.661   4.787   2.252  1.1088  0.0733  0.4830
15175TIP3    H266941   4.754   4.701   2.169  0.9179  1.0858 -0.8000
15176TIP3   OH266942   5.897   0.865  14.179 -0.0233 -0.1825  0.2058
15176TIP3    H166943   5.969   0.845  14.119 -0.4064  2.2893 -1.1234
15176TIP3    H266944   5.828   0.803  14.155 -0.4210  1.2031 -2.3898
15177TIP3   OH266945   2.167   1.759   2.354 -1.1525 -0.7403  0.2845
15177TIP3    H166946   2.243   1.814   2.336 -2.8472  1.4325 -0.3741
15177TIP3    H266947   2.173   1.689   2.289  0.7687 -1.1364  0.8348
15178TIP3   OH266948   0.960   5.044   5.263  0.5619  0.0944  0.1803
15178TIP3    H166949   0.930   5.112   5.203 -0.5661  0.6941  1.4123
15178TIP3    H266950   0.918   4.964   5.230  0.2585  0.3471 -0.0512
15179TIP3   OH266951   6.028   5.440  14.896  0.1354  0.2163 -0.3102
15179TIP3    H166952   6.074   5.357  14.881 -1.8633 -0.8136 -0.8463
15179TIP3    H266953   6.061   5.498  14.827  0.5207 -0.5441 -0.7720
15180TIP3   OH266954   0.287   2.983   3.401  0.6138  0.1673  0.2071
15180TIP3    H166955   0.272   2.986   3.307  1.6921 -0.1529  0.0128
15180TIP3    H266956   0.302   3.074   3.426 -1.5670  0.5020  0.4167
15181TIP3   OH266957   0.091   4.692   2.288  0.0611 -0.2280 -0.0972
15181TIP3    H166958   0.157   4.690   2.358 -0.6816  1.8370  0.6977
15181TIP3    H266959   0.114   4.617   2.232  1.9662 -0.6372  1.1554
15182TIP3   OH266960   3.412   2.345   3.178  0.0347  0.1988 -0.5480
15182TIP3    H166961   3.406   2.284   3.104  2.0596  1.0756 -1.4966
15182TIP3    H266962   3.349   2.414   3.157 -1.4762 -0.9955 -0.0117
15183TIP3   OH266963   2.339   5.203   2.406 -0.2731  0.1626  0.2417
15183TIP3    H166964   2.277   5.175   2.473 -1.8369  3.2969  0.2196
15183TIP3    H266965   2.378   5.283   2.441 -0.7172  1.5652 -2.2587
15184TIP3   OH266966   2.327   4.972  14.903  0.0304  0.3438 -0.3800
15184TIP3    H166967   2.250   4.980  14.958  1.2238  0.2386  1.3391
15184TIP3    H266968   2.372   5.057  14.912 -0.2167  0.6564 -1.9037
15185TIP3   OH266969   4.120   3.887  10.754  0.3750 -0.2171  0.6726
15185TIP3    H166970   4.065   3.942  10.809  0.5182  1.0534 -0.4200
15185TIP3    H266971   4.092   3.798  10.773 -1.7210  0.3739  0.4893
15186TIP3   OH266972   0.007   1.005  11.683 -0.2758 -0.1510  0.2174
15186TIP3    H166973   0.062   0.931  11.707 -0.4760  0.0323  1.2901
15186TIP3    H266974  -0.076   0.990  11.729 -0.0285  1.1485  1.1484
15187TIP3   OH266975   3.041   4.662   2.769 -0.4366  0.0307 -0.0381
15187TIP3    H166976   3.051   4.687   2.677  3.3030 -0.9501  0.0131
15187TIP3    H266977   2.946   4.662   2.784 -1.0247  2.0507 -3.3459
15188TIP3   OH266978   2.767   3.109   1.813  0.7968 -0.0647  0.0304
15188TIP3    H166979   2.738   3.083   1.726 -1.0730  1.6845  0.1109
15188TIP3    H266980   2.719   3.051   1.873 -0.0283  0.5994  0.0153
15189TIP3   OH266981   5.083   6.165  14.776  0.1850  0.3461 -0.0231
15189TIP3    H166982   5.105   6.200  14.862  0.6384 -0.0071  0.0081
15189TIP3    H266983   5.125   6.225  14.714  1.0960 -0.2180  0.0337
15190TIP3   OH266984   3.433   4.514  15.161 -0.3319 -0.4651  0.2558
15190TIP3    H166985   3.374   4.516  15.236  0.4303 -1.0650  0.8840
15190TIP3    H266986   3.499   4.449  15.185 -0.7469 -1.5365 -1.4192
15191TIP3   OH266987   5.511   5.115  16.202  0.3183 -0.2483  0.2564
15191TIP3    H166988   5.509   5.097  16.108 -1.5223  2.7375 -0.3402
15191TIP3    H266989   5.464   5.042  16.242 -0.1356 -0.7973 -1.2680
15192TIP3   OH266990   1.772   2.759   4.061 -0.1698  0.2998  0.8255
15192TIP3    H166991   1.856   2.795   4.087 -0.2153  0.4158  0.8153
15192TIP3    H266992   1.750   2.805   3.980  0.7512 -1.2634 -0.3290
15193TIP3   OH266993   5.805   1.727  11.290  0.5190  0.0447 -0.2693
15193TIP3    H166994   5.893   1.749  11.322  0.1538  0.5660  0.3930
15193TIP3    H266995   5.798   1.633  11.305  0.4253  0.2411  1.0530
15194TIP3   OH266996   0.632   4.428   6.724 -0.1609  1.0667  0.9071
15194TIP3    H166997   0.571   4.443   6.651 -1.1723  0.1254  1.5322
15194TIP3    H266998   0.718   4.423   6.684 -0.9226 -1.5119 -0.5002
15195TIP3   OH266999   0.668   4.520   6.264  0.8115  0.2074  0.0023
15195TIP3    H167000   0.651   4.608   6.296 -0.6114  0.6904 -1.9414
15195TIP3    H267001   0.719   4.478   6.333  1.9230  2.6984  0.7288
15196TIP3   OH267002   6.666   3.330  16.048 -0.8857 -0.1000 -0.2955
15196TIP3    H167003   6.587   3.352  16.098 -0.4567  0.5278  0.1189
15196TIP3    H267004   6.645   3.248  16.005 -1.3749 -0.5034  0.6925
15197TIP3   OH267005   2.018   5.564   0.907 -0.0143 -0.0795  0.0006
15197TIP3    H167006   2.068   5.512   0.970  0.5954  1.4437  0.8067
15197TIP3    H267007   1.975   5.499   0.851 -0.3575 -1.4590  1.8142
15198TIP3   OH267008   3.596   2.953   5.126 -0.3438  0.2525  0.0361
15198TIP3    H167009   3.502   2.958   5.106 -0.3055  2.9108  0.3358
15198TIP3    H267010   3.623   2.868   5.090 -2.5470  0.1076 -1.4269
15199TIP3   OH267011   1.825   6.084   6.112  0.2444 -0.0120  0.1191
15199TIP3    H167012   1.773   6.062   6.189  0.9475  1.5011  1.0506
15199TIP3    H267013   1.790   6.169   6.083  0.0828 -0.5010 -1.1395
15200TIP3   OH267014   3.761   2.365   4.353 -0.4466 -0.5866  0.0655
15200TIP3    H167015   3.754   2.431   4.422 -3.7203  0.0764 -0.7948
15200TIP3    H267016   3.832   2.396   4.297 -1.0256  1.4795  0.4336
15201TIP3   OH267017   0.829   5.591   0.673  0.2630  0.5209 -0.1823
15201TIP3    H167018   0.801   5.547   0.753 -0.1137 -2.0733 -1.6808
15201TIP3    H267019   0.919   5.560   0.659 -0.1891 -0.2052 -1.5414
15202TIP3   OH267020   4.155   3.131  10.222  0.6385  0.5473 -0.0115
15202TIP3    H167021   4.128   3.041  10.203  2.0766  0.0908  0.0249
15202TIP3    H267022   4.097   3.159  10.292  1.1108 -0.8530  0.9587
15203TIP3   OH267023   5.795   0.399   5.241  0.6977 -0.1210 -0.4124
15203TIP3    H167024   5.749   0.439   5.314  1.0030 -1.5472  0.5830
15203TIP3    H267025   5.809   0.471   5.179 -2.3280  0.4788 -0.4881
15204TIP3   OH267026   5.587   4.054   2.183  0.0298 -0.1090  0.7245
15204TIP3    H167027   5.675   4.075   2.215  0.2947 -0.2792  0.1087
15204TIP3    H267028   5.579   3.960   2.198  1.3666 -0.8287 -2.5834
15205TIP3   OH267029   2.284   3.859   1.130  0.2339 -0.6250 -0.2956
15205TIP3    H167030   2.222   3.830   1.196 -1.1790  1.9496 -0.4269
15205TIP3    H267031   2.314   3.945   1.161  0.3807  0.1192 -2.4021
15206TIP3   OH267032   4.372   3.482  16.620  0.1229 -0.3429 -0.2719
15206TIP3    H167033   4.281   3.453  16.611 -0.7861  1.7312  1.7111
15206TIP3    H267034   4.402   3.440  16.701  0.4593  0.1192 -0.1572
15207TIP3   OH267035   6.214   6.057   0.117  0.3751  0.4945 -0.0848
15207TIP3    H167036   6.260   6.139   0.101 -0.8714  0.9659 -1.3393
15207TIP3    H267037   6.216   6.046   0.212  1.6283  1.3334 -0.0080
15208TIP3   OH267038   3.156   2.564  12.178 -0.0868 -0.3290 -0.1123
15208TIP3    H167039   3.081   2.613  12.144 -0.5258 -0.7480  0.2505
15208TIP3    H267040   3.223   2.630  12.193 -0.4517  0.0755 -0.2494
15209TIP3   OH267041   5.344   5.534   6.122  0.3591 -0.0709  0.1797
15209TIP3    H167042   5.250   5.549   6.120  0.4711  1.2794  3.2703
15209TIP3    H267043   5.355   5.450   6.166  0.6026 -0.4725 -0.6268
15210TIP3   OH267044   3.386   2.425   2.413  0.1584  0.5808  0.0521
15210TIP3    H167045   3.342   2.376   2.344 -2.4663 -0.3026  2.2504
15210TIP3    H267046   3.467   2.377   2.428 -1.8485 -2.5791  1.3889
15211TIP3   OH267047   5.276   1.479   4.208  0.3693 -0.0449 -0.0040
15211TIP3    H167048   5.372   1.482   4.212  0.3826  1.9488 -1.2028
15211TIP3    H267049   5.252   1.560   4.164 -1.7728 -1.5939 -1.7895
15212TIP3   OH267050   2.173   5.154   5.317 -0.1867 -0.4236  0.5402
15212TIP3    H167051   2.082   5.158   5.345  0.1825 -1.4703  1.9126
15212TIP3    H267052   2.221   5.121   5.393  1.0309 -1.9691 -0.8476
15213TIP3   OH267053   0.047   3.000  16.536 -0.5386 -0.1540 -0.1071
15213TIP3    H167054   0.072   3.075  16.481  1.1116 -1.0947 -0.6585
15213TIP3    H267055   0.110   3.000  16.607 -0.3216 -1.2337 -0.2992
15214TIP3   OH267056   0.333   4.509   2.277 -0.0411 -0.2625 -0.3747
15214TIP3    H167057   0.401   4.499   2.344  1.0325  0.9754 -1.2546
15214TIP3    H267058   0.267   4.443   2.299  0.0941  0.4092  2.1342
15215TIP3   OH267059   2.954   2.045   4.935  0.0835 -0.3436 -0.0439
15215TIP3    H167060   2.877   2.087   4.898  0.5137  0.6295  0.1489
15215TIP3    H267061   2.949   1.954   4.905 -1.4573 -0.4447  0.4731
15216TIP3   OH267062   4.758   0.878  16.234 -0.4988 -0.6021  0.4451
15216TIP3    H167063   4.669   0.850  16.258 -0.5885 -1.1379 -0.4875
15216TIP3    H267064   4.746   0.940  16.163 -0.2125  0.7784  1.5670
15217TIP3   OH267065   1.678   1.778  10.898 -0.2075  0.0167 -0.2548
15217TIP3    H167066   1.765   1.744  10.922  0.8127  3.5710  1.3740
15217TIP3    H267067   1.697   1.862  10.857 -2.8629  0.1824 -1.1896
15218TIP3   OH267068   5.696   6.116   5.801 -0.0845 -0.1674  0.0116
15218TIP3    H167069   5.776   6.063   5.797 -1.3425 -2.1480  0.0866
15218TIP3    H267070   5.626   6.052   5.810 -1.6090  1.6030  1.0210
15219TIP3   OH267071   4.596   6.119  16.806  0.2243 -0.5105 -0.9266
15219TIP3    H167072   4.627   6.210  16.804 -0.0418 -0.3743  0.2872
15219TIP3    H267073   4.571   6.100  16.716  4.0519 -0.7292 -2.0460
15220TIP3   OH267074   0.689   3.723   0.726  0.3083 -0.0598 -0.3594
15220TIP3    H167075   0.693   3.805   0.677  0.1368  1.3188  1.8859
15220TIP3    H267076   0.779   3.706   0.753  0.3206 -0.5516 -0.6908
15221TIP3   OH267077   2.841   1.017  14.618  0.6931  0.4247 -0.4305
15221TIP3    H167078   2.774   1.079  14.588  0.5831  1.4623  1.8702
15221TIP3    H267079   2.879   1.059  14.696  3.1237 -0.7463 -0.9463
15222TIP3   OH267080   5.618   2.324   0.270  0.7727  0.1453 -0.5716
15222TIP3    H167081   5.544   2.359   0.321  1.3000  0.3124  0.0854
15222TIP3    H267082   5.660   2.401   0.232  0.7700  0.0704 -0.7279
15223TIP3   OH267083   2.372   3.983  15.854  0.2379 -0.4594  0.0345
15223TIP3    H167084   2.411   3.919  15.795  1.2603  0.2380 -0.0548
15223TIP3    H267085   2.343   4.054  15.797  0.3338 -0.2271  0.2726
15224TIP3   OH267086   0.053   2.752   1.589  0.3206 -0.1272 -0.4201
15224TIP3    H167087   0.063   2.660   1.613  0.1681  0.1570  0.7661
15224TIP3    H267088   0.082   2.801   1.666  2.6464  0.8649 -1.8638
15225TIP3   OH267089   6.260   0.601   5.052  0.5536  0.6965  0.1078
15225TIP3    H167090   6.240   0.655   4.975  0.1662 -0.1597 -0.3971
15225TIP3    H267091   6.178   0.557   5.072  1.0020 -0.0903  0.2137
15226TIP3   OH267092   2.331   5.569   6.029  0.5454 -0.3155  0.4055
15226TIP3    H167093   2.240   5.580   6.055  0.1336  0.3123 -1.2196
15226TIP3    H267094   2.375   5.647   6.062 -0.1296  0.8662 -1.3840
15227TIP3   OH267095   0.170   5.736   5.480  0.1196  0.3646 -0.3339
15227TIP3    H167096   0.207   5.816   5.442  0.2886  1.6329  2.4013
15227TIP3    H267097   0.247   5.687   5.510 -0.0564 -0.3279 -0.9829
15228TIP3   OH267098   1.247   5.279  11.934  0.0189  0.0238 -0.2409
15228TIP3    H167099   1.310   5.241  11.872  1.6746  0.8451  0.9019
15228TIP3    H267100   1.301   5.325  11.998 -1.7244  0.1529  1.1802
15229TIP3   OH267101   0.890   0.143   5.984  0.5894  0.4977  0.2133
15229TIP3    H167102   0.911   0.067   6.038  0.6846  2.1076  2.5106
15229TIP3    H267103   0.966   0.152   5.926  1.1665 -0.3751  0.8220
15230TIP3   OH267104   6.004   4.485  12.570  0.0975  0.1588 -0.3835
15230TIP3    H167105   5.986   4.472  12.476 -0.8470  1.5257 -0.4033
15230TIP3    H267106   5.978   4.575  12.587 -0.3205 -0.2771  1.3459
15231TIP3   OH267107   1.208   3.366   4.142  0.2248  0.5286  0.2753
15231TIP3    H167108   1.115   3.375   4.122  0.2570  1.5601  0.5537
15231TIP3    H267109   1.242   3.307   4.075 -0.8737 -0.8697  0.9307
15232TIP3   OH267110   0.050   2.099   1.748  0.0483 -0.7784  0.3773
15232TIP3    H167111   0.037   2.010   1.715  2.9032  0.1263 -3.5814
15232TIP3    H267112  -0.034   2.142   1.736 -0.5668 -2.1557 -0.3194
15233TIP3   OH267113   3.518   2.446   5.122 -0.2362 -0.0541 -0.0356
15233TIP3    H167114   3.484   2.420   5.037  0.5239  0.8796 -0.6450
15233TIP3    H267115   3.592   2.387   5.138  2.4490  2.5683 -2.1132
15234TIP3   OH267116   4.505   5.967   6.458 -0.0739 -0.0930 -0.6794
15234TIP3    H167117   4.482   5.887   6.411 -1.6647 -0.2307  0.2805
15234TIP3    H267118   4.594   5.952   6.489 -1.1369 -2.5015  1.4596
15235TIP3   OH267119   5.948   6.679  16.235  0.2188  0.1148 -0.3392
15235TIP3    H167120   5.935   6.610  16.170  1.6242  1.1164 -1.7131
15235TIP3    H267121   5.877   6.741  16.218  0.4228  0.2400 -0.7455
15236TIP3   OH267122   2.631   1.238  16.485  0.4182  0.7029  0.1289
15236TIP3    H167123   2.697   1.279  16.541  1.0920 -0.6170  0.3129
15236TIP3    H267124   2.550   1.285  16.505  0.8462  0.8771  1.5045
15237TIP3   OH267125   0.558   2.452  11.472 -0.5115  0.2324  0.3533
15237TIP3    H167126   0.535   2.385  11.407 -0.6904  0.8529 -0.2216
15237TIP3    H267127   0.557   2.534  11.424  0.3511  0.5770  0.9177
15238TIP3   OH267128   1.048   3.283   1.763 -0.1417 -0.0275 -0.6346
15238TIP3    H167129   1.142   3.293   1.774 -0.1389  2.0331 -2.2723
15238TIP3    H267130   1.033   3.189   1.771  1.9018 -0.2642  0.6757
15239TIP3   OH267131   2.890   1.260  12.601  0.3213 -0.4395 -0.4968
15239TIP3    H167132   2.946   1.195  12.643 -1.6956 -1.9316 -0.0249
15239TIP3    H267133   2.897   1.337  12.658  0.4856 -1.2144  0.5616
15240TIP3   OH267134   4.378   5.746  12.875  0.1025 -0.3684  0.1764
15240TIP3    H167135   4.350   5.692  12.802  0.5462  1.0810 -1.0825
15240TIP3    H267136   4.377   5.835  12.841  0.9269  0.2609  1.7442
15241TIP3   OH267137   1.673   0.681   1.842  0.0977 -0.0818 -0.2127
15241TIP3    H167138   1.722   0.626   1.781 -0.4746 -0.9782  0.1266
15241TIP3    H267139   1.591   0.701   1.795  0.1060  0.1021 -0.1502
15242TIP3   OH267140   4.147   2.686   2.591  0.2113 -0.6370  0.0192
15242TIP3    H167141   4.062   2.700   2.632 -0.1599 -0.4799 -0.7795
15242TIP3    H267142   4.165   2.593   2.604  0.2805 -0.5061  0.8612
15243TIP3   OH267143   2.057   4.306   0.192 -0.7345 -0.1627  0.4326
15243TIP3    H167144   2.114   4.249   0.141 -2.1781 -2.4771  1.3230
15243TIP3    H267145   2.022   4.369   0.129 -0.4366 -1.3206 -0.8927
15244TIP3   OH267146   4.117   6.735   4.107 -0.2879 -0.6560 -0.3281
15244TIP3    H167147   4.066   6.668   4.061  0.2468 -1.3118  0.0385
15244TIP3    H267148   4.098   6.816   4.059  0.2192 -1.3215 -1.6837
15245TIP3   OH267149   5.397   4.001   0.416 -0.3043 -0.1177  0.2920
15245TIP3    H167150   5.439   3.917   0.433 -0.3659  0.0387  1.2490
15245TIP3    H267151   5.357   4.025   0.499 -0.5696  0.7001 -0.0660
15246TIP3   OH267152   6.136   1.534  15.819  0.5681  0.0549  0.1329
15246TIP3    H167153   6.122   1.627  15.839  2.1817 -0.0576  1.9522
15246TIP3    H267154   6.210   1.533  15.759 -0.4518  0.0342 -1.1274
15247TIP3   OH267155   6.555   4.772   4.945  0.1444 -0.1970  0.3354
15247TIP3    H167156   6.518   4.790   4.859 -1.2532  0.0110  0.9643
15247TIP3    H267157   6.481   4.782   5.005  1.2824  0.4870  1.6449
15248TIP3   OH267158   4.599   3.782  13.865  0.4378 -0.1289  0.4454
15248TIP3    H167159   4.682   3.788  13.912  0.1789 -1.3902  1.0969
15248TIP3    H267160   4.536   3.751  13.930 -0.9324  2.3704  0.3712
15249TIP3   OH267161   2.521   5.322   3.338  0.3774 -0.5260 -0.4293
15249TIP3    H167162   2.449   5.330   3.401  0.3440  3.1833 -0.8212
15249TIP3    H267163   2.599   5.347   3.388  0.7966 -0.5731 -1.0593
15250TIP3   OH267164   5.842   4.812  15.815 -0.0312  0.5986  0.0310
15250TIP3    H167165   5.867   4.738  15.869 -0.7595  0.1317 -0.2665
15250TIP3    H267166   5.854   4.888  15.872 -0.5355  0.1328  0.7682
15251TIP3   OH267167   1.733   1.266   2.391  0.1057  0.1232  0.2688
15251TIP3    H167168   1.741   1.194   2.329 -0.3328  0.4594 -0.1849
15251TIP3    H267169   1.639   1.280   2.400  0.1885  0.6233  0.3690
15252TIP3   OH267170   3.037   4.758  11.752 -0.3591  0.4115 -0.2684
15252TIP3    H167171   3.054   4.755  11.658  0.9411  1.9856 -0.0918
15252TIP3    H267172   3.025   4.851  11.771  0.2253  0.1752  1.2793
15253TIP3   OH267173   5.716   2.230   5.441 -0.0813  0.3081  0.1440
15253TIP3    H167174   5.700   2.294   5.511 -1.9526  0.1782 -0.1345
15253TIP3    H267175   5.676   2.150   5.473  1.3882 -0.4811  0.0553
15254TIP3   OH267176   1.926   3.337   5.864  0.1898 -0.0063  0.0444
15254TIP3    H167177   1.906   3.270   5.929 -0.2482 -0.4006 -0.4958
15254TIP3    H267178   1.981   3.293   5.800  0.3414  0.2946 -0.0346
15255TIP3   OH267179   2.821   1.827  15.853  0.8619 -0.2935  0.0152
15255TIP3    H167180   2.899   1.772  15.854  0.0888 -1.4701 -1.4468
15255TIP3    H267181   2.748   1.765  15.854 -0.0439  0.7411 -0.3528
15256TIP3   OH267182   3.462   4.283   3.328  0.6022 -0.0388  0.7160
15256TIP3    H167183   3.502   4.237   3.253 -1.6317  0.0917 -0.5880
15256TIP3    H267184   3.483   4.227   3.403 -0.7601 -2.4452 -0.6299
15257TIP3   OH267185   1.431   4.571  11.174 -0.2707  0.8814 -0.1617
15257TIP3    H167186   1.381   4.496  11.143  0.7250  0.6381 -1.2278
15257TIP3    H267187   1.375   4.613  11.238 -1.1328 -0.3659 -0.0891
15258TIP3   OH267188   6.754   6.655  11.917 -0.3065  0.6418  0.0347
15258TIP3    H167189   6.730   6.707  11.993  0.8677  0.9832  0.1764
15258TIP3    H267190   6.670   6.632  11.876 -0.9914 -0.2755  1.8883
15259TIP3   OH267191   0.113   3.134  14.680 -0.6476 -0.7806  0.2864
15259TIP3    H167192   0.102   3.207  14.741  0.5534 -2.0657  2.1063
15259TIP3    H267193   0.024   3.112  14.652 -1.1380  0.4111  0.8685
15260TIP3   OH267194   1.676   5.392   0.272 -0.5348  0.1667 -0.1481
15260TIP3    H167195   1.678   5.487   0.259 -0.1181 -0.0870 -2.0648
15260TIP3    H267196   1.765   5.364   0.252 -1.0730 -0.8116 -1.2226
15261TIP3   OH267197   0.985   1.454  16.742 -0.4227 -0.2975  0.4644
15261TIP3    H167198   1.019   1.445  16.831 -0.5289  0.9188  0.6402
15261TIP3    H267199   0.946   1.542  16.741 -1.0268 -0.5779 -0.5773
15262TIP3   OH267200   6.752   2.347  14.497  0.6447 -0.1314 -1.0941
15262TIP3    H167201   6.795   2.316  14.417  2.3732 -0.0247 -0.2381
15262TIP3    H267202   6.824   2.358  14.559 -0.8194 -1.2493  0.8220
15263TIP3   OH267203   4.904   4.286   0.976  0.1251  0.0578  0.1099
15263TIP3    H167204   4.897   4.235   0.896  0.7611  1.6095 -0.9595
15263TIP3    H267205   4.992   4.269   1.008 -0.3028 -0.9549  0.7556
15264TIP3   OH267206   4.982   4.031  14.583 -0.0025 -0.2902  0.1844
15264TIP3    H167207   4.888   4.019  14.575  0.2331 -1.1855 -1.4823
15264TIP3    H267208   5.004   4.091  14.512  0.7779 -0.6036  0.1553
15265TIP3   OH267209   3.563   4.702   6.488  0.1693  0.5821 -0.2746
15265TIP3    H167210   3.608   4.786   6.497 -0.6661  1.2455 -2.0176
15265TIP3    H267211   3.597   4.648   6.560  0.4619  2.5157  1.0752
15266TIP3   OH267212   6.764   4.027  11.454 -0.3584 -0.7051  0.2074
15266TIP3    H167213   6.680   4.022  11.499  0.1270 -0.8077  1.1117
15266TIP3    H267214   6.765   3.953  11.394 -1.4219 -0.0060 -0.6974
15267TIP3   OH267215   1.668   5.346  11.916 -1.5349 -0.5951  0.0088
15267TIP3    H167216   1.642   5.296  11.993 -0.1829 -1.2223  0.0611
15267TIP3    H267217   1.688   5.280  11.850  0.7663 -0.1674  0.2428
15268TIP3   OH267218   5.504   0.718  16.962 -0.0593 -0.1720 -0.9247
15268TIP3    H167219   5.451   0.687  17.035 -0.9484  1.3941 -0.9044
15268TIP3    H267220   5.527   0.808  16.985  2.2719 -0.6746 -1.1238
15269TIP3   OH267221   5.219   0.776   1.101 -0.5478  0.4317 -0.2402
15269TIP3    H167222   5.297   0.721   1.099 -1.1528 -0.4007 -1.0476
15269TIP3    H267223   5.154   0.728   1.051 -0.6844  2.4776 -2.1133
15270TIP3   OH267224   0.720   5.559   0.407  0.1156 -0.9644  0.0614
15270TIP3    H167225   0.776   5.572   0.484  0.1687 -0.7652 -0.0107
15270TIP3    H267226   0.664   5.485   0.431 -0.2094 -0.5839  0.4909
15271TIP3   OH267227   1.427   1.970  16.820  0.2703 -0.0436 -1.1001
15271TIP3    H167228   1.483   1.941  16.748  0.9103  2.3297 -1.5734
15271TIP3    H267229   1.451   2.061  16.835 -1.0290 -0.0166  1.0261
15272TIP3   OH267230   0.306   6.114   5.578  0.4058  0.1337  0.4790
15272TIP3    H167231   0.247   6.135   5.506  0.3323 -0.1092  0.4659
15272TIP3    H267232   0.251   6.120   5.656  0.7095  1.3107  0.6062
15273TIP3   OH267233   5.308   6.415   5.985  0.1241  0.2085 -0.2088
15273TIP3    H167234   5.365   6.392   5.912  0.3589 -2.6789  0.8116
15273TIP3    H267235   5.232   6.358   5.976  0.2164 -0.3037  1.8463
15274TIP3   OH267236   1.594   5.585  16.115 -0.2117 -0.1807  0.2839
15274TIP3    H167237   1.636   5.586  16.030  1.4476  0.3084  1.0895
15274TIP3    H267238   1.566   5.676  16.129  2.3436  0.4633  1.5905
15275TIP3   OH267239   4.582   6.580  16.135  0.0229 -0.2328  0.4957
15275TIP3    H167240   4.576   6.648  16.203  1.6119 -0.5318  0.9507
15275TIP3    H267241   4.608   6.628  16.056 -0.8496 -0.0234  0.3369
15276TIP3   OH267242   6.725   1.786   2.604 -0.4385 -0.0144  0.0729
15276TIP3    H167243   6.676   1.853   2.651 -1.9563 -1.7798  1.0636
15276TIP3    H267244   6.773   1.739   2.672  1.4995  0.7272 -0.7333
15277TIP3   OH267245   2.824   2.551  14.619 -0.3003 -0.3645 -0.7381
15277TIP3    H167246   2.868   2.636  14.628  1.2892 -1.0007 -2.1916
15277TIP3    H267247   2.752   2.555  14.681  0.6048  1.5033  0.2426
15278TIP3   OH267248   3.321   4.796   1.564 -0.2882  0.2316  0.5134
15278TIP3    H167249   3.396   4.827   1.514  1.3655 -2.9051  0.9250
15278TIP3    H267250   3.282   4.728   1.509 -0.2955 -1.0965  2.1254
15279TIP3   OH267251   1.552   3.531  16.775 -0.6786  0.5942 -0.4609
15279TIP3    H167252   1.496   3.562  16.703  0.7672 -0.6820 -2.1675
15279TIP3    H267253   1.598   3.456  16.738  2.6700  2.0018  0.6894
15280TIP3   OH267254   2.085   1.310   4.343  0.5395 -1.1495  0.1178
15280TIP3    H167255   2.115   1.363   4.417 -0.5098  0.2278 -0.4198
15280TIP3    H267256   1.989   1.317   4.346  0.3987 -2.6973 -0.2074
15281TIP3   OH267257   1.767   0.287  15.412 -0.5328  0.0510  0.7136
15281TIP3    H167258   1.805   0.372  15.393  0.5532 -0.5657  0.0434
15281TIP3    H267259   1.695   0.305  15.473 -1.0943  1.5558 -0.3782
15282TIP3   OH267260   5.508   6.235  11.437  0.1794  0.1908 -0.3365
15282TIP3    H167261   5.547   6.194  11.359  0.6237  0.8910 -0.4882
15282TIP3    H267262   5.564   6.206  11.509  0.7173  0.8262 -0.4941
15283TIP3   OH267263   4.646   2.193   4.766  0.1980  0.1830  0.0624
15283TIP3    H167264   4.634   2.282   4.797  2.4838  1.8054 -3.3464
15283TIP3    H267265   4.562   2.168   4.729 -0.8297  0.4032  2.2040
15284TIP3   OH267266   5.192   1.349  16.924 -0.7475  0.0373  0.3017
15284TIP3    H167267   5.104   1.347  16.885 -0.9601 -0.0904  0.7839
15284TIP3    H267268   5.238   1.418  16.876 -1.2572  0.4217  0.3603
15285TIP3   OH267269   1.808   5.969   0.597  0.2462  0.2207 -0.2420
15285TIP3    H167270   1.876   6.023   0.557  1.8688 -0.0332  2.0631
15285TIP3    H267271   1.816   5.883   0.556  3.0486 -0.5444  1.7669
15286TIP3   OH267272   0.333   6.194  14.426  0.2368  0.7383 -0.0795
15286TIP3    H167273   0.358   6.213  14.517  2.2262 -0.6990 -0.2717
15286TIP3    H267274   0.272   6.120  14.433 -0.2837  1.1878  0.1370
15287TIP3   OH267275   5.101   1.903   4.214  0.1543 -0.3278  0.3706
15287TIP3    H167276   5.082   1.874   4.303 -3.6156  1.1955  0.1335
15287TIP3    H267277   5.150   1.984   4.225  0.4395 -0.5843  1.0382
15288TIP3   OH267278   1.944   1.056   5.944  0.6029 -0.3543 -0.0564
15288TIP3    H167279   2.039   1.057   5.958  0.3493 -0.4121  1.7055
15288TIP3    H267280   1.915   1.144   5.969 -0.0091 -0.8063  0.8554
15289TIP3   OH267281   1.913   2.722   3.252  0.5688  0.3591  0.5325
15289TIP3    H167282   1.942   2.731   3.161 -0.8001 -0.6533 -0.0281
15289TIP3    H267283   1.868   2.805   3.270  1.6765  0.9545  0.6178
15290TIP3   OH267284   6.066   0.629  10.777  0.4309 -0.4831  0.0370
15290TIP3    H167285   6.144   0.574  10.783 -1.2944 -3.1368 -0.8549
15290TIP3    H267286   6.064   0.657  10.686  0.0098 -0.9412 -0.0955
15291TIP3   OH267287   1.353   0.497   5.415  0.2991  0.0053 -0.3645
15291TIP3    H167288   1.305   0.559   5.359 -1.3751 -0.0141  1.0051
15291TIP3    H267289   1.324   0.411   5.386  0.0408 -0.0251 -0.0268
15292TIP3   OH267290   1.840   6.775  10.949  0.4307 -0.3466  0.0986
15292TIP3    H167291   1.934   6.756  10.953  0.1669 -1.4354  1.7180
15292TIP3    H267292   1.799   6.693  10.923 -0.2026 -0.3617  1.0917
15293TIP3   OH267293   0.010   5.069  11.556  0.1508 -0.0771 -0.4918
15293TIP3    H167294   0.038   5.076  11.465  1.0784  0.2643 -0.1869
15293TIP3    H267295  -0.003   4.975  11.570  1.1968 -0.2488 -0.6301
15294TIP3   OH267296   6.421   3.757   1.984 -0.2513 -0.1034 -0.1113
15294TIP3    H167297   6.380   3.842   2.001 -0.1303  0.2792 -1.6771
15294TIP3    H267298   6.365   3.716   1.917 -0.9972 -1.7887  1.4855
15295TIP3   OH267299   2.532   3.437  11.464 -0.1373  0.0287 -0.1213
15295TIP3    H167300   2.569   3.524  11.455 -1.8324  0.8326  0.5130
15295TIP3    H267301   2.468   3.444  11.534 -0.1151 -1.7911  0.1190
15296TIP3   OH267302   4.299   2.004  10.275 -0.6752  0.2777 -0.2782
15296TIP3    H167303   4.291   1.909  10.279 -1.2172  0.3885  2.7530
15296TIP3    H267304   4.388   2.019  10.242  0.4277 -1.3372  1.7957
15297TIP3   OH267305   2.964   1.577  11.025 -0.6087 -0.2988 -0.4497
15297TIP3    H167306   3.016   1.539  11.097  0.1200  1.1293 -0.2089
15297TIP3    H267307   2.878   1.536  11.034 -1.0625  1.1706  2.3425
15298TIP3   OH267308   5.158   5.200   5.202  0.0422  0.4160  0.0288
15298TIP3    H167309   5.227   5.183   5.137  0.2471 -0.0652  0.3656
15298TIP3    H267310   5.170   5.131   5.267 -0.9363  0.1784 -0.0484
15299TIP3   OH267311   4.537   0.683  13.659 -0.0584  0.4784 -0.1826
15299TIP3    H167312   4.518   0.757  13.717  0.6414  0.3224  0.2577
15299TIP3    H267313   4.631   0.690  13.643 -0.2053  0.3731 -1.1037
15300TIP3   OH267314   0.585   4.071   1.999 -0.1393  0.4854  0.0116
15300TIP3    H167315   0.564   4.130   2.072 -0.5684 -0.9811  1.0889
15300TIP3    H267316   0.502   4.031   1.976 -0.0689  1.2354 -1.5559
15301TIP3   OH267317   4.782   4.718   4.146  0.9949 -0.2481 -0.2035
15301TIP3    H167318   4.798   4.771   4.068  1.0252 -0.7772 -0.5602
15301TIP3    H267319   4.693   4.686   4.135  0.9451 -0.1976  0.0573
15302TIP3   OH267320   3.709   2.234  12.273  0.5402  0.1568 -0.2839
15302TIP3    H167321   3.747   2.146  12.278 -1.0848 -0.4386  2.3114
15302TIP3    H267322   3.653   2.231  12.196  2.0850 -0.4158 -1.4149
15303TIP3   OH267323   1.664   0.590  17.212 -0.1868  0.3912  0.0297
15303TIP3    H167324   1.664   0.582  17.117 -0.3162  2.4766 -0.1572
15303TIP3    H267325   1.573   0.611  17.234  0.0585  0.9411  0.5257
15304TIP3   OH267326   3.001   2.577   5.635 -0.1247 -0.3924 -0.3810
15304TIP3    H167327   3.074   2.601   5.578 -1.1022 -1.0788 -1.9509
15304TIP3    H267328   3.011   2.483   5.649 -2.5506 -1.1769 -3.3688
15305TIP3   OH267329   4.481   4.504   5.809  0.2722 -0.2879  0.1841
15305TIP3    H167330   4.563   4.479   5.765  0.6120  0.7125  0.2363
15305TIP3    H267331   4.469   4.596   5.786 -0.7561 -0.3922  0.3172
15306TIP3   OH267332   3.284   1.614   5.219  0.0041  0.0924 -0.3208
15306TIP3    H167333   3.356   1.573   5.266  0.2177  1.0322  0.1928
15306TIP3    H267334   3.215   1.548   5.218  0.8375 -0.7765 -0.7358
15307TIP3   OH267335   2.509   1.541   5.058 -0.1472  0.7053 -0.6126
15307TIP3    H167336   2.473   1.555   4.971  0.1528 -1.8943 -1.1796
15307TIP3    H267337   2.549   1.454   5.055  1.3086  1.2339  1.6333
15308TIP3   OH267338   1.727   2.823  14.406  0.0935 -0.1855  0.7520
15308TIP3    H167339   1.651   2.765  14.408  0.1586 -0.2581  1.4007
15308TIP3    H267340   1.795   2.772  14.362 -1.3103  1.2591 -3.3176
15309TIP3   OH267341   3.639   1.069  13.353  0.2984 -0.4667  0.0240
15309TIP3    H167342   3.608   1.063  13.443 -0.1253  0.8042 -0.0262
15309TIP3    H267343   3.586   1.006  13.305  0.6544 -1.2846  0.6875
15310TIP3   OH267344   5.449   1.654   3.100 -0.0615  0.7866  0.0489
15310TIP3    H167345   5.373   1.710   3.120 -0.2444  0.6896 -0.3866
15310TIP3    H267346   5.413   1.583   3.048  0.4536  1.1236 -0.7819
15311TIP3   OH267347   0.065   0.259  12.523 -0.1836  0.5103  0.4474
15311TIP3    H167348   0.058   0.228  12.432 -0.7662 -1.0566  1.0228
15311TIP3    H267349   0.071   0.180  12.575 -1.5778  1.3705  1.9377
15312TIP3   OH267350   0.089   2.782  15.041 -0.0639 -0.3897  0.0297
15312TIP3    H167351   0.140   2.792  14.960 -0.9577  0.0919 -0.4793
15312TIP3    H267352   0.063   2.871  15.064 -0.5995 -0.6260  0.3461
15313TIP3   OH267353   3.240   2.751   1.870  0.2464  0.2685 -0.2726
15313TIP3    H167354   3.243   2.683   1.802  0.1890  0.1201 -0.1250
15313TIP3    H267355   3.172   2.812   1.839  0.7784  0.6292 -0.7533
15314TIP3   OH267356   1.591   0.382  15.598  0.5708  0.3535  0.0387
15314TIP3    H167357   1.517   0.442  15.604 -3.3755 -4.1930 -0.6432
15314TIP3    H267358   1.606   0.354  15.689  0.5218  0.1522 -0.0155
15315TIP3   OH267359   1.064   3.220   5.627 -0.4041  0.3475 -0.6618
15315TIP3    H167360   1.053   3.211   5.721 -0.5645  0.2588 -0.6895
15315TIP3    H267361   1.140   3.278   5.617  1.6472 -2.2593 -0.5016
15316TIP3   OH267362   3.052   1.594   1.886  0.2413  0.5153 -0.0349
15316TIP3    H167363   2.998   1.526   1.846 -0.4179  0.0588  1.6049
15316TIP3    H267364   3.135   1.550   1.905  0.4994  0.6914 -0.7216
15317TIP3   OH267365   1.554   3.167   1.689 -0.2019 -0.8439  0.0365
15317TIP3    H167366   1.601   3.097   1.644  0.2451  0.3126 -1.3545
15317TIP3    H267367   1.608   3.187   1.765  1.6765  0.5516 -1.6131
15318TIP3   OH267368   2.384   6.343  11.689  0.0901 -0.5251 -0.1278
15318TIP3    H167369   2.407   6.255  11.720 -0.1837 -0.6303 -0.2182
15318TIP3    H267370   2.433   6.353  11.607  0.8470 -0.2309  0.3521
15319TIP3   OH267371   1.504   2.715  13.472 -0.3205 -0.0536  0.1139
15319TIP3    H167372   1.442   2.666  13.419 -1.6090  1.0901  0.5286
15319TIP3    H267373   1.506   2.670  13.556 -0.2773 -0.3301 -0.0363
15320TIP3   OH267374   4.905   3.111  15.700 -0.0060 -0.4807  0.0536
15320TIP3    H167375   4.910   3.185  15.761 -0.8049 -1.2487  1.0903
15320TIP3    H267376   4.811   3.096  15.689  0.1029  0.2189 -2.1234
15321TIP3   OH267377   0.991   1.844   2.970  0.0814  0.0559  0.5034
15321TIP3    H167378   1.060   1.908   2.985 -0.9412  1.0126  1.2809
15321TIP3    H267379   0.910   1.892   2.987 -0.8063 -0.8610 -1.0138
15322TIP3   OH267380   0.311   5.198  15.955 -0.1319  0.0892  0.3976
15322TIP3    H167381   0.219   5.215  15.934 -0.6981 -3.2836 -0.0722
15322TIP3    H267382   0.328   5.252  16.033 -3.2035 -1.0080  1.8930
15323TIP3   OH267383   5.329   6.009   2.513 -0.1821 -0.0174 -0.3594
15323TIP3    H167384   5.332   5.951   2.589  0.0275  0.5269  0.0484
15323TIP3    H267385   5.400   5.979   2.457  2.2120  2.0613  1.4619
15324TIP3   OH267386   5.010   3.630   1.443 -0.0394 -0.0593  0.8867
15324TIP3    H167387   5.018   3.566   1.514  1.1145  1.4219  2.1326
15324TIP3    H267388   4.920   3.620   1.411 -0.0732 -1.8400  1.4997
15325TIP3   OH267389   4.967   1.745  11.669  0.6548 -0.2356 -0.0922
15325TIP3    H167390   4.978   1.684  11.596 -0.3168 -2.0738  1.2595
15325TIP3    H267391   4.912   1.698  11.732 -0.2855  2.1192  0.9006
15326TIP3   OH267392   1.758   3.095   5.739  0.1027 -0.2564 -0.3489
15326TIP3    H167393   1.716   3.036   5.677 -0.8111 -0.7107  0.6859
15326TIP3    H267394   1.764   3.045   5.820  2.4811 -0.1238 -0.4211
15327TIP3   OH267395   3.355   2.339   4.479 -0.6675 -0.5529  0.2689
15327TIP3    H167396   3.409   2.310   4.406 -0.3650  0.2357  0.1684
15327TIP3    H267397   3.271   2.362   4.440  0.0835  1.6361 -0.1344
15328TIP3   OH267398   0.928   5.935   6.019 -0.9843 -0.2686  0.2783
15328TIP3    H167399   0.901   6.006   6.078 -0.5698 -2.3379  3.0348
15328TIP3    H267400   1.018   5.916   6.044 -0.8664 -1.3127 -0.9029
15329TIP3   OH267401   5.693   2.048   0.782  0.4628  0.2237  0.1885
15329TIP3    H167402   5.768   2.018   0.731  0.9232  0.3250  0.8172
15329TIP3    H267403   5.698   2.144   0.778 -0.1567  0.2348 -0.5439
15330TIP3   OH267404   0.099   0.891   5.859  0.1351 -0.0636  0.2166
15330TIP3    H167405   0.164   0.824   5.879  0.7362  0.2269 -0.6980
15330TIP3    H267406   0.096   0.947   5.936 -0.9273 -1.5710  1.2950
15331TIP3   OH267407   3.019   0.030   0.776 -0.2297  0.2609  0.1613
15331TIP3    H167408   2.947   0.058   0.720 -0.5711  1.5183  1.2047
15331TIP3    H267409   2.983   0.033   0.865  1.2272  1.3929  0.7494
15332TIP3   OH267410   2.619   5.041   0.590 -0.0897  0.4963  0.5176
15332TIP3    H167411   2.562   5.099   0.540 -0.8586  0.2448  1.0983
15332TIP3    H267412   2.649   4.976   0.527 -0.4629  0.6204  0.2116
15333TIP3   OH267413   3.632   1.398  15.750  0.5210  0.0650  0.1262
15333TIP3    H167414   3.649   1.390  15.656 -3.0536  0.1693 -0.5783
15333TIP3    H267415   3.630   1.307  15.781  0.1323 -0.0499 -0.2213
15334TIP3   OH267416   3.748   2.204  11.954 -0.6291 -0.0436 -0.2482
15334TIP3    H167417   3.658   2.173  11.940 -1.4361  0.9595  2.4274
15334TIP3    H267418   3.769   2.255  11.876 -1.9566 -1.1789 -1.3815
15335TIP3   OH267419   1.751   1.491  11.021 -0.3216  0.6970 -0.4872
15335TIP3    H167420   1.773   1.488  10.928  2.6377  0.0637  0.1640
15335TIP3    H267421   1.782   1.577  11.050 -2.1442  1.2925 -0.2904
15336TIP3   OH267422   0.687   6.213  11.524 -0.2806 -0.2035 -0.3019
15336TIP3    H167423   0.699   6.284  11.462 -1.9710 -1.1532 -1.7493
15336TIP3    H267424   0.607   6.169  11.496  0.5609 -2.4917  0.7329
15337TIP3   OH267425   6.225   2.205   0.610 -0.5120  0.0721  0.5034
15337TIP3    H167426   6.149   2.232   0.559 -1.3128  1.3127  2.2588
15337TIP3    H267427   6.199   2.220   0.701  0.1733 -3.8471  1.4206
15338TIP3   OH267428   2.414   3.285  12.769  0.4177 -0.1699 -0.5619
15338TIP3    H167429   2.341   3.285  12.707 -0.6080  2.1023  0.5625
15338TIP3    H267430   2.463   3.206  12.748 -1.8711 -1.3050 -1.9288
15339TIP3   OH267431   5.771   2.235   0.465  0.2903  0.6623  0.4142
15339TIP3    H167432   5.712   2.242   0.390 -1.3962  0.7080  1.7198
15339TIP3    H267433   5.801   2.144   0.464  0.7849  0.8341 -0.6841
15340TIP3   OH267434   2.569   0.786   2.033  0.7412  0.4403  0.1158
15340TIP3    H167435   2.489   0.839   2.033  0.9358  0.7443  0.9574
15340TIP3    H267436   2.632   0.837   2.084  0.7898 -0.8019  1.3268
15341TIP3   OH267437   0.278   5.149  13.013  0.1446 -0.0872  0.4100
15341TIP3    H167438   0.193   5.111  12.991  0.1826 -1.1579  2.0623
15341TIP3    H267439   0.338   5.116  12.946 -0.4707 -0.4131  0.0259
15342TIP3   OH267440   4.530   1.516   0.859  0.3595 -0.5841 -0.8355
15342TIP3    H167441   4.616   1.517   0.817  0.6547  1.0568 -0.2260
15342TIP3    H267442   4.535   1.443   0.922  2.1129  0.8746  0.7909
15343TIP3   OH267443   1.265   2.939  12.018 -0.3515  1.1917  0.1475
15343TIP3    H167444   1.296   2.969  12.103 -1.4491  2.9340 -0.0344
15343TIP3    H267445   1.341   2.897  11.978 -0.2421 -1.1594  2.6227
15344TIP3   OH267446   2.579   2.033   2.484 -0.0194 -0.6174 -0.1304
15344TIP3    H167447   2.585   2.097   2.555 -1.3524 -0.2168 -0.3650
15344TIP3    H267448   2.628   1.958   2.515 -1.8222 -1.0285  1.8524
15345TIP3   OH267449   3.051   5.245  12.410  0.5443  0.0193  0.0814
15345TIP3    H167450   3.075   5.156  12.384  1.0116  0.4607 -1.0474
15345TIP3    H267451   3.132   5.284  12.443  0.5683  0.3482 -0.3622
15346TIP3   OH267452   4.152   6.503  11.860 -0.3277 -0.5752  0.0197
15346TIP3    H167453   4.240   6.518  11.826 -0.7011  0.0346 -0.6970
15346TIP3    H267454   4.166   6.476  11.951  0.5371  0.7665  0.3045
15347TIP3   OH267455   4.851   1.952   2.522 -0.0078  0.1827  0.2257
15347TIP3    H167456   4.805   2.035   2.538 -1.3396 -0.5306  0.2011
15347TIP3    H267457   4.862   1.950   2.427  0.6668  0.6588  0.2903
15348TIP3   OH267458   3.525   2.122  14.710 -0.3911 -0.6331  0.6402
15348TIP3    H167459   3.535   2.102  14.803  1.2156 -2.3172  0.1502
15348TIP3    H267460   3.503   2.038  14.670  1.2199 -0.4180 -0.7813
15349TIP3   OH267461   4.669   2.080  15.851  0.7059  0.3778  0.1132
15349TIP3    H167462   4.753   2.112  15.816  0.1409  0.7100 -0.9620
15349TIP3    H267463   4.688   2.060  15.943  1.7995  1.0900  0.0603
15350TIP3   OH267464   0.386   5.297  13.548  0.5958  0.5858  0.4682
15350TIP3    H167465   0.456   5.250  13.503 -1.0375 -1.0370 -0.4948
15350TIP3    H267466   0.334   5.336  13.477 -0.6108  0.0621  1.0442
15351TIP3   OH267467   6.726   0.582  10.859  0.5489 -0.2363 -0.4327
15351TIP3    H167468   6.711   0.490  10.881 -0.8440 -0.0164 -0.4051
15351TIP3    H267469   6.764   0.580  10.771  0.3994 -0.8308 -0.4866
15352TIP3   OH267470   4.740   2.749  13.411 -0.0277 -0.1351 -0.3829
15352TIP3    H167471   4.737   2.750  13.506  0.4264  0.1967 -0.3692
15352TIP3    H267472   4.800   2.820  13.388 -1.7865  1.1903 -0.9988
15353TIP3   OH267473   0.742   3.585   3.612 -0.2556 -0.2533  0.2733
15353TIP3    H167474   0.697   3.660   3.649 -0.0653  0.5951 -1.1783
15353TIP3    H267475   0.675   3.539   3.562  0.3841  0.8610 -1.6675
15354TIP3   OH267476   3.949   5.881  17.233  0.4405 -0.0727 -0.7899
15354TIP3    H167477   3.875   5.879  17.173 -0.6694 -0.2178  0.5458
15354TIP3    H267478   4.019   5.924  17.184 -0.5143  0.0251 -2.0881
15355TIP3   OH267479   1.199   1.895  16.658  0.0392  0.4545 -0.1210
15355TIP3    H167480   1.239   1.920  16.575 -0.4797  0.3063 -0.4174
15355TIP3    H267481   1.241   1.952  16.723  0.1430  0.8572 -0.5455
15356TIP3   OH267482   1.418   0.579   1.280  0.2950  0.0014 -0.4044
15356TIP3    H167483   1.436   0.485   1.277  1.7418  0.2679 -0.8458
15356TIP3    H267484   1.497   0.617   1.319 -0.5415  0.9736  0.3678
15357TIP3   OH267485   0.294   3.298   4.673  0.1577  0.1319  0.2197
15357TIP3    H167486   0.245   3.268   4.596  0.5195 -0.9493  0.4032
15357TIP3    H267487   0.280   3.230   4.739  0.8846  0.4211  0.6833
15358TIP3   OH267488   5.522   3.783   2.213  0.0544  0.2200  0.4723
15358TIP3    H167489   5.557   3.697   2.236 -1.4185 -0.6423 -0.4196
15358TIP3    H267490   5.452   3.797   2.277  0.9396  1.2120  1.2372
15359TIP3   OH267491   1.008   2.451  13.028  0.3301  0.0753 -0.3003
15359TIP3    H167492   0.942   2.387  13.002  0.9238 -1.3763  1.6467
15359TIP3    H267493   0.972   2.494  13.105  0.9003  0.5504 -0.2902
15360TIP3   OH267494   2.881   3.829   5.477 -0.0761  0.2720  0.1619
15360TIP3    H167495   2.895   3.757   5.416  0.0551 -0.4847  1.0761
15360TIP3    H267496   2.809   3.799   5.533  0.1468  0.7492  0.7095
15361TIP3   OH267497   5.163   3.011  15.771  0.6837 -0.1682  0.5708
15361TIP3    H167498   5.237   3.009  15.711  1.0048  0.1397  0.9583
15361TIP3    H267499   5.093   3.053  15.721  0.9809  0.1857  0.4492
15362TIP3   OH267500   6.381   5.977  12.159 -0.2739 -0.7803 -0.3351
15362TIP3    H167501   6.354   5.887  12.178  0.0095 -0.5888  0.9668
15362TIP3    H267502   6.464   5.967  12.111  0.0452 -1.1959  0.2991
15363TIP3   OH267503   0.283   3.619  11.904  0.3852  1.0956  0.2956
15363TIP3    H167504   0.362   3.598  11.855  0.1960  0.6067  0.2022
15363TIP3    H267505   0.276   3.551  11.971 -1.0419 -0.0453 -0.9611
15364TIP3   OH267506   1.202   4.673  12.954  0.4360 -0.0617  0.1585
15364TIP3    H167507   1.157   4.627  12.883 -1.7586  1.1209  0.7185
15364TIP3    H267508   1.207   4.609  13.025  0.1944 -0.4065 -0.1351
15365TIP3   OH267509   5.730   6.686  12.235  0.1611  0.1514  0.1876
15365TIP3    H167510   5.700   6.742  12.306 -1.3652 -0.7922  0.3212
15365TIP3    H267511   5.676   6.713  12.160 -0.8451 -1.3715  0.3519
15366TIP3   OH267512   6.525   4.576  11.625  0.0205  0.5372 -0.4035
15366TIP3    H167513   6.534   4.483  11.605  0.6351  0.4745  0.1335
15366TIP3    H267514   6.463   4.579  11.698 -1.2867  0.6791 -1.4979
15367TIP3   OH267515   1.334   2.636   4.441  0.4458 -0.1435 -0.4640
15367TIP3    H167516   1.356   2.704   4.504 -0.4520 -0.4797  0.2227
15367TIP3    H267517   1.238   2.633   4.441  0.4747 -1.4421 -0.4408
15368TIP3   OH267518   0.788   0.708  15.264 -0.0370 -1.0581  0.1654
15368TIP3    H167519   0.812   0.621  15.298  1.7349 -1.1674 -1.2687
15368TIP3    H267520   0.790   0.698  15.169  2.0392  1.0052 -0.0626
15369TIP3   OH267521   0.254   1.705  10.623  0.1926  0.2525 -0.2731
15369TIP3    H167522   0.264   1.800  10.617 -1.0354  0.4801  1.1772
15369TIP3    H267523   0.165   1.687  10.592  0.3214 -0.4095 -0.2764
15370TIP3   OH267524   3.054   6.621   3.277  0.1281  0.7872 -0.0597
15370TIP3    H167525   3.104   6.699   3.252 -1.6254  1.9813  0.0803
15370TIP3    H267526   3.109   6.579   3.343  1.2248  1.7473 -0.3235
15371TIP3   OH267527   5.296   0.077  12.065 -0.1801  0.2023 -0.7870
15371TIP3    H167528   5.273   0.051  11.975  0.3698  0.3250 -0.9631
15371TIP3    H267529   5.337   0.163  12.056  2.9628 -1.2337 -0.8080
15372TIP3   OH267530   0.131   3.358  16.151 -0.0028  0.2750  0.4029
15372TIP3    H167531   0.044   3.376  16.115 -0.1814 -0.4553  0.4667
15372TIP3    H267532   0.189   3.361  16.075 -0.4418 -1.6963 -0.0259
15373TIP3   OH267533   4.210   3.784   4.499  0.3744  0.5010  0.4636
15373TIP3    H167534   4.279   3.847   4.480  0.2190 -0.1410 -2.3646
15373TIP3    H267535   4.131   3.820   4.459 -0.8165  0.8140  2.9559
15374TIP3   OH267536   6.582   1.997  14.412  0.7769 -0.6164  0.0352
15374TIP3    H167537   6.560   2.087  14.388  0.5538 -0.8622 -0.6895
15374TIP3    H267538   6.527   1.978  14.488  0.8357 -0.1398  0.2004
15375TIP3   OH267539   2.272   5.059   0.361  0.2501 -0.4177  0.3924
15375TIP3    H167540   2.284   4.969   0.390  2.7734 -0.4658 -0.7054
15375TIP3    H267541   2.330   5.111   0.416 -0.4058  0.4177  0.3221
15376TIP3   OH267542   0.785   4.860   4.906  0.1282 -0.0149 -0.7535
15376TIP3    H167543   0.868   4.859   4.955 -0.8700 -1.6997  0.9893
15376TIP3    H267544   0.780   4.948   4.870  1.8856  0.6478  0.5209
15377TIP3   OH267545   3.394   2.102   1.050  0.0980 -0.2737  0.0567
15377TIP3    H167546   3.469   2.130   1.103 -0.1090  1.8275 -0.7051
15377TIP3    H267547   3.378   2.012   1.076  2.4854 -0.5292  0.7148
15378TIP3   OH267548   1.605   0.836   5.544 -0.6059  0.7262  1.2017
15378TIP3    H167549   1.661   0.855   5.468 -1.9111  0.3344  0.1315
15378TIP3    H267550   1.631   0.748   5.571 -2.8187 -0.7331 -1.2236
15379TIP3   OH267551   3.843   2.409   2.514  0.2997 -0.0837  0.1001
15379TIP3    H167552   3.913   2.360   2.557  0.3251 -0.1887 -0.0624
15379TIP3    H267553   3.771   2.347   2.506  0.1903  0.0225  0.2613
15380TIP3   OH267554   4.621   2.941  11.515  0.3788  0.1701 -0.2004
15380TIP3    H167555   4.542   2.964  11.467  0.7926  0.2168 -0.8759
15380TIP3    H267556   4.655   3.025  11.548 -0.9189 -0.0620  1.8077
15381TIP3   OH267557   5.723   2.249  14.752 -0.0595  0.0398 -0.1887
15381TIP3    H167558   5.776   2.242  14.832  2.0434 -0.5251 -1.5741
15381TIP3    H267559   5.670   2.170  14.752  1.1079 -0.7599 -0.1451
15382TIP3   OH267560   3.298   6.498   1.950 -0.2780 -1.0672  0.2472
15382TIP3    H167561   3.246   6.469   2.025 -0.6173  1.0955  0.8766
15382TIP3    H267562   3.234   6.536   1.890  0.1639 -1.5607 -0.5522
15383TIP3   OH267563   6.281   6.242  17.105  0.1961 -0.1860  0.5089
15383TIP3    H167564   6.199   6.291  17.094 -0.8011 -1.7637  0.7254
15383TIP3    H267565   6.259   6.153  17.077  1.6185 -0.8259  1.3758
15384TIP3   OH267566   5.006   0.173  12.059 -0.1663  0.1857  0.2013
15384TIP3    H167567   5.096   0.157  12.032  0.4535  2.0163  1.0917
15384TIP3    H267568   4.966   0.219  11.984 -0.5666 -1.2189 -0.4576
15385TIP3   OH267569   6.494   0.203  11.847  0.0039 -0.0710 -0.5929
15385TIP3    H167570   6.549   0.142  11.897 -1.8355 -0.7439  0.6965
15385TIP3    H267571   6.517   0.188  11.756 -0.1503 -2.4751 -0.2619
15386TIP3   OH267572   4.044   3.016   2.413 -0.4054 -0.5480  0.3000
15386TIP3    H167573   4.134   3.040   2.436 -0.2129 -0.7344 -0.2605
15386TIP3    H267574   4.051   2.976   2.326 -1.5694  3.6587 -1.8865
15387TIP3   OH267575   3.048   5.514  15.938 -0.2382  0.4491  0.2632
15387TIP3    H167576   3.027   5.608  15.937 -0.7555  0.3344 -1.0836
15387TIP3    H267577   3.003   5.481  16.015 -0.1857  1.2871  0.6581
15388TIP3   OH267578   1.117   4.148  11.771  0.1515 -0.0412  0.1720
15388TIP3    H167579   1.129   4.098  11.852  1.2600  1.0201  0.6801
15388TIP3    H267580   1.047   4.210  11.792  1.1743  0.9563  0.6782
15389TIP3   OH267581   2.273   0.240   0.486  0.1963 -0.1099 -0.0306
15389TIP3    H167582   2.212   0.236   0.560 -0.3301  1.4245 -0.3568
15389TIP3    H267583   2.242   0.173   0.426 -0.7497  0.1675  0.1302
15390TIP3   OH267584   4.500   3.941  10.645  0.1168 -0.4295 -0.0074
15390TIP3    H167585   4.494   4.021  10.592 -0.9097 -0.5874 -0.1378
15390TIP3    H267586   4.592   3.914  10.637  0.5099  0.8270  0.1754
15391TIP3   OH267587   1.382   4.166  12.010  0.4545 -0.3458  0.4990
15391TIP3    H167588   1.388   4.202  12.098  0.0447 -2.2571  1.3312
15391TIP3    H267589   1.312   4.101  12.015  0.8750 -0.9518 -1.0631
15392TIP3   OH267590   0.137   6.027   3.680 -0.3275 -0.3754 -0.0354
15392TIP3    H167591   0.226   6.049   3.709 -0.4571  1.9480 -1.2914
15392TIP3    H267592   0.082   6.043   3.757  0.6093 -4.4654  1.6214
15393TIP3   OH267593   1.712   2.651  12.135  0.2596  1.0668  0.1705
15393TIP3    H167594   1.792   2.623  12.178 -0.0546 -0.7150 -0.3568
15393TIP3    H267595   1.741   2.688  12.051  0.3907 -1.9371 -1.1650
15394TIP3   OH267596   4.702   6.144  15.867 -0.7311  0.1809  0.2030
15394TIP3    H167597   4.754   6.089  15.924 -0.6326  0.0653  0.0027
15394TIP3    H267598   4.740   6.132  15.780  0.7769  2.3197  0.5169
15395TIP3   OH267599   4.827   2.700   6.003 -0.9344  0.3422  0.4384
15395TIP3    H167600   4.749   2.749   6.029 -1.5375 -0.6802  0.5919
15395TIP3    H267601   4.885   2.703   6.079 -0.7487  1.2334  0.2697
15396TIP3   OH267602   4.691   3.631   4.387  0.2278  0.1130 -0.1941
15396TIP3    H167603   4.701   3.615   4.481  0.5925  0.1303 -0.2266
15396TIP3    H267604   4.778   3.614   4.350  0.7722  2.5784 -0.1570
15397TIP3   OH267605   1.721   2.827   2.987 -0.0036  0.3769  0.2919
15397TIP3    H167606   1.653   2.764   3.010 -2.3401  1.7446 -2.5058
15397TIP3    H267607   1.705   2.901   3.046  0.8906 -0.4537  1.5873
15398TIP3   OH267608   0.549   6.768  14.434 -0.3110  0.4303  0.0901
15398TIP3    H167609   0.537   6.784  14.340  0.8189  0.5664 -0.0413
15398TIP3    H267610   0.498   6.689  14.452 -0.2046  0.1713 -0.7266
15399TIP3   OH267611   2.388   2.878  12.235  0.5272 -0.2577 -0.2254
15399TIP3    H167612   2.295   2.895  12.218  0.7925  0.6778 -0.7824
15399TIP3    H267613   2.413   2.814  12.168  0.9368  1.5192 -1.8235
15400TIP3   OH267614   6.455   4.802  11.974  0.2100  0.0669 -0.3450
15400TIP3    H167615   6.539   4.826  12.013 -0.4271 -1.6124  2.2106
15400TIP3    H267616   6.446   4.860  11.898  3.5038  0.4769 -0.4948
15401TIP3   OH267617   0.706   0.197   2.254 -0.3861  0.2870 -0.0263
15401TIP3    H167618   0.788   0.150   2.265  0.4433  1.7960  0.4071
15401TIP3    H267619   0.701   0.256   2.330 -1.1803  1.2111 -0.7757
15402TIP3   OH267620   2.567   2.786  13.776  0.2370  0.1568 -0.6040
15402TIP3    H167621   2.620   2.725  13.725 -1.2226 -3.0690  1.5606
15402TIP3    H267622   2.511   2.828  13.710  0.6510 -1.5191 -2.0889
15403TIP3   OH267623   4.864   2.361  12.948  0.2920 -0.2738 -0.6038
15403TIP3    H167624   4.801   2.288  12.950  0.8527 -0.8109 -1.7469
15403TIP3    H267625   4.949   2.318  12.946  0.6875  0.4505  0.6076
15404TIP3   OH267626   0.831   5.841   5.631 -0.1419  0.0731 -0.2824
15404TIP3    H167627   0.873   5.887   5.558  1.8155 -0.4186  0.5026
15404TIP3    H267628   0.744   5.882   5.639 -0.4589  0.0090 -2.9780
15405TIP3   OH267629   4.919   1.540   1.812  0.2720 -0.3443  0.3410
15405TIP3    H167630   4.882   1.539   1.724  0.1874 -1.8436  0.3837
15405TIP3    H267631   5.012   1.518   1.800  0.0572 -1.4591  0.7182
15406TIP3   OH267632   2.380   4.817   2.169  0.4250  0.2170  0.6960
15406TIP3    H167633   2.287   4.841   2.162  0.1616 -0.3968  1.9750
15406TIP3    H267634   2.420   4.857   2.092 -0.8613  0.6810  0.2414
15407TIP3   OH267635   3.571   6.051  13.103  0.2166 -0.2333 -0.3382
15407TIP3    H167636   3.578   6.137  13.145  0.2765 -1.7022  2.7968
15407TIP3    H267637   3.656   6.039  13.059 -0.2420  1.7787 -1.8921
15408TIP3   OH267638   1.317   5.992   0.107  0.2450 -0.1378  0.1354
15408TIP3    H167639   1.380   5.951   0.048 -0.3192  0.0123 -0.5797
15408TIP3    H267640   1.368   6.059   0.153  0.7394 -0.4110 -0.0077
15409TIP3   OH267641   0.970   5.510   6.568  0.1029 -0.0312 -0.4163
15409TIP3    H167642   1.034   5.530   6.500  0.3934 -0.0611 -0.1543
15409TIP3    H267643   1.021   5.467   6.637 -0.0693  0.5977  0.1062
15410TIP3   OH267644   1.722   1.441   5.797 -0.0339 -0.3798  0.1959
15410TIP3    H167645   1.682   1.354   5.801 -0.3876 -0.1528  2.7085
15410TIP3    H267646   1.808   1.430   5.838 -0.1562  0.4863  0.6966
15411TIP3   OH267647   2.657   5.927   3.519 -0.4919  0.0444 -0.3203
15411TIP3    H167648   2.654   5.975   3.436  0.9857  1.9074  0.6578
15411TIP3    H267649   2.567   5.931   3.552 -0.9444 -0.1512 -1.5355
15412TIP3   OH267650   1.181   3.075   4.433  0.2353  0.1559 -0.1718
15412TIP3    H167651   1.275   3.060   4.426 -0.1007 -0.8906 -3.5512
15412TIP3    H267652   1.171   3.169   4.416  0.8047  0.7121  2.3761
15413TIP3   OH267653   6.263   3.745  16.405  0.5435  0.2279 -0.0840
15413TIP3    H167654   6.268   3.796  16.485  2.6245 -0.0157 -0.0250
15413TIP3    H267655   6.238   3.657  16.433  0.6720  0.2955  0.2421
15414TIP3   OH267656   6.123   1.139  10.886  0.8954 -0.2248  0.3117
15414TIP3    H167657   6.087   1.066  10.936  1.9031 -1.8440 -1.2439
15414TIP3    H267658   6.074   1.138  10.804  1.7993  0.0355 -0.2351
15415TIP3   OH267659   2.522   6.446  11.024 -0.1477  0.2089  0.0663
15415TIP3    H167660   2.543   6.354  11.009  0.7209  0.1205  1.6630
15415TIP3    H267661   2.426   6.448  11.030 -0.0753 -0.9318  1.9785
15416TIP3   OH267662   5.697   1.315  11.079  0.1832  0.1657 -0.1852
15416TIP3    H167663   5.721   1.398  11.039  0.3886 -0.2715 -0.9765
15416TIP3    H267664   5.771   1.257  11.062  0.1722 -0.0881  0.6343
15417TIP3   OH267665   3.755   4.866  15.552  0.2864  0.0630 -0.5728
15417TIP3    H167666   3.748   4.917  15.471 -2.4974  1.5066  0.4937
15417TIP3    H267667   3.682   4.805  15.548  2.0211 -2.0646 -0.5689
15418TIP3   OH267668   3.818   5.226  16.416 -0.0409  0.5982  0.0525
15418TIP3    H167669   3.809   5.135  16.446  2.7813  1.1014  2.6442
15418TIP3    H267670   3.868   5.218  16.334  0.4868 -0.1682  0.4386
15419TIP3   OH267671   2.062   0.896   5.186  0.5690 -0.4347 -0.0150
15419TIP3    H167672   2.031   0.808   5.210 -1.2245  0.0246 -0.5484
15419TIP3    H267673   1.993   0.930   5.128  1.2288  1.3468  0.2231
15420TIP3   OH267674   4.800   2.846  14.934 -0.4090  0.0591  0.0211
15420TIP3    H167675   4.830   2.807  14.852 -0.3155 -1.4226  0.7407
15420TIP3    H267676   4.763   2.773  14.984 -2.4855  1.3091  0.4095
15421TIP3   OH267677   0.367   1.778   6.164  0.0548  0.1926 -0.6757
15421TIP3    H167678   0.370   1.732   6.247  2.1163  0.5166 -0.5484
15421TIP3    H267679   0.337   1.866   6.187 -0.2728  0.0135 -0.4126
15422TIP3   OH267680   4.665   2.987  15.763  0.3391  0.0884 -0.6400
15422TIP3    H167681   4.570   2.987  15.765  0.3092  1.1336 -1.4860
15422TIP3    H267682   4.691   3.010  15.853 -0.2436  2.0492 -0.9462
15423TIP3   OH267683   1.208   1.511   0.299 -0.2919  0.5710 -0.6952
15423TIP3    H167684   1.222   1.429   0.346 -0.7457  0.9905  0.1827
15423TIP3    H267685   1.288   1.561   0.313 -0.0518  0.3201 -1.1544
15424TIP3   OH267686   2.046   5.464   5.596  0.3833  0.1307  0.4604
15424TIP3    H167687   2.046   5.393   5.660 -0.0831  0.3674  0.7222
15424TIP3    H267688   1.958   5.502   5.601  1.2671  2.0959  1.8498
15425TIP3   OH267689   4.222   2.439   2.699 -0.1573  0.4802  0.8315
15425TIP3    H167690   4.152   2.375   2.689 -0.5259  0.7116  1.9216
15425TIP3    H267691   4.276   2.405   2.771  2.6072 -1.2953 -1.9420
15426TIP3   OH267692   6.230   5.218  15.079  0.3445 -0.5871  0.2234
15426TIP3    H167693   6.315   5.249  15.108  0.0371 -1.3375  1.9637
15426TIP3    H267694   6.176   5.216  15.158 -0.6533 -2.2195 -0.4731
15427TIP3   OH267695   2.109   5.965  11.954  0.0888 -0.1211  0.1480
15427TIP3    H167696   2.150   5.922  11.879 -0.3319  1.4215 -0.9900
15427TIP3    H267697   2.016   5.946  11.945  0.0179  0.2078  0.1998
15428TIP3   OH267698   6.028   0.852  10.946  0.3234 -0.3502  0.2990
15428TIP3    H167699   6.012   0.796  11.021 -0.4479 -2.0679 -1.1253
15428TIP3    H267700   6.061   0.793  10.878 -1.4080  0.7262 -1.5309
15429TIP3   OH267701   6.223   5.200  13.583  0.0062  0.0822 -0.1118
15429TIP3    H167702   6.155   5.201  13.650 -0.8053 -0.2956 -0.9121
15429TIP3    H267703   6.245   5.108  13.571 -0.9929 -0.0030 -1.4747
15430TIP3   OH267704   3.622   0.998   2.082 -0.3535 -0.1639 -0.3656
15430TIP3    H167705   3.541   0.962   2.116 -1.1010  1.1963 -0.6726
15430TIP3    H267706   3.614   0.989   1.987 -0.6674  1.0760 -0.4553
15431TIP3   OH267707   3.299   3.105  13.669 -0.1431 -0.0934 -0.8263
15431TIP3    H167708   3.331   3.193  13.689  1.5412 -0.4541 -1.8714
15431TIP3    H267709   3.312   3.057  13.751 -0.4690  0.4527 -0.4464
15432TIP3   OH267710   0.902   4.461   5.587 -0.1818 -0.2778  0.0019
15432TIP3    H167711   0.979   4.405   5.585 -0.7906 -1.1066 -0.7263
15432TIP3    H267712   0.937   4.550   5.598  0.9476 -0.5367 -1.2935
15433TIP3   OH267713   0.578   4.898   2.930  0.1366  1.2005  0.3299
15433TIP3    H167714   0.598   4.902   3.023 -0.4825  0.2352  0.5110
15433TIP3    H267715   0.628   4.970   2.891 -1.4660  3.0923  1.7284
15434TIP3   OH267716   5.151   4.790   0.075  0.1274  0.1124 -0.2676
15434TIP3    H167717   5.235   4.835   0.082  0.1238  0.4985 -2.4628
15434TIP3    H267718   5.091   4.857   0.042 -0.5699 -0.7032 -0.6519
15435TIP3   OH267719   2.291   1.038  16.034  0.1310 -0.0132  0.4334
15435TIP3    H167720   2.327   1.088  15.960  1.4372 -1.4724  0.0744
15435TIP3    H267721   2.196   1.048  16.025  0.2613 -0.3861 -1.6070
15436TIP3   OH267722   6.648   3.382   3.476 -0.5308 -0.3366 -0.1834
15436TIP3    H167723   6.581   3.447   3.455 -0.6677 -0.6943 -0.8880
15436TIP3    H267724   6.608   3.326   3.542 -0.4725  0.1927  0.3016
15437TIP3   OH267725   1.021   1.392  11.934  0.0537 -0.0282  0.1217
15437TIP3    H167726   1.035   1.457  11.866  0.2889  1.6788  1.7664
15437TIP3    H267727   0.927   1.372  11.928  0.7652 -2.8517 -3.2498
15438TIP3   OH267728   1.517   4.885   6.286 -0.0915 -0.0940 -0.4926
15438TIP3    H167729   1.470   4.968   6.298  1.7028  1.1578 -1.8785
15438TIP3    H267730   1.552   4.865   6.373 -0.4793  0.6363 -0.1632
15439TIP3   OH267731   4.089   3.856  15.732  0.9150 -0.5167  0.5635
15439TIP3    H167732   4.121   3.791  15.670  2.0562  1.1682 -0.6736
15439TIP3    H267733   4.169   3.895  15.769  0.2543  0.5663  0.8643
15440TIP3   OH267734   3.973   5.539  14.208 -0.2672  0.0183 -0.4928
15440TIP3    H167735   4.060   5.506  14.187  0.1741  0.9483 -0.1825
15440TIP3    H267736   3.929   5.466  14.250  0.4037 -0.4304 -0.5632
15441TIP3   OH267737   4.669   2.560   1.453  0.0872  0.4502 -0.1555
15441TIP3    H167738   4.584   2.602   1.441 -0.0378 -0.0032 -0.9822
15441TIP3    H267739   4.684   2.560   1.547 -0.5548  1.0687 -0.0521
15442TIP3   OH267740   2.215   5.081  12.388  0.5394 -0.1843  0.2263
15442TIP3    H167741   2.293   5.088  12.443  0.9005 -2.4799  0.0767
15442TIP3    H267742   2.151   5.033  12.442  0.0822 -0.4172 -0.5049
15443TIP3   OH267743   2.059   4.363  16.275 -0.2478  0.1794  0.4644
15443TIP3    H167744   2.041   4.452  16.247 -0.1812  0.3736  1.0410
15443TIP3    H267745   2.022   4.357  16.363 -1.2638 -0.7008 -0.0167
15444TIP3   OH267746   0.118   4.164   5.127  0.5901  0.0557 -0.0675
15444TIP3    H167747   0.157   4.177   5.040  3.4270  2.4627  1.4651
15444TIP3    H267748   0.058   4.238   5.137  0.2705 -0.2164  0.0300
15445TIP3   OH267749   3.718   0.653   1.441 -0.1060  0.0635  0.0268
15445TIP3    H167750   3.738   0.618   1.355  1.3606  0.4450  0.2028
15445TIP3    H267751   3.798   0.639   1.493 -1.0160 -0.3121  1.3708
15446TIP3   OH267752   2.966   4.378   2.337  0.1016  0.7564 -0.5627
15446TIP3    H167753   2.993   4.422   2.256 -1.0817  2.5077 -0.0309
15446TIP3    H267754   3.026   4.412   2.403  0.1999  0.3470 -0.4393
15447TIP3   OH267755   5.060   5.811   4.619 -0.9303 -0.3439 -0.5113
15447TIP3    H167756   5.080   5.900   4.648 -0.6725 -1.1974  2.1146
15447TIP3    H267757   4.965   5.811   4.606 -1.1367 -0.0344  0.8739
15448TIP3   OH267758   6.245   5.799   4.242 -0.1823 -0.5797 -0.1706
15448TIP3    H167759   6.157   5.833   4.254  1.0183  2.0241  1.7403
15448TIP3    H267760   6.251   5.777   4.149 -2.3605  0.5495 -0.5884
15449TIP3   OH267761   4.361   3.810  15.081 -0.2654  0.0489 -0.0131
15449TIP3    H167762   4.347   3.895  15.039  2.6410 -0.2883 -1.7825
15449TIP3    H267763   4.288   3.756  15.050 -1.0265  1.3048 -0.4670
15450TIP3   OH267764   1.759   5.366  14.722  0.2512  0.4659  0.1282
15450TIP3    H167765   1.705   5.288  14.736 -0.0210  0.7415  0.6078
15450TIP3    H267766   1.831   5.357  14.785  1.8344 -0.8572 -1.7714
15451TIP3   OH267767   4.262   1.831   3.087  0.0413 -0.6303 -0.0880
15451TIP3    H167768   4.351   1.805   3.112 -0.1626 -0.0137  1.2891
15451TIP3    H267769   4.216   1.748   3.075  1.3152 -1.0076 -2.7824
15452TIP3   OH267770   6.104   4.906   1.492  0.8959  0.5897 -0.5118
15452TIP3    H167771   6.173   4.931   1.430  1.6180 -0.6065 -0.1943
15452TIP3    H267772   6.142   4.836   1.544  0.0401  1.0941  0.8341
15453TIP3   OH267773   2.527   2.277   2.664  0.4068 -0.2311 -0.1528
15453TIP3    H167774   2.460   2.344   2.651 -0.3697 -0.7640  0.9842
15453TIP3    H267775   2.610   2.324   2.656 -0.1181  0.7897  0.2675
15454TIP3   OH267776   2.565   6.761   1.557  0.6052  0.0156 -0.4887
15454TIP3    H167777   2.560   6.734   1.648  1.6276 -1.5854 -0.8970
15454TIP3    H267778   2.653   6.737   1.529  0.2895  0.4638 -1.9125
15455TIP3   OH267779   5.896   0.512   1.591  0.4655  0.1930  0.9059
15455TIP3    H167780   5.806   0.542   1.602 -0.0393 -0.3202 -1.5020
15455TIP3    H267781   5.921   0.478   1.677 -2.3588 -1.5533  1.1139
15456TIP3   OH267782   2.752   4.875   2.382 -0.3433  0.1056  0.2846
15456TIP3    H167783   2.803   4.955   2.370 -0.3571  0.5932  3.2489
15456TIP3    H267784   2.662   4.906   2.393 -1.1518 -0.6628 -3.3750
15457TIP3   OH267785   2.553   6.203  13.660 -0.5478  0.6194  0.0817
15457TIP3    H167786   2.554   6.108  13.645 -2.2579  0.6527 -0.3970
15457TIP3    H267787   2.600   6.216  13.742 -0.2245 -0.6313  0.0963
15458TIP3   OH267788   2.697   2.509   5.004  0.2439  0.8543  0.0551
15458TIP3    H167789   2.637   2.517   5.079  0.3876  0.3252  0.2289
15458TIP3    H267790   2.641   2.525   4.928 -0.0049  0.9227  0.2497
15459TIP3   OH267791   0.494   4.222  12.108  0.3331  0.3219 -0.0975
15459TIP3    H167792   0.464   4.208  12.198  0.4638 -0.2204 -0.1387
15459TIP3    H267793   0.530   4.311  12.109  0.5187  0.2457  0.4414
15460TIP3   OH267794   5.064   2.469   1.581 -0.0764  0.3384  0.1613
15460TIP3    H167795   5.137   2.441   1.526 -0.6354 -0.8475  0.0143
15460TIP3    H267796   5.003   2.511   1.521 -1.4005 -2.3159 -0.4202
15461TIP3   OH267797   5.527   0.972   6.205 -0.1251  0.1657  0.1762
15461TIP3    H167798   5.476   1.028   6.146  0.4229  0.5818  0.1002
15461TIP3    H267799   5.461   0.924   6.255 -0.5960  0.2384 -0.3646
15462TIP3   OH267800   2.562   0.191   0.702 -0.2518  0.2494 -0.3600
15462TIP3    H167801   2.502   0.183   0.776  1.2271 -1.3812  0.6682
15462TIP3    H267802   2.574   0.102   0.670  1.8785  0.5200 -0.3627
15463TIP3   OH267803   2.377   2.701   5.339  0.5096  0.0978  0.2841
15463TIP3    H167804   2.423   2.706   5.423 -0.2986  1.5943  0.6528
15463TIP3    H267805   2.420   2.767   5.285  0.9497 -0.7800 -0.4460
15464TIP3   OH267806   6.447   0.533   0.121 -0.1113  0.0865 -0.3103
15464TIP3    H167807   6.386   0.473   0.165 -0.7621  1.5883  0.8744
15464TIP3    H267808   6.401   0.617   0.119  0.7712  0.5506 -2.0003
15465TIP3   OH267809   0.822   1.546   2.161  0.7184 -0.2219  0.5131
15465TIP3    H167810   0.846   1.621   2.107 -0.1984 -1.0477 -1.0683
15465TIP3    H267811   0.738   1.517   2.126  0.6019 -1.3991  1.7358
15466TIP3   OH267812   4.772   2.028  12.713 -1.1672  0.3067 -0.2252
15466TIP3    H167813   4.838   2.045  12.780 -0.5375 -0.8514 -0.5462
15466TIP3    H267814   4.820   1.988  12.641 -2.0903  0.1811 -0.7816
15467TIP3   OH267815   4.248   2.096  15.313  0.3874 -0.0477 -0.4792
15467TIP3    H167816   4.239   2.115  15.406  1.1208  0.0555 -0.4282
15467TIP3    H267817   4.279   2.178  15.275 -0.5245  0.1077 -0.9240
15468TIP3   OH267818   0.053   2.023   0.934  0.1599  0.0200  0.6234
15468TIP3    H167819   0.033   2.058   1.021 -0.0123 -1.7514  1.3167
15468TIP3    H267820  -0.012   1.954   0.921 -0.0146  0.4798 -1.0680
15469TIP3   OH267821   1.489   1.833   3.514  0.0047  0.5523 -0.1086
15469TIP3    H167822   1.526   1.745   3.517  2.0798  1.4099  0.7638
15469TIP3    H267823   1.530   1.874   3.438  0.4150  1.3324  0.5237
15470TIP3   OH267824   5.880   6.013  12.042  0.2108 -0.1556  0.3280
15470TIP3    H167825   5.926   6.094  12.062 -0.5457  0.5016 -0.5312
15470TIP3    H267826   5.946   5.956  12.003  0.5679  0.3412  0.2066
15471TIP3   OH267827   5.494   1.388   4.088 -0.1349 -0.2823  0.4237
15471TIP3    H167828   5.445   1.313   4.055 -0.5591 -0.1685  0.7830
15471TIP3    H267829   5.487   1.454   4.019 -0.3832 -0.3129  0.4184
15472TIP3   OH267830   4.927   2.691  10.250 -0.3289 -0.4329  0.1877
15472TIP3    H167831   4.930   2.776  10.205  1.7968 -0.4389  0.2473
15472TIP3    H267832   4.862   2.640  10.201 -0.0263  0.4866 -1.2078
15473TIP3   OH267833   6.594   2.656   5.290 -0.1866  0.0560 -0.2189
15473TIP3    H167834   6.502   2.672   5.270  0.2277  2.7238 -0.1492
15473TIP3    H267835   6.600   2.561   5.298 -2.8501 -0.1920 -0.5724
15474TIP3   OH267836   0.037   1.646   2.846 -0.7200  0.0663  0.4222
15474TIP3    H167837   0.011   1.566   2.891  2.5221 -0.8080  0.8097
15474TIP3    H267838   0.072   1.616   2.762 -0.5338  1.1786  0.0983
15475TIP3   OH267839   3.054   1.451   5.208  0.2341 -0.2226 -0.2680
15475TIP3    H167840   3.067   1.359   5.232  0.3839 -0.4738 -1.3067
15475TIP3    H267841   2.976   1.452   5.152 -1.6763  0.7143  2.3121
15476TIP3   OH267842   6.422   1.213   6.066 -0.0041 -0.0939 -0.9487
15476TIP3    H167843   6.476   1.165   6.129 -0.0848 -0.2161 -0.9721
15476TIP3    H267844   6.429   1.305   6.092 -1.2164 -0.2905  0.1217
15477TIP3   OH267845   3.346   0.726  14.471  0.0822  0.3501 -0.1983
15477TIP3    H167846   3.420   0.725  14.410  0.3794  0.7444  0.1545
15477TIP3    H267847   3.358   0.649  14.526  0.3319  0.5134 -0.0236
15478TIP3   OH267848   5.275   3.180  13.285 -0.1384 -0.1599  0.1418
15478TIP3    H167849   5.245   3.122  13.215  1.9063  0.1025 -0.9860
15478TIP3    H267850   5.203   3.242  13.297 -1.2468 -1.2986 -0.4842
15479TIP3   OH267851   0.934   1.716  12.123 -0.0645  0.2213  0.3426
15479TIP3    H167852   0.888   1.709  12.040 -0.0453  0.6121  0.2966
15479TIP3    H267853   0.927   1.629  12.162 -1.3714  0.4346  0.6170
15480TIP3   OH267854   1.994   1.918  14.126 -0.2141 -0.8238  0.0007
15480TIP3    H167855   2.075   1.966  14.140  1.8933 -3.6921 -1.8860
15480TIP3    H267856   1.962   1.949  14.040 -2.1981  1.6531  1.5408
15481TIP3   OH267857   3.764   5.129  14.462 -0.0654  0.2277 -0.0362
15481TIP3    H167858   3.776   5.091  14.375 -2.6552  0.5224 -0.5816
15481TIP3    H267859   3.772   5.055  14.523 -0.3446 -0.3574 -0.7065
15482TIP3   OH267860   4.742   6.201   2.149  0.2272 -0.2847  0.3334
15482TIP3    H167861   4.761   6.152   2.069 -2.1997  1.8522 -1.5966
15482TIP3    H267862   4.681   6.145   2.197  1.9180 -1.7040  0.8850
15483TIP3   OH267863   0.597   6.387   0.168 -0.2231 -0.2751  0.2921
15483TIP3    H167864   0.582   6.466   0.220 -0.6192 -0.3905  0.3552
15483TIP3    H267865   0.691   6.388   0.149  0.3394 -1.3080  2.7781
15484TIP3   OH267866   3.185   6.334   4.479  1.0714  0.0824 -0.8312
15484TIP3    H167867   3.261   6.368   4.432  0.5708  1.6921 -0.5271
15484TIP3    H267868   3.149   6.411   4.523 -1.0400 -0.5480 -1.4080
15485TIP3   OH267869   2.100   3.462   4.700 -0.0779  0.2714  0.5027
15485TIP3    H167870   2.171   3.513   4.662 -0.2934  1.5002  1.7191
15485TIP3    H267871   2.121   3.371   4.678  1.4139  0.7022  0.1184
15486TIP3   OH267872   1.042   4.745   2.681 -0.6869 -0.8240 -0.0325
15486TIP3    H167873   1.014   4.669   2.631 -0.3067 -0.5596 -0.6499
15486TIP3    H267874   1.116   4.714   2.733  0.7677 -0.3812 -1.7905
15487TIP3   OH267875   2.114   2.793  14.634 -0.2906 -0.6006 -0.0665
15487TIP3    H167876   2.051   2.721  14.641 -1.5851  0.3268 -1.8868
15487TIP3    H267877   2.169   2.770  14.558 -0.6785  0.3021 -0.6245
15488TIP3   OH267878   3.994   0.517   2.713 -0.1279  0.4799  0.1451
15488TIP3    H167879   4.070   0.484   2.665 -0.7231 -0.4885 -0.1438
15488TIP3    H267880   3.977   0.603   2.674 -0.0592  0.0827 -0.7738
15489TIP3   OH267881   4.237   0.729   3.640  0.1214  0.0528  0.0865
15489TIP3    H167882   4.195   0.643   3.643 -0.1413  0.1275 -1.3128
15489TIP3    H267883   4.258   0.748   3.731  0.5398 -1.6668  0.3678
15490TIP3   OH267884   4.923   0.243   0.385 -0.4386  0.0523  0.1879
15490TIP3    H167885   4.907   0.173   0.448 -1.6387  2.3123  2.4916
15490TIP3    H267886   4.879   0.320   0.423  0.0493  1.8334 -2.7030
15491TIP3   OH267887   0.351   1.633  12.340  0.4421 -0.1363 -0.4680
15491TIP3    H167888   0.279   1.644  12.278 -0.8194 -0.3035  0.9400
15491TIP3    H267889   0.349   1.540  12.363 -0.0497  0.1969  0.9202
15492TIP3   OH267890   5.067   0.632  11.720 -0.0333  0.3889  0.3963
15492TIP3    H167891   5.029   0.638  11.632 -1.0949  1.2917  0.9038
15492TIP3    H267892   5.063   0.722  11.754  0.9357  0.1584  1.1311
15493TIP3   OH267893   2.591   3.244   4.128  0.4578  0.3137 -0.3233
15493TIP3    H167894   2.569   3.218   4.217  0.8888 -3.5694 -1.2426
15493TIP3    H267895   2.671   3.296   4.136  0.0910  0.5938  1.6043
15494TIP3   OH267896   2.635   4.116  16.713  0.3939  0.1314 -0.4973
15494TIP3    H167897   2.688   4.194  16.696  0.0472 -0.0542 -2.5213
15494TIP3    H267898   2.658   4.055  16.643  2.3683 -2.5424  2.3213
15495TIP3   OH267899   6.520   5.618  12.564  0.3212 -0.4770  0.1219
15495TIP3    H167900   6.566   5.635  12.646  0.9378 -0.0521 -0.3047
15495TIP3    H267901   6.433   5.589  12.590 -0.3587  2.1525  0.8936
15496TIP3   OH267902   4.927   4.379   0.677 -0.4510  0.3972  0.4611
15496TIP3    H167903   4.969   4.369   0.763  0.6936  3.9803  0.3941
15496TIP3    H267904   4.997   4.356   0.615 -0.4714  0.3805  0.4441
15497TIP3   OH267905   2.174   2.678   3.697 -0.2254 -0.1729 -0.3651
15497TIP3    H167906   2.244   2.744   3.696 -0.5898  0.2944  1.9567
15497TIP3    H267907   2.105   2.715   3.642 -0.3731  1.3507  0.8174
15498TIP3   OH267908   1.335   1.079  16.440  0.3144 -0.0082 -0.3827
15498TIP3    H167909   1.337   1.171  16.413 -0.7447  0.4335  0.9821
15498TIP3    H267910   1.278   1.037  16.376  2.0640 -0.0593 -1.9624
15499TIP3   OH267911   3.787   6.784   2.386  0.3844  0.0930  0.1547
15499TIP3    H167912   3.855   6.735   2.433  0.5623  1.3811  1.2611
15499TIP3    H267913   3.721   6.718   2.364  1.4645 -0.9717  0.0321
15500TIP3   OH267914   2.012   4.218   5.249 -0.1753 -0.7738  0.4708
15500TIP3    H167915   2.008   4.289   5.184 -2.1677 -0.9311  0.3924
15500TIP3    H267916   1.984   4.140   5.201 -1.5856 -0.9041  1.4664
15501TIP3   OH267917   1.127   4.352  12.425  0.6414 -0.0738 -0.1336
15501TIP3    H167918   1.142   4.446  12.434  1.4967 -0.2182 -0.0180
15501TIP3    H267919   1.172   4.327  12.345  0.1259 -0.3293 -0.3499
15502TIP3   OH267920   0.977   4.058   0.865  0.1292  0.1495 -0.2616
15502TIP3    H167921   1.059   4.018   0.896  0.4278  0.9994  0.0932
15502TIP3    H267922   0.984   4.057   0.770 -0.2175 -1.3395 -0.2691
15503TIP3   OH267923   0.351   6.734   2.080 -0.3185  0.6000  0.1774
15503TIP3    H167924   0.403   6.722   2.000 -1.0160 -1.1699 -0.0506
15503TIP3    H267925   0.333   6.828   2.083 -1.9741  0.4484 -2.8638
15504TIP3   OH267926   0.323   3.644  15.430  0.2111 -0.5917  0.4982
15504TIP3    H167927   0.372   3.715  15.472 -0.2051  0.3641 -0.5979
15504TIP3    H267928   0.271   3.606  15.500 -0.3314  0.8530  0.8924
15505TIP3   OH267929   0.499   1.009  12.630 -0.8810  0.3218 -0.0627
15505TIP3    H167930   0.413   0.999  12.670 -1.5852 -2.3448 -2.0332
15505TIP3    H267931   0.555   0.946  12.677 -1.1766 -1.2244 -1.7051
15506TIP3   OH267932   6.332   2.660  13.348 -0.2012  0.7102 -0.7686
15506TIP3    H167933   6.392   2.585  13.342 -2.3300 -1.1147 -0.0360
15506TIP3    H267934   6.390   2.736  13.354  2.0303 -0.8742 -1.2896
15507TIP3   OH267935   1.957   6.613  17.186 -0.0548 -0.6032  0.4042
15507TIP3    H167936   1.952   6.581  17.096 -1.2231  0.9439 -0.1165
15507TIP3    H267937   1.900   6.554  17.236 -0.2233 -0.8389 -0.0709
15508TIP3   OH267938   2.384   3.478   0.031 -0.2079  0.0167  0.2982
15508TIP3    H167939   2.393   3.438  -0.056  0.0249  0.7638 -0.0217
15508TIP3    H267940   2.399   3.405   0.092 -1.1145 -0.6742 -0.2810
15509TIP3   OH267941   3.940   3.354   2.225  0.1324 -0.1158  0.3304
15509TIP3    H167942   3.978   3.358   2.312 -0.5497  0.4015  0.6100
15509TIP3    H267943   4.013   3.331   2.168  0.4416 -1.1761  1.1299
15510TIP3   OH267944   2.116   3.100  16.195 -0.6003  0.4870 -0.0551
15510TIP3    H167945   2.170   3.179  16.192  1.5398 -0.7861  2.8114
15510TIP3    H267946   2.048   3.115  16.129  0.8906  3.8595 -0.9294
15511TIP3   OH267947   2.929   2.689   4.970  0.2931 -0.0837  0.8575
15511TIP3    H167948   2.865   2.624   4.997 -0.1294 -0.2585 -0.5253
15511TIP3    H267949   2.992   2.692   5.042  1.2575 -3.2656  0.2303
15512TIP3   OH267950   3.617   3.064  11.809 -0.0858 -0.1081 -0.4978
15512TIP3    H167951   3.545   3.120  11.839 -0.2216 -0.2862 -0.4920
15512TIP3    H267952   3.671   3.122  11.755 -0.7009 -0.1864 -1.2125
15513TIP3   OH267953   1.124   1.909  13.357 -0.0218  0.2856  0.4210
15513TIP3    H167954   1.052   1.920  13.295  0.0832  0.8590  0.3999
15513TIP3    H267955   1.092   1.845  13.420  0.2530 -1.0976 -0.8015
15514TIP3   OH267956   0.123   1.653   1.172  0.3067 -0.2123  0.4965
15514TIP3    H167957   0.195   1.670   1.234  0.4441  1.0631 -0.0002
15514TIP3    H267958   0.143   1.567   1.136 -0.2199 -1.3430  2.8306
15515TIP3   OH267959   5.890   5.512   4.255 -0.2681 -0.4683  0.5493
15515TIP3    H167960   5.818   5.450   4.268  0.1790 -0.7673  1.6757
15515TIP3    H267961   5.920   5.495   4.166 -0.6320 -1.3546  0.5895
15516TIP3   OH267962   5.098   3.696  16.155 -1.0857  0.2919 -0.5312
15516TIP3    H167963   5.072   3.634  16.224 -0.8663 -0.0926 -0.7926
15516TIP3    H267964   5.178   3.659  16.118 -0.7031  0.9680 -0.3928
15517TIP3   OH267965   0.838   5.781  17.001 -0.3205 -0.0784  0.0912
15517TIP3    H167966   0.756   5.822  17.028 -0.9942  0.0388 -2.0187
15517TIP3    H267967   0.864   5.829  16.922  0.3400 -1.9038 -0.8340
15518TIP3   OH267968   4.187   2.512  11.385  0.1469 -0.1700  0.0024
15518TIP3    H167969   4.252   2.475  11.326  0.5143 -2.2248  1.6377
15518TIP3    H267970   4.119   2.445  11.391 -1.4969  1.3913 -0.6359
15519TIP3   OH267971   3.601   1.281  12.137  0.2646  0.5194 -0.0086
15519TIP3    H167972   3.573   1.236  12.217  3.4625 -0.6092  0.5526
15519TIP3    H267973   3.533   1.347  12.122 -1.3717 -0.4756  2.5769
15520TIP3   OH267974   4.926   1.582   5.996 -0.6436 -0.0377 -0.3299
15520TIP3    H167975   4.882   1.501   6.026  2.9764 -2.0661 -0.2118
15520TIP3    H267976   4.937   1.633   6.076 -1.4427 -0.1540 -0.1332
15521TIP3   OH267977   4.320   0.892   6.592  0.4675  0.2470 -0.3821
15521TIP3    H167978   4.407   0.905   6.555  0.3068  0.3485 -0.7260
15521TIP3    H267979   4.267   0.861   6.518 -0.2644  2.0418 -0.6367
15522TIP3   OH267980   3.379   5.664  11.527  0.0821 -0.3450  0.0969
15522TIP3    H167981   3.447   5.706  11.580 -0.4375  1.1312 -0.3787
15522TIP3    H267982   3.389   5.704  11.440  0.5728 -2.3333 -0.7848
15523TIP3   OH267983   3.259   4.429  12.258 -0.6018 -0.0008  0.3218
15523TIP3    H167984   3.288   4.351  12.304 -2.3678 -0.1929  1.1089
15523TIP3    H267985   3.286   4.502  12.314 -1.5839 -0.1768  1.0213
15524TIP3   OH267986   3.279   0.101   2.580  0.5779  0.1696 -0.2595
15524TIP3    H167987   3.295   0.193   2.599 -1.7979  0.4469  0.6719
15524TIP3    H267988   3.255   0.063   2.665 -1.8349 -0.5187 -1.2044
15525TIP3   OH267989   5.331   2.050  17.175  0.0087 -0.0622 -0.1781
15525TIP3    H167990   5.386   2.088  17.243 -0.6305  2.7650 -1.1968
15525TIP3    H267991   5.247   2.095  17.183 -0.1628  0.1200 -2.6319
15526TIP3   OH267992   6.106   1.133  16.420  0.3683 -0.1216  0.0999
15526TIP3    H167993   6.104   1.153  16.326 -0.0244 -1.2950 -0.1558
15526TIP3    H267994   6.113   1.038  16.424  2.1893  0.0442  1.2690
15527TIP3   OH267995   2.992   1.172   2.189  0.5342 -0.1681  0.2901
15527TIP3    H167996   2.978   1.194   2.096  0.5560  1.1440  0.5924
15527TIP3    H267997   3.044   1.092   2.187 -2.2323 -2.0379 -0.8575
15528TIP3   OH267998   4.062   6.204  11.121  0.3537 -0.2306 -0.1709
15528TIP3    H167999   4.050   6.297  11.136 -2.9059 -0.4605 -1.0709
15528TIP3    H268000   4.108   6.199  11.037  0.3812  0.5461 -0.2017
15529TIP3   OH268001   1.623   0.521   5.264 -0.9691  0.1440  0.0541
15529TIP3    H168002   1.555   0.510   5.331 -0.6241 -0.0559  0.3694
15529TIP3    H268003   1.639   0.616   5.263  0.1429 -0.0223  1.3607
15530TIP3   OH268004   1.496   3.626  13.197  0.2661  0.5850 -0.1819
15530TIP3    H168005   1.553   3.694  13.232  0.2495  0.4170  0.1788
15530TIP3    H268006   1.449   3.593  13.274  0.8128 -0.3384 -0.2369
15531TIP3   OH268007   4.509   3.587  12.988  0.4134 -0.3708  0.3317
15531TIP3    H168008   4.538   3.676  13.011  0.8057 -0.4916  0.3177
15531TIP3    H268009   4.483   3.548  13.071 -0.4245 -0.0073  0.2449
15532TIP3   OH268010   4.644   1.697   1.075  0.2209 -0.2885 -0.2599
15532TIP3    H168011   4.683   1.738   0.998 -0.2434 -3.9812 -2.5750
15532TIP3    H268012   4.641   1.603   1.054 -0.9039 -1.2821  3.8247
15533TIP3   OH268013   3.547   3.743   5.061 -0.3789 -0.3577 -0.3850
15533TIP3    H168014   3.520   3.833   5.043 -1.3158 -0.7449 -0.9734
15533TIP3    H268015   3.490   3.690   5.006 -0.5966 -1.3724  0.7899
15534TIP3   OH268016   6.471   1.886   5.643  0.1318 -0.2492 -0.2731
15534TIP3    H168017   6.431   1.832   5.575  0.9528  0.1533 -1.0840
15534TIP3    H268018   6.565   1.874   5.631  0.3571  2.1711 -1.1410
15535TIP3   OH268019   2.024   3.801   2.710  0.6682  0.7213  0.1442
15535TIP3    H168020   2.098   3.848   2.749  0.5876 -0.6535  2.0420
15535TIP3    H268021   1.950   3.821   2.767  1.0089 -3.0077  2.0532
15536TIP3   OH268022   1.814   5.139   4.458  0.2175  0.4271 -0.5140
15536TIP3    H168023   1.802   5.113   4.367  1.4077  2.8617 -1.3982
15536TIP3    H268024   1.725   5.151   4.491 -0.2991 -2.6685 -0.6470
15537TIP3   OH268025   3.134   1.787  14.246 -0.0612 -0.1988 -0.6307
15537TIP3    H168026   3.226   1.803  14.223  0.0503 -0.6165 -0.4848
15537TIP3    H268027   3.101   1.872  14.274  1.2219 -0.6971  2.5636
15538TIP3   OH268028   5.318   2.353   2.316  0.4296 -0.0903  0.1293
15538TIP3    H168029   5.319   2.258   2.304 -0.4892 -0.1415  0.4404
15538TIP3    H268030   5.363   2.387   2.239 -0.2398 -0.7264 -0.5551
15539TIP3   OH268031   4.770   4.295   4.364 -0.1736 -0.6812 -0.0733
15539TIP3    H168032   4.781   4.208   4.401  1.6731 -0.3324  0.2576
15539TIP3    H268033   4.826   4.296   4.286 -0.1395  0.2214 -0.0467
15540TIP3   OH268034   4.825   1.286   3.507 -0.1428 -0.6531 -0.1677
15540TIP3    H168035   4.806   1.283   3.601 -1.3779  0.0377 -0.3806
15540TIP3    H268036   4.740   1.302   3.466  0.5716  0.2628 -1.3226
15541TIP3   OH268037   2.736   2.447   2.623  0.0038  0.1294 -0.4562
15541TIP3    H168038   2.826   2.447   2.656  0.0368 -0.0466 -0.5443
15541TIP3    H268039   2.711   2.539   2.621 -0.1828  0.0979  0.5612
15542TIP3   OH268040   1.631   6.749  13.357 -0.0849  0.5889  0.2962
15542TIP3    H168041   1.673   6.832  13.379  0.5788  0.0328  1.1578
15542TIP3    H268042   1.537   6.767  13.368  0.0010  1.4241 -0.2399
15543TIP3   OH268043   1.408   0.547  15.794 -0.2440  0.1831  0.2638
15543TIP3    H168044   1.351   0.540  15.717 -0.3229 -0.3820  0.3695
15543TIP3    H268045   1.347   0.544  15.869 -0.0814 -0.4306  0.3762
15544TIP3   OH268046   2.443   1.818  17.095 -0.2496  0.3386  0.2685
15544TIP3    H168047   2.455   1.903  17.052  0.7218 -0.3758 -0.9246
15544TIP3    H268048   2.411   1.760  17.025  0.6830 -0.6698  0.6629
15545TIP3   OH268049   2.306   2.634  16.915  0.4676  0.3224 -0.2027
15545TIP3    H168050   2.306   2.728  16.932  0.1319  0.2424  0.2541
15545TIP3    H268051   2.220   2.616  16.877 -1.4174 -0.5496  4.0845
15546TIP3   OH268052   2.789   1.277  13.836  0.6363  0.2359 -0.2796
15546TIP3    H168053   2.761   1.350  13.781 -1.0611  0.7644  1.2379
15546TIP3    H268054   2.858   1.313  13.890 -0.9941  1.0757  1.2848
15547TIP3   OH268055   4.924   1.001   0.329  0.1138 -0.1528  0.0010
15547TIP3    H168056   4.929   0.935   0.260  0.8119  0.7703 -0.8587
15547TIP3    H268057   5.015   1.030   0.340 -0.3686  1.7193 -0.7143
15548TIP3   OH268058   2.919   3.938  16.306  0.1104 -0.1463  0.3798
15548TIP3    H168059   2.986   3.912  16.369  0.5708 -0.1842 -0.1238
15548TIP3    H268060   2.865   4.001  16.353  0.6864  0.1174  0.6945
15549TIP3   OH268061   2.148   2.717  14.089 -0.3599  0.3289 -0.6942
15549TIP3    H168062   2.053   2.730  14.084 -0.9249 -3.2155 -0.8202
15549TIP3    H268063   2.166   2.649  14.024  2.3713  1.4254 -1.1282
15550TIP3   OH268064   5.106   3.263   2.929 -0.3077 -0.0643 -0.5261
15550TIP3    H168065   5.188   3.224   2.958  0.4866  1.6549 -0.3863
15550TIP3    H268066   5.120   3.280   2.836 -0.7503 -0.3581 -0.6472
15551TIP3   OH268067   1.443   0.118   6.513 -0.7519  0.3722 -0.0588
15551TIP3    H168068   1.529   0.090   6.546 -1.3356  0.6630  1.7613
15551TIP3    H268069   1.388   0.041   6.521 -0.7829  0.3128 -0.8091
15552TIP3   OH268070   1.580   2.455  14.189  0.0677  0.4087  0.4593
15552TIP3    H168071   1.567   2.372  14.233 -0.5661  1.3104  1.9997
15552TIP3    H268072   1.571   2.521  14.258 -0.6534  1.8238 -0.9522
15553TIP3   OH268073   0.013   6.138  13.854  0.5054 -0.1227  0.0306
15553TIP3    H168074   0.019   6.078  13.779 -1.3715  0.2246 -0.4229
15553TIP3    H268075   0.096   6.126  13.900  0.6965 -2.1453 -0.7518
15554TIP3   OH268076   0.175   1.526  14.436 -0.1523 -0.1660  0.4950
15554TIP3    H168077   0.136   1.610  14.459 -0.4435  0.2272 -1.3655
15554TIP3    H268078   0.107   1.461  14.456 -1.1824  0.3677 -1.2004
15555TIP3   OH268079   0.351   3.525  12.710  0.3983 -0.3687  0.7941
15555TIP3    H168080   0.388   3.525  12.622 -2.5561 -2.3460 -0.5365
15555TIP3    H268081   0.404   3.462  12.759 -0.2285 -2.0827 -0.6655
15556TIP3   OH268082   2.102   0.617  15.342 -0.5145  0.3986 -0.1966
15556TIP3    H168083   2.158   0.672  15.288  1.0536  0.7384  1.7378
15556TIP3    H268084   2.052   0.564  15.279  0.1819  1.8372 -1.9832
15557TIP3   OH268085   5.160   3.499   2.548 -0.1758 -0.9575  0.9108
15557TIP3    H168086   5.175   3.550   2.628 -2.1226  2.7193 -0.9886
15557TIP3    H268087   5.068   3.475   2.552 -0.7762  0.8988 -1.1269
15558TIP3   OH268088   3.509   6.013   0.367 -0.4674  0.4385  0.5788
15558TIP3    H168089   3.465   6.096   0.348 -0.3343  0.0997 -1.2631
15558TIP3    H268090   3.602   6.033   0.355 -0.3467  0.3376  1.3474
15559TIP3   OH268091   5.645   5.951  15.090  0.2430 -0.3940  0.7092
15559TIP3    H168092   5.608   5.913  15.170 -0.0813  1.2700  1.3682
15559TIP3    H268093   5.576   5.942  15.024 -1.0965  2.0230  1.7305
15560TIP3   OH268094   1.500   2.259   3.171  0.6110 -0.2334 -0.8909
15560TIP3    H168095   1.587   2.299   3.170  0.9019 -0.6712  2.2565
15560TIP3    H268096   1.440   2.331   3.192  0.5723 -0.5045 -0.0570
15561TIP3   OH268097   5.384   1.864   0.294 -0.0658  0.7768 -0.0527
15561TIP3    H168098   5.415   1.811   0.221  1.6950  1.0162  0.4754
15561TIP3    H268099   5.411   1.815   0.372 -1.7075  0.6414  0.4492
15562TIP3   OH268100   2.967   2.902  11.598 -0.1415  0.2737  0.0707
15562TIP3    H168101   3.019   2.851  11.536  0.6297 -0.1734  1.0700
15562TIP3    H268102   2.971   2.992  11.564  1.1501  0.2092  0.0356
15563TIP3   OH268103   2.034   1.026  12.309 -0.8233 -0.2998  0.4944
15563TIP3    H168104   2.078   0.941  12.319 -0.6119 -0.2457  0.0349
15563TIP3    H268105   1.997   1.023  12.221 -1.2044 -0.0931  0.6503
15564TIP3   OH268106   3.732   5.099   4.610 -0.0740 -0.3483 -0.7442
15564TIP3    H168107   3.675   5.124   4.537 -1.1899 -0.2132  0.1667
15564TIP3    H268108   3.774   5.018   4.581 -0.3230 -0.1706 -1.6256
15565TIP3   OH268109   3.366   1.750  12.045  1.0998 -0.2163 -0.0219
15565TIP3    H168110   3.461   1.766  12.048  1.2475 -0.2258 -3.1832
15565TIP3    H268111   3.358   1.657  12.025  0.3720 -0.5366  1.6658
15566TIP3   OH268112   4.746   4.665  16.523  0.1359  0.2152 -1.2399
15566TIP3    H168113   4.715   4.749  16.490 -1.2677 -0.0242 -0.5797
15566TIP3    H268114   4.667   4.610  16.526  0.7689 -0.6600 -0.2495
15567TIP3   OH268115   3.685   4.412  16.761  0.4103  0.2203 -0.5155
15567TIP3    H168116   3.689   4.317  16.773  0.1819  0.4086  1.0815
15567TIP3    H268117   3.637   4.445  16.837  1.5726  1.7392 -0.3977
15568TIP3   OH268118   5.319   5.988  15.190  0.4782 -0.3786 -0.0491
15568TIP3    H168119   5.391   5.942  15.231 -0.5606 -2.7736 -0.8119
15568TIP3    H268120   5.345   5.997  15.098  0.2321 -0.3621 -0.1189
15569TIP3   OH268121   5.840   0.400  12.021 -0.0865  1.3070  0.0342
15569TIP3    H168122   5.895   0.478  12.030 -0.2471  1.3548  0.6405
15569TIP3    H268123   5.782   0.419  11.947  1.5636  0.7399 -1.4358
15570TIP3   OH268124   0.114   5.946   1.103  0.4167  0.2586  0.6525
15570TIP3    H168125   0.179   5.876   1.095 -0.4936 -0.6965  1.4027
15570TIP3    H268126   0.059   5.919   1.177 -2.7228 -0.5238 -1.8593
15571TIP3   OH268127   0.233   0.206   2.888  0.5075 -0.3516  0.4268
15571TIP3    H168128   0.198   0.229   2.974 -0.9321 -1.5678  0.1784
15571TIP3    H268129   0.305   0.268   2.874 -2.9673  3.7240 -0.0928
15572TIP3   OH268130   4.151   6.574  15.164  0.0970 -0.3971 -0.1073
15572TIP3    H168131   4.135   6.484  15.195  0.6800 -0.9588 -1.3696
15572TIP3    H268132   4.081   6.626  15.203 -2.7778 -2.1537 -2.6793
15573TIP3   OH268133   1.480   3.103   5.894  0.4087 -0.4225 -0.2921
15573TIP3    H168134   1.544   3.063   5.953 -0.6674 -1.1541  0.3790
15573TIP3    H268135   1.469   3.038   5.824 -0.3334 -0.7281  0.1046
15574TIP3   OH268136   6.217   0.319   6.503 -0.4111  0.5410  0.6280
15574TIP3    H168137   6.217   0.260   6.578 -0.1226  0.8064  0.8335
15574TIP3    H268138   6.208   0.260   6.427  0.1676  0.2114  0.8142
15575TIP3   OH268139   3.521   3.649   2.278 -0.0302  0.0386 -0.5924
15575TIP3    H168140   3.427   3.644   2.261 -0.4281  0.9585  1.1879
15575TIP3    H268141   3.528   3.711   2.350  1.8984 -0.5036 -0.3085
15576TIP3   OH268142   5.366   4.440   5.295  0.2457  0.1735 -0.4522
15576TIP3    H168143   5.406   4.524   5.315  2.6715 -1.1183  0.3144
15576TIP3    H268144   5.427   4.398   5.235 -1.7539 -0.3778 -2.1403
15577TIP3   OH268145   6.486   5.020  13.592  0.2580  0.1593 -0.0748
15577TIP3    H168146   6.448   4.985  13.672  0.1698 -1.3903 -0.7709
15577TIP3    H268147   6.427   4.990  13.523 -1.5844  4.3405 -0.4296
15578TIP3   OH268148   2.365   4.892  16.602 -0.0695  0.1019 -0.4043
15578TIP3    H168149   2.337   4.876  16.512  0.7998  1.3177 -0.8980
15578TIP3    H268150   2.338   4.982  16.621 -0.8989 -0.3766  0.8112
15579TIP3   OH268151   5.804   4.528   0.470 -0.4345  0.4123 -0.0446
15579TIP3    H168152   5.879   4.543   0.527  1.4109 -4.1219 -1.0933
15579TIP3    H268153   5.758   4.454   0.508 -0.6280 -1.0453 -2.9318
15580TIP3   OH268154   4.664   3.224  14.609  0.1989  0.4154  0.0592
15580TIP3    H168155   4.664   3.173  14.691  0.9800 -0.5300 -0.5194
15580TIP3    H268156   4.571   3.244  14.594 -0.1540 -1.0576  0.1702
15581TIP3   OH268157   6.056   0.237  10.619 -0.1398 -0.3608  0.2956
15581TIP3    H168158   6.139   0.241  10.570 -0.8657 -1.1345 -1.0297
15581TIP3    H268159   6.012   0.319  10.598  0.3298  0.0913  1.0728
15582TIP3   OH268160   2.824   1.889   5.465  0.2137  0.3613 -0.2386
15582TIP3    H168161   2.832   1.978   5.431 -0.1445 -0.2581 -2.0015
15582TIP3    H268162   2.865   1.834   5.399 -0.1283 -0.8570  0.5376
15583TIP3   OH268163   3.086   1.695  15.073  0.6076  0.6302  0.2103
15583TIP3    H168164   3.144   1.705  15.149  0.5367 -1.7113  0.6307
15583TIP3    H268165   3.011   1.750  15.093 -0.0175 -0.9632  2.5122
15584TIP3   OH268166   5.787   0.263   4.522 -0.3646 -0.2097 -0.4640
15584TIP3    H168167   5.854   0.320   4.486 -0.3194 -0.0336 -0.1030
15584TIP3    H268168   5.828   0.177   4.527 -0.2087 -0.1298 -0.3681
15585TIP3   OH268169   4.637   6.038  14.903  0.1796  0.1984 -0.2590
15585TIP3    H168170   4.668   6.091  14.830  0.1274 -0.3021 -0.6474
15585TIP3    H268171   4.577   5.975  14.863  1.8542 -1.5289 -0.1298
15586TIP3   OH268172   1.466   0.816   1.705  0.2273 -0.4079 -0.2392
15586TIP3    H168173   1.471   0.883   1.774 -0.1362  0.0997 -0.6995
15586TIP3    H268174   1.401   0.850   1.644 -0.0186 -1.2246 -0.4373
15587TIP3   OH268175   5.471   3.595  12.029  0.1391  0.0933 -0.2441
15587TIP3    H168176   5.537   3.650  11.987 -2.7120  0.3465 -4.7160
15587TIP3    H268177   5.485   3.508  11.991  0.9151 -1.0017  2.4327
15588TIP3   OH268178   0.449   2.741   1.350  0.3407 -0.7719  0.1437
15588TIP3    H168179   0.419   2.653   1.371  1.1919 -0.6520  1.8913
15588TIP3    H268180   0.501   2.730   1.270 -1.3993 -1.4965 -0.9138
15589TIP3   OH268181   4.240   0.650  12.589  0.3791  0.1704 -0.0125
15589TIP3    H168182   4.322   0.650  12.540  0.1459  1.6917 -0.4367
15589TIP3    H268183   4.253   0.718  12.656 -0.4619  0.2760  0.0420
15590TIP3   OH268184   0.412   3.599   3.224  0.3121  0.1803 -0.2169
15590TIP3    H168185   0.368   3.680   3.250  0.2614 -0.6536  2.4781
15590TIP3    H268186   0.438   3.559   3.307  0.4014 -2.5281 -1.5227
15591TIP3   OH268187   3.244   1.439   4.838  0.3251  0.3591  0.1503
15591TIP3    H168188   3.273   1.393   4.916  0.4486  0.6155  0.2577
15591TIP3    H268189   3.196   1.515   4.872  1.4243  1.1349 -0.0109
15592TIP3   OH268190   6.471   6.769  16.952  0.7643  0.1361 -0.2472
15592TIP3    H168191   6.512   6.779  17.038 -0.8913  2.1882  0.3599
15592TIP3    H268192   6.403   6.703  16.966 -0.1590  1.1929  0.2762
15593TIP3   OH268193   5.670   5.331   6.657 -0.6460  0.7478 -0.1068
15593TIP3    H168194   5.636   5.420   6.674  0.4859  1.1222  0.2712
15593TIP3    H268195   5.640   5.280   6.732  1.1124  1.5086  1.1649
15594TIP3   OH268196   0.064   1.232  11.139  0.7280  0.3778  0.6122
15594TIP3    H168197   0.128   1.280  11.191  1.0084  0.0434  0.5756
15594TIP3    H268198   0.102   1.145  11.128  1.4705  0.9593 -1.6208
15595TIP3   OH268199   6.601   1.986  17.189 -0.1612 -0.9460  0.2098
15595TIP3    H168200   6.615   1.942  17.273 -1.2775 -0.6682  0.5484
15595TIP3    H268201   6.514   2.026  17.197 -0.0494 -0.4723 -0.8786
15596TIP3   OH268202   4.166   4.784   5.962  0.4857  0.9342  0.0122
15596TIP3    H168203   4.125   4.813   6.044  0.1426  0.2005  0.1119
15596TIP3    H268204   4.235   4.847   5.945 -0.1634  1.7304  0.2834
15597TIP3   OH268205   0.978   2.835   3.179 -0.2525 -0.3620 -0.1960
15597TIP3    H168206   0.894   2.794   3.199  0.0153 -0.9601 -0.2853
15597TIP3    H268207   1.008   2.791   3.098  1.0501 -1.5324  0.8870
15598TIP3   OH268208   0.393   1.663   4.966 -0.3079  0.3415  0.8774
15598TIP3    H168209   0.352   1.736   5.012 -1.4971 -0.1605  0.6359
15598TIP3    H268210   0.478   1.697   4.938 -0.5543  1.3980  1.3878
15599TIP3   OH268211   5.125   6.686   4.037  0.4714  0.0258  0.2701
15599TIP3    H168212   5.032   6.705   4.046  0.0870 -1.0731 -1.1660
15599TIP3    H268213   5.166   6.770   4.018 -0.6514  0.0592 -2.0826
15600TIP3   OH268214   1.790   3.462  10.993  0.6027  0.3204 -0.3951
15600TIP3    H168215   1.731   3.394  10.960  1.2200 -0.6929  0.5120
15600TIP3    H268216   1.793   3.528  10.924 -1.5331  0.3643 -0.4730
15601TIP3   OH268217   3.518   0.721   3.182  0.1343 -0.1818  0.0623
15601TIP3    H168218   3.488   0.647   3.128 -0.4542 -1.1234  1.6498
15601TIP3    H268219   3.459   0.721   3.258  1.5320  0.5460  1.1684
15602TIP3   OH268220   2.583   5.071  15.994 -0.0097  0.2308 -0.0573
15602TIP3    H168221   2.639   5.116  16.058 -1.5942 -0.5963  1.9934
15602TIP3    H268222   2.565   4.986  16.035 -1.7136 -0.0068 -1.2637
15603TIP3   OH268223   5.150   1.942   4.733 -0.2928  0.8440  0.4606
15603TIP3    H168224   5.087   1.876   4.761  0.2106  0.8035  1.5532
15603TIP3    H268225   5.148   2.008   4.803 -1.7714  2.6774 -1.2657
15604TIP3   OH268226   3.260   0.181   1.452  0.1929  0.3862 -0.0841
15604TIP3    H168227   3.310   0.241   1.507  0.6387  0.9963 -1.1407
15604TIP3    H268228   3.238   0.232   1.374  1.2720 -1.0389 -1.3625
15605TIP3   OH268229   4.980   2.271  13.639  0.4868  0.2499  0.4388
15605TIP3    H168230   5.030   2.231  13.568  0.5061  1.0968 -0.0479
15605TIP3    H268231   4.924   2.335  13.594 -0.1645  0.1442  1.0970
15606TIP3   OH268232   4.003   0.701  15.765 -0.3324 -0.6416  0.5772
15606TIP3    H168233   4.022   0.767  15.832 -1.3995 -0.8517  1.1040
15606TIP3    H268234   3.920   0.661  15.794 -1.2387 -0.1641 -1.3098
15607TIP3   OH268235   3.804   1.590   2.172  0.1355  0.1171 -0.1965
15607TIP3    H168236   3.746   1.638   2.113 -0.2268  0.0187  0.0765
15607TIP3    H268237   3.891   1.599   2.133 -0.4656 -2.2727 -2.2817
15608TIP3   OH268238   5.618   4.331   3.232  0.0021  0.0325 -0.1228
15608TIP3    H168239   5.696   4.325   3.177 -1.6408  2.1167 -2.8441
15608TIP3    H268240   5.651   4.361   3.317  2.2989 -0.5293 -0.7777
15609TIP3   OH268241   1.581   2.556  15.517  0.3578  0.1014 -0.1526
15609TIP3    H168242   1.508   2.617  15.504  0.1769 -0.0418  0.1914
15609TIP3    H268243   1.654   2.594  15.468 -0.0065  0.1441 -0.6706
15610TIP3   OH268244   0.043   5.706   3.262  0.1794 -0.1651 -0.2802
15610TIP3    H168245   0.039   5.776   3.327  1.0896 -1.6549  1.4319
15610TIP3    H268246  -0.031   5.723   3.204 -0.8626  1.0070  1.3422
15611TIP3   OH268247   3.261   0.630   0.800 -0.5070  0.0259 -0.5268
15611TIP3    H168248   3.247   0.661   0.711  1.2317 -0.0052 -0.8431
15611TIP3    H268249   3.280   0.709   0.851 -1.8594  0.0829 -0.1026
15612TIP3   OH268250   1.044   6.223   0.438  0.5194 -0.1276  0.1406
15612TIP3    H168251   1.057   6.209   0.344 -0.5916 -1.7225  0.2133
15612TIP3    H268252   0.960   6.182   0.457  0.8700 -0.0519  1.8966
15613TIP3   OH268253   4.887   6.762  15.521 -0.9132 -0.6324 -0.2238
15613TIP3    H168254   4.865   6.720  15.604  1.3245 -1.3447  0.0339
15613TIP3    H268255   4.961   6.820  15.541 -0.9253 -0.1335 -1.5358
15614TIP3   OH268256   1.969   3.268  13.091  0.3276 -0.0732  0.2411
15614TIP3    H168257   2.041   3.251  13.030  2.0091  0.5890  1.9987
15614TIP3    H268258   1.947   3.360  13.077  0.7366  0.0878  0.6804
15615TIP3   OH268259   1.152   3.304  16.561 -0.2796 -0.1156  0.5265
15615TIP3    H168260   1.234   3.344  16.589 -0.7545  1.0270  0.2985
15615TIP3    H268261   1.134   3.343  16.476 -0.6164 -1.0210  0.1704
15616TIP3   OH268262   0.785   2.084   1.879 -0.4605 -0.1585 -0.4188
15616TIP3    H168263   0.763   2.110   1.968  0.6575  1.0765 -0.4847
15616TIP3    H268264   0.768   1.990   1.876  0.1419 -0.3344  1.3012
15617TIP3   OH268265   4.586   4.517  15.781  0.5478  0.3332 -0.2360
15617TIP3    H168266   4.625   4.441  15.737 -0.1441 -1.5840  2.3741
15617TIP3    H268267   4.660   4.558  15.826  0.6294  0.2480 -0.2902
15618TIP3   OH268268   4.066   5.911  16.116 -0.0109 -0.2137  0.4256
15618TIP3    H168269   4.114   5.982  16.073  1.3663 -1.5892 -0.3529
15618TIP3    H268270   3.993   5.892  16.057  0.5773 -0.5650 -0.1934
15619TIP3   OH268271   3.196   0.194  16.897 -0.0878 -0.0495 -0.2208
15619TIP3    H168272   3.152   0.278  16.897  0.7591  0.4020 -1.4123
15619TIP3    H268273   3.266   0.203  16.962 -0.5282 -0.1234  0.2674
15620TIP3   OH268274   6.677   1.167   5.847 -0.3300 -0.3293 -0.1992
15620TIP3    H168275   6.719   1.150   5.931 -0.2819 -0.0581 -0.1682
15620TIP3    H268276   6.749   1.170   5.784 -0.0521  2.5562  0.2219
15621TIP3   OH268277   4.614   2.518   0.106  0.3824 -0.2473  0.0122
15621TIP3    H168278   4.626   2.483   0.017  0.0286 -0.7985  0.1742
15621TIP3    H268279   4.658   2.454   0.162  1.4041  0.5811  0.1625
15622TIP3   OH268280   2.752   3.208   3.894 -0.2061  0.2320 -0.1363
15622TIP3    H168281   2.676   3.195   3.950 -0.1084  1.5982  0.3466
15622TIP3    H268282   2.792   3.122   3.886  0.0096  0.0806  2.2341
15623TIP3   OH268283   0.045   3.765  16.978  0.3206 -0.0252  0.1865
15623TIP3    H168284   0.008   3.677  16.984 -3.0216  1.4009  2.0649
15623TIP3    H268285  -0.008   3.817  17.039  2.7332  3.1080 -0.2800
15624TIP3   OH268286   0.620   2.446   5.948 -0.4605  0.0943  0.1588
15624TIP3    H168287   0.667   2.435   6.031 -1.7157 -0.2184  0.8412
15624TIP3    H268288   0.532   2.475   5.974 -0.3455  1.6115 -1.1488
15625TIP3   OH268289   5.464   1.215  14.442 -0.6059  0.2656 -0.4048
15625TIP3    H168290   5.471   1.288  14.382 -1.2121  0.1441 -0.6191
15625TIP3    H268291   5.385   1.232  14.493  0.7337  1.1803  1.4400
15626TIP3   OH268292   2.147   1.036  17.134  0.0407 -0.0080 -0.1128
15626TIP3    H168293   2.237   1.063  17.117  0.7956 -1.3799  1.5265
15626TIP3    H268294   2.152   0.940  17.140 -1.4286 -0.0576  0.4597
15627TIP3   OH268295   6.353   5.285  16.598 -0.5625  0.8159  0.3993
15627TIP3    H168296   6.415   5.314  16.665 -0.7855  1.1090  0.4803
15627TIP3    H268297   6.311   5.365  16.567 -0.3994  0.6901 -0.1552
15628TIP3   OH268298   3.750   0.063  12.816  0.5584  0.0538  0.1560
15628TIP3    H168299   3.797   0.027  12.891  1.4335  0.6376 -0.1034
15628TIP3    H268300   3.819   0.086  12.753 -0.2215 -1.5532 -1.3413
15629TIP3   OH268301   3.068   5.094   1.314  0.2942  0.3141 -0.6933
15629TIP3    H168302   3.021   5.047   1.245  3.4291 -0.2989 -2.5093
15629TIP3    H268303   3.089   5.179   1.275  2.2333 -0.0990 -0.5908
15630TIP3   OH268304   4.658   1.310  15.514 -0.4351  0.4877 -0.5504
15630TIP3    H168305   4.567   1.300  15.487 -0.7292  0.0125  0.5968
15630TIP3    H268306   4.708   1.312  15.432 -1.7341  3.6106 -1.3201
15631TIP3   OH268307   5.096   6.091   4.708  0.1115 -0.1241  0.0428
15631TIP3    H168308   5.180   6.053   4.734 -0.7747 -1.8123  0.5380
15631TIP3    H268309   5.077   6.156   4.776  0.0448 -1.1989  1.0720
15632TIP3   OH268310   3.106   2.642  11.561 -0.2961 -0.5951 -0.1007
15632TIP3    H168311   3.146   2.601  11.637 -0.7543  2.4535  1.8607
15632TIP3    H268312   3.178   2.685  11.515 -0.6226  1.4722  1.2227
15633TIP3   OH268313   0.492   0.141   4.533  0.5020  0.0673  0.0734
15633TIP3    H168314   0.558   0.084   4.572  0.5151  0.8542  1.2561
15633TIP3    H268315   0.409   0.112   4.570  0.4770  0.6243  0.4691
15634TIP3   OH268316   1.542   2.704  11.393 -0.3944  0.6551  0.2508
15634TIP3    H168317   1.531   2.623  11.344 -0.6240  1.2119 -0.6233
15634TIP3    H268318   1.495   2.770  11.342 -0.4660  1.2836  1.1084
15635TIP3   OH268319   5.556   6.304   2.921 -0.1934 -0.1844  0.1404
15635TIP3    H168320   5.472   6.347   2.941 -0.5070 -0.6605 -0.1476
15635TIP3    H268321   5.535   6.242   2.851  0.9038  1.4548 -1.6748
15636TIP3   OH268322   0.545   4.149  13.414  0.2081  0.2289  0.6515
15636TIP3    H168323   0.476   4.149  13.481  0.3586  1.0096  0.8167
15636TIP3    H268324   0.552   4.241  13.387  0.1296 -0.0910 -0.4583
15637TIP3   OH268325   3.816   2.899   2.084 -0.1744  0.0822 -0.2467
15637TIP3    H168326   3.790   2.902   1.993 -2.2997 -1.1478  0.2922
15637TIP3    H268327   3.778   2.978   2.123  1.8413  1.3051 -0.6627
15638TIP3   OH268328   4.552   0.022   2.694  0.3041 -0.2611 -0.0952
15638TIP3    H168329   4.622  -0.040   2.716 -0.1454 -1.4321 -1.8525
15638TIP3    H268330   4.544   0.015   2.599 -2.1227 -0.0544  0.0712
15639TIP3   OH268331   5.761   2.950  14.913 -0.5634 -0.2849 -0.2509
15639TIP3    H168332   5.710   2.955  14.832  0.6020 -1.2976 -1.0555
15639TIP3    H268333   5.836   3.007  14.898  1.0791 -2.5578 -0.9455
15640TIP3   OH268334   0.148   6.179   2.018  0.0595 -0.2129 -0.9140
15640TIP3    H168335   0.172   6.141   2.103  1.1091  0.6513 -0.8197
15640TIP3    H268336   0.114   6.104   1.968 -1.2478 -0.6004  0.5003
15641TIP3   OH268337   1.869   5.858  11.828  0.1598 -0.6257  0.7914
15641TIP3    H168338   1.799   5.845  11.892  0.0768  0.3005  0.8946
15641TIP3    H268339   1.859   5.949  11.800 -0.2924 -1.2396 -1.1112
15642TIP3   OH268340   1.965   0.714   6.303  0.1914  0.1775 -0.1097
15642TIP3    H168341   1.962   0.790   6.362 -0.7504  0.7254 -0.8632
15642TIP3    H268342   1.880   0.671   6.315 -0.4128  0.8521 -1.7913
15643TIP3   OH268343   2.934   6.047  11.749  0.2248  0.1202 -0.3095
15643TIP3    H168344   2.995   5.975  11.767  0.1626  0.4657  1.4529
15643TIP3    H268345   2.988   6.113  11.704  1.3972  0.7069  1.8245
15644TIP3   OH268346   4.033   5.878   2.464  0.4627  0.1254 -0.1313
15644TIP3    H168347   3.977   5.828   2.522 -0.0112  0.8796  0.0676
15644TIP3    H268348   4.114   5.827   2.458 -0.4496 -1.2707 -0.8925
15645TIP3   OH268349   5.465   6.740  12.965 -0.1219  0.1868  0.4259
15645TIP3    H168350   5.456   6.759  12.871  0.1065  2.0418  0.7450
15645TIP3    H268351   5.392   6.682  12.985  1.7656 -3.0578 -1.5772
15646TIP3   OH268352   4.859   5.844  16.705 -0.3095  0.4689 -0.2130
15646TIP3    H168353   4.857   5.809  16.794 -0.3193  1.6917  0.2743
15646TIP3    H268354   4.942   5.813  16.668 -0.2140  0.1285  0.2853
15647TIP3   OH268355   5.920   0.712   2.823  0.1583  0.2795 -0.9852
15647TIP3    H168356   5.827   0.702   2.800  0.2302 -0.3448 -1.0088
15647TIP3    H268357   5.929   0.804   2.847 -1.0074 -0.2145  1.4799
15648TIP3   OH268358   0.615   2.934  11.814 -0.3780 -0.0048  0.0374
15648TIP3    H168359   0.602   2.923  11.719  0.3567  0.0337 -0.0678
15648TIP3    H268360   0.586   3.023  11.832  1.3513  0.6930 -0.4948
15649TIP3   OH268361   6.274   4.874   2.983 -0.4790 -0.7448  0.1371
15649TIP3    H168362   6.245   4.959   2.949 -2.0929 -0.2067  2.7569
15649TIP3    H268363   6.346   4.849   2.925  0.4768  2.7222 -0.3025
15650TIP3   OH268364   5.438   6.461   2.350  0.2975 -0.5530 -0.3168
15650TIP3    H168365   5.416   6.468   2.257  0.8031  1.0912 -0.3280
15650TIP3    H268366   5.532   6.444   2.351  0.3468 -0.2716 -0.1069
15651TIP3   OH268367   6.709   2.586  11.086 -0.8578  0.0087 -0.7219
15651TIP3    H168368   6.724   2.603  11.179  1.7431 -1.0295 -0.9238
15651TIP3    H268369   6.633   2.641  11.064 -0.5610  1.4419  1.6341
15652TIP3   OH268370   2.355   3.442   1.733  0.2506  0.3357  0.4216
15652TIP3    H168371   2.444   3.465   1.757  0.0411 -0.5874  2.1244
15652TIP3    H268372   2.339   3.358   1.777 -0.7597 -0.5174 -1.4990
15653TIP3   OH268373   1.876   5.812   0.240 -0.0833  0.0342 -0.3763
15653TIP3    H168374   1.835   5.771   0.164 -0.6407 -0.2848  0.0980
15653TIP3    H268375   1.925   5.886   0.204  0.3413 -0.6149 -1.1470
15654TIP3   OH268376   3.725   1.701   1.346  0.4485  0.2111 -0.1576
15654TIP3    H168377   3.751   1.610   1.360  1.5607  0.4591 -0.5876
15654TIP3    H268378   3.717   1.737   1.435 -0.7922 -0.5171  0.0385
15655TIP3   OH268379   1.984   3.402  17.157 -0.8150  0.2982  0.2061
15655TIP3    H168380   1.890   3.397  17.137 -1.1608  3.1049  0.8642
15655TIP3    H268381   1.988   3.407  17.253 -0.1191  1.7311  0.1185
15656TIP3   OH268382   2.336   2.329  10.550 -0.3980  0.8717  0.2580
15656TIP3    H168383   2.414   2.383  10.539 -0.8143  1.8033  1.7452
15656TIP3    H268384   2.365   2.252  10.599  0.0300  0.1264 -1.1441
15657TIP3   OH268385   5.522   1.037   0.901  0.5211 -0.3713 -0.4938
15657TIP3    H168386   5.608   1.020   0.939  1.0873  0.6621 -1.3255
15657TIP3    H268387   5.466   1.054   0.977  0.2879 -4.1472  0.3097
15658TIP3   OH268388   0.552   4.218   2.230 -0.1902  0.2497 -0.6229
15658TIP3    H168389   0.518   4.283   2.292  0.1113  1.1484 -1.3731
15658TIP3    H268390   0.632   4.186   2.270  0.1133  0.9772 -0.6395
15659TIP3   OH268391   0.878   1.993   4.921  0.4097 -0.5308 -0.2048
15659TIP3    H168392   0.891   1.911   4.968 -0.6780 -0.3577  0.4074
15659TIP3    H268393   0.783   2.004   4.918  0.5624  2.3793  2.6707
15660TIP3   OH268394   2.579   3.323  10.845  0.0850  0.1721  0.2566
15660TIP3    H168395   2.595   3.410  10.808  0.0603 -0.4819 -1.3030
15660TIP3    H268396   2.665   3.282  10.847 -0.1892 -0.4627 -0.7905
15661TIP3   OH268397   2.015   6.016  16.478  0.0848  0.4802  0.2780
15661TIP3    H168398   1.958   6.070  16.423  1.1932  2.1734  0.7737
15661TIP3    H268399   1.960   5.990  16.552 -1.3789 -1.6778 -1.4613
15662TIP3   OH268400   3.619   2.597  15.996 -0.4163 -0.2460  0.4040
15662TIP3    H168401   3.670   2.517  15.981  0.0024  0.0370  0.3003
15662TIP3    H268402   3.580   2.617  15.911 -1.4851 -1.0007  0.7145
15663TIP3   OH268403   2.330   0.031  11.400 -0.0734  0.2829  0.9247
15663TIP3    H168404   2.305   0.085  11.474 -0.8318  1.0889  0.0938
15663TIP3    H268405   2.311   0.085  11.323 -1.1590 -1.2737  0.0689
15664TIP3   OH268406   1.846   4.391  15.437  0.0220  0.1399 -0.1940
15664TIP3    H168407   1.892   4.473  15.458  1.0907  0.0233 -2.0106
15664TIP3    H268408   1.768   4.393  15.493 -0.4778  2.8611 -0.9042
15665TIP3   OH268409   4.161   4.893  11.311  0.2643 -0.6468  0.2778
15665TIP3    H168410   4.163   4.976  11.263 -0.7689 -1.3914 -1.0988
15665TIP3    H268411   4.087   4.902  11.371  0.3986 -0.4204  0.4099
15666TIP3   OH268412   5.397   4.523   4.321 -0.2834 -0.0738  0.0144
15666TIP3    H168413   5.325   4.584   4.335  0.9378  1.3589  0.0848
15666TIP3    H268414   5.354   4.444   4.286 -1.9782  0.4294  0.8804
15667TIP3   OH268415   0.673   1.493   2.717 -0.3392 -0.2080  0.5909
15667TIP3    H168416   0.699   1.475   2.627  0.3383  1.4486  0.4368
15667TIP3    H268417   0.632   1.579   2.714  3.1040  1.6274  2.4258
15668TIP3   OH268418   0.079   6.530  14.077  0.1193 -0.0275 -0.6999
15668TIP3    H168419   0.024   6.472  14.025  0.9564  0.9553 -2.7086
15668TIP3    H268420   0.130   6.471  14.134 -2.6758 -0.9674  0.9316
15669TIP3   OH268421   3.374   4.727  12.955  0.4983 -0.5387 -0.2154
15669TIP3    H168422   3.418   4.797  13.003  1.3226 -1.6999  0.7483
15669TIP3    H268423   3.445   4.672  12.922 -0.1495 -0.9875 -0.8876
15670TIP3   OH268424   2.107   5.990  15.623 -0.0605  0.4544 -0.1325
15670TIP3    H168425   2.156   6.023  15.548 -1.2417  0.8002 -0.7669
15670TIP3    H268426   2.174   5.962  15.685  0.9411 -0.4034 -1.5574
15671TIP3   OH268427   3.745   5.580   0.652 -0.4083  0.5493 -0.1685
15671TIP3    H168428   3.739   5.659   0.599  0.4374  0.5594 -0.2639
15671TIP3    H268429   3.838   5.557   0.650 -1.0602 -2.1479 -2.5995
15672TIP3   OH268430   4.541   0.049  14.967 -0.2550 -0.1486  0.4619
15672TIP3    H168431   4.569   0.097  14.888  0.5907 -0.0342  0.8231
15672TIP3    H268432   4.454   0.083  14.986  0.6293  1.8143  1.1509
15673TIP3   OH268433   5.072   4.349  12.223  0.1322 -0.5553 -0.0089
15673TIP3    H168434   5.133   4.281  12.250 -0.5859 -0.4414  1.9710
15673TIP3    H268435   5.117   4.431  12.243  1.1276 -0.3947 -2.6837
15674TIP3   OH268436   3.164   0.014   3.801 -0.2815  0.1735  0.4841
15674TIP3    H168437   3.092   0.076   3.810 -0.5415 -0.3096  1.8007
15674TIP3    H268438   3.128  -0.059   3.751  0.5924  1.9512 -2.9195
15675TIP3   OH268439   1.360   1.593   4.347 -0.4264  0.0590  0.1998
15675TIP3    H168440   1.301   1.540   4.400 -0.3942 -1.2096 -1.0262
15675TIP3    H268441   1.308   1.668   4.320 -0.8886 -0.0683  0.7239
15676TIP3   OH268442   6.120   6.766   3.630 -0.4507  0.4466  0.0892
15676TIP3    H168443   6.055   6.826   3.667  0.3067  1.5462 -0.3217
15676TIP3    H268444   6.194   6.823   3.606 -0.1609 -0.4945 -1.3316
15677TIP3   OH268445   0.848   4.410  12.368 -0.0439  0.2281  0.0830
15677TIP3    H168446   0.876   4.357  12.293 -2.5923 -2.0546  0.6565
15677TIP3    H268447   0.926   4.420  12.422  1.4313  0.5202 -2.0575
15678TIP3   OH268448   3.587   3.280   3.252  0.4413  0.5614  0.0864
15678TIP3    H168449   3.573   3.229   3.173 -2.8412  0.7015  0.5210
15678TIP3    H268450   3.607   3.368   3.221 -0.0040  0.4236 -0.5855
15679TIP3   OH268451   5.606   0.383   3.494  0.1057  0.1423 -0.0238
15679TIP3    H168452   5.683   0.437   3.476 -0.5148  0.0334 -3.1622
15679TIP3    H268453   5.629   0.297   3.459 -0.1440 -0.8485  2.1464
15680TIP3   OH268454   2.387   4.294  12.953  0.0479 -0.0109  0.2238
15680TIP3    H168455   2.478   4.274  12.979  0.1545 -1.4549 -1.1553
15680TIP3    H268456   2.362   4.220  12.898 -1.3431  1.3047 -0.9332
15681TIP3   OH268457   2.619   2.038   4.696 -0.5842  0.0168  0.4004
15681TIP3    H168458   2.656   2.107   4.751  0.5713 -1.3212  1.3534
15681TIP3    H268459   2.528   2.031   4.725 -0.8686  1.5243 -0.1084
15682TIP3   OH268460   2.755   4.817  14.723  0.2980  0.1931  0.3511
15682TIP3    H168461   2.716   4.900  14.750  0.8708  0.1732  1.2555
15682TIP3    H268462   2.688   4.751  14.744 -0.4409  0.4950 -1.0211
15683TIP3   OH268463   0.822   4.597   2.094  0.0762 -0.1572 -0.1708
15683TIP3    H168464   0.843   4.557   2.010 -0.3221  0.8219 -0.7436
15683TIP3    H268465   0.732   4.571   2.112 -0.1763  0.4589 -0.5339
15684TIP3   OH268466   2.964   5.389   3.861  0.7374 -0.3154  0.5450
15684TIP3    H168467   2.935   5.442   3.787  2.2086 -0.0108  0.1822
15684TIP3    H268468   2.964   5.299   3.826  1.2573 -0.1925  0.2126
15685TIP3   OH268469   0.091   4.734   3.276  0.0215 -0.7745  0.5418
15685TIP3    H168470   0.133   4.819   3.263  0.6716 -1.3025 -0.8980
15685TIP3    H268471   0.127   4.702   3.359  0.7266 -0.1920  0.4661
15686TIP3   OH268472   6.477   3.345  15.604  0.0884 -0.0749 -0.2068
15686TIP3    H168473   6.555   3.392  15.634 -0.9031  1.4734 -0.0162
15686TIP3    H268474   6.416   3.413  15.576 -0.6257 -1.3334 -1.8223
15687TIP3   OH268475   6.617   0.088   6.489  0.4498  1.2126 -0.1932
15687TIP3    H168476   6.548   0.110   6.427 -1.4752 -0.6988  1.1806
15687TIP3    H268477   6.634  -0.005   6.474  1.7011  1.3258  0.4685
15688TIP3   OH268478   5.519   6.366  12.487 -0.5938 -0.5088 -0.6337
15688TIP3    H168479   5.499   6.344  12.578  0.5922 -1.5753 -0.6093
15688TIP3    H268480   5.517   6.461  12.484 -0.1851 -0.4456  0.6363
15689TIP3   OH268481   4.645   2.991  13.514  0.2452  1.0064 -0.2952
15689TIP3    H168482   4.646   2.910  13.564 -1.4449  0.3625 -1.2960
15689TIP3    H268483   4.724   3.038  13.543  2.5612 -2.0351 -1.5004
15690TIP3   OH268484   3.845   2.660   2.621  0.5874 -0.2791  0.4801
15690TIP3    H168485   3.864   2.579   2.574 -0.5653  0.2723 -1.0019
15690TIP3    H268486   3.752   2.654   2.643 -0.3970  1.9861 -2.5412
15691TIP3   OH268487   0.464   3.560  16.676 -0.2651 -0.5626  0.0610
15691TIP3    H168488   0.377   3.537  16.643 -0.5084 -0.7796  0.8362
15691TIP3    H268489   0.453   3.567  16.771  0.0040  1.8833 -0.0565
15692TIP3   OH268490   1.676   2.087  15.493  0.1976 -0.4801  0.1702
15692TIP3    H168491   1.694   2.149  15.563  2.4655  1.3786 -1.9616
15692TIP3    H268492   1.606   2.128  15.442  0.7063 -0.3484 -0.4254
15693TIP3   OH268493   0.091   2.214   4.725 -0.0760  0.1869  0.2560
15693TIP3    H168494   0.031   2.213   4.650 -0.6218  1.9036  0.6694
15693TIP3    H268495   0.037   2.190   4.800 -0.0716  0.9628  0.5052
15694TIP3   OH268496   2.883   5.552  12.849 -0.2857  0.1630 -0.5318
15694TIP3    H168497   2.923   5.538  12.763  0.3221  0.8689 -0.3707
15694TIP3    H268498   2.949   5.600  12.899 -1.5429  1.9050 -0.4665
15695TIP3   OH268499   4.220   2.908  14.806 -0.1919 -0.3163  0.2004
15695TIP3    H168500   4.284   2.941  14.869  0.6570 -0.3117 -0.6657
15695TIP3    H268501   4.135   2.929  14.846  0.3360  1.5049  0.4015
15696TIP3   OH268502   3.503   6.442   3.578 -0.3687 -0.2216 -0.0812
15696TIP3    H168503   3.571   6.430   3.644 -1.1136  1.1405  0.9781
15696TIP3    H268504   3.546   6.494   3.510 -0.6594  1.6944  1.1570
15697TIP3   OH268505   5.323   1.061   2.353 -0.0208 -0.8561  0.3574
15697TIP3    H168506   5.385   1.098   2.417 -2.0908  0.8572  1.4521
15697TIP3    H268507   5.338   0.967   2.357  0.8263 -0.6616  2.4126
15698TIP3   OH268508   5.750   1.502   2.624  0.6419  0.1570 -0.4079
15698TIP3    H168509   5.685   1.494   2.555 -0.6640  0.9482  0.7061
15698TIP3    H268510   5.800   1.581   2.601  1.0419 -0.3009 -1.1190
15699TIP3   OH268511   1.373   3.311   1.036 -0.5057 -0.4054 -0.0520
15699TIP3    H168512   1.464   3.337   1.023 -0.6913  1.5938  2.2408
15699TIP3    H268513   1.336   3.308   0.948  1.2387  0.8122 -0.8520
15700TIP3   OH268514   0.374   5.612  13.686  0.4475 -0.1563  0.3463
15700TIP3    H168515   0.296   5.582  13.639  1.3026 -1.4379 -0.2946
15700TIP3    H268516   0.445   5.558  13.651  1.1834 -0.8706  2.8366
15701TIP3   OH268517   2.609   0.980  13.161 -0.5086 -0.1149  0.1355
15701TIP3    H168518   2.691   0.931  13.163  0.3281  1.3027  0.8983
15701TIP3    H268519   2.562   0.945  13.085  1.7324  0.5744 -1.6088
15702TIP3   OH268520   0.813   0.965   2.083  0.2695 -0.2406  0.7101
15702TIP3    H168521   0.850   0.878   2.073  0.7259  0.0674 -0.3095
15702TIP3    H268522   0.881   1.024   2.052 -0.5855  0.3983  0.0209
15703TIP3   OH268523   3.248   5.526   3.829 -0.2261 -0.0336  0.0424
15703TIP3    H168524   3.217   5.597   3.773  0.8582 -0.6046 -1.2875
15703TIP3    H268525   3.177   5.462   3.827 -0.0348 -0.2261 -1.0018
15704TIP3   OH268526   4.761   5.702   5.000  0.1919 -0.1603  0.1264
15704TIP3    H168527   4.789   5.792   4.986 -0.6241 -0.1345 -1.4815
15704TIP3    H268528   4.734   5.699   5.092 -1.1235  1.6075 -0.1865
15705TIP3   OH268529   6.170   4.835  13.221 -0.6243  0.1234  0.3258
15705TIP3    H168530   6.260   4.808  13.242 -1.2673 -1.8151  0.7605
15705TIP3    H268531   6.175   4.929  13.208  1.2621  0.2203  1.5540
15706TIP3   OH268532   4.003   6.380   2.716  0.3827 -0.4553  0.3265
15706TIP3    H168533   3.940   6.444   2.749  0.4477  0.6577 -1.6083
15706TIP3    H268534   3.983   6.373   2.622  0.5567 -3.0786  0.4393
15707TIP3   OH268535   1.832   3.062  10.829  0.2683 -0.4012 -0.1937
15707TIP3    H168536   1.926   3.075  10.843  0.4844 -0.3111 -1.6555
15707TIP3    H268537   1.817   2.970  10.851  0.3726  0.0023  1.6553
15708TIP3   OH268538   4.512   1.013   3.301  0.4619  0.0904  0.4287
15708TIP3    H168539   4.497   0.938   3.359  0.7771 -1.4327 -1.3970
15708TIP3    H268540   4.425   1.034   3.268  0.8416 -2.0910 -2.1450
15709TIP3   OH268541   1.630   1.658   1.495  0.2984  0.2867 -0.3837
15709TIP3    H168542   1.683   1.736   1.473  1.3204  0.1029  1.3391
15709TIP3    H268543   1.619   1.663   1.590  0.2595 -1.5986 -0.2743
15710TIP3   OH268544   6.331   1.751  11.830 -0.3445  0.0173 -0.1813
15710TIP3    H168545   6.335   1.754  11.926 -0.8551 -1.8637 -0.0760
15710TIP3    H268546   6.309   1.840  11.804  0.2376  0.6560  1.4286
15711TIP3   OH268547   5.119   0.182  16.537 -0.1390  0.6581 -0.5476
15711TIP3    H168548   5.172   0.216  16.608  1.9532 -0.1760 -1.6472
15711TIP3    H268549   5.065   0.256  16.508 -1.3858  0.8525  2.1850
15712TIP3   OH268550   6.622   0.197   0.515  0.5203  0.3872 -0.1530
15712TIP3    H168551   6.559   0.267   0.533  1.0494  0.3491  1.9606
15712TIP3    H268552   6.599   0.128   0.576 -1.3254 -2.2105 -3.6362
15713TIP3   OH268553   2.006   2.470  14.478  0.8543  0.2222 -0.1093
15713TIP3    H168554   1.932   2.411  14.491  1.3759 -0.5174 -0.5097
15713TIP3    H268555   2.032   2.496  14.567 -0.0660  0.7135  0.0188
15714TIP3   OH268556   4.883   5.660  15.749  0.3019 -0.3554 -0.7009
15714TIP3    H168557   4.958   5.719  15.749  1.3374 -1.6447  0.5388
15714TIP3    H268558   4.916   5.579  15.788 -2.1191 -0.4049  1.4131
15715TIP3   OH268559   4.412   5.983   2.517  0.4681 -0.1521  0.1498
15715TIP3    H168560   4.397   5.893   2.490  3.9398 -0.7680 -0.0406
15715TIP3    H268561   4.394   5.984   2.611 -0.4363 -0.8137 -0.0095
15716TIP3   OH268562   2.760   3.360   0.975  0.2097 -0.0234 -0.1394
15716TIP3    H168563   2.685   3.411   0.945  1.5012  2.0495  0.0228
15716TIP3    H268564   2.822   3.426   1.008  1.0819 -1.8386  2.0006
15717TIP3   OH268565   6.613   1.075   2.714 -0.4544 -0.4117 -0.0899
15717TIP3    H168566   6.694   1.122   2.694 -0.6640 -0.1687 -0.3521
15717TIP3    H268567   6.583   1.114   2.797 -1.7725  1.4035 -1.3933
15718TIP3   OH268568   2.650   3.556   6.038 -0.4210 -0.5203 -0.1646
15718TIP3    H168569   2.669   3.496   5.966 -1.4257  0.0736 -0.9260
15718TIP3    H268570   2.601   3.503   6.101  1.6844 -1.4290  0.7569
15719TIP3   OH268571   3.803   0.684  11.274 -1.0171  0.4984  0.0002
15719TIP3    H168572   3.749   0.752  11.234 -0.2644  1.1221  0.0324
15719TIP3    H268573   3.893   0.708  11.251 -0.7986 -1.0586 -0.8642
15720TIP3   OH268574   3.447   1.658   5.937  0.5819  0.2431 -0.1511
15720TIP3    H168575   3.390   1.593   5.897  0.1849 -0.1605  1.0382
15720TIP3    H268576   3.483   1.614   6.014  2.1980  0.6282 -0.6724
15721TIP3   OH268577   4.414   0.076   4.818 -0.7736 -0.1529  0.3073
15721TIP3    H168578   4.452   0.011   4.759 -1.3119  1.2226 -1.6003
15721TIP3    H268579   4.328   0.040   4.840  0.0015 -1.3605  1.4429
15722TIP3   OH268580   0.881   6.606   4.720  0.3436  0.6586  0.1636
15722TIP3    H168581   0.813   6.546   4.750  0.0946  1.9591  2.3941
15722TIP3    H268582   0.964   6.560   4.736  0.1319  0.6760  1.3841
15723TIP3   OH268583   3.656   0.113  16.087  0.1038  0.4098 -0.6155
15723TIP3    H168584   3.708   0.184  16.048  1.4804 -0.5401 -0.5367
15723TIP3    H268585   3.590   0.093  16.021  0.5074  0.9147 -1.1792
15724TIP3   OH268586   4.424   1.078   5.709 -0.5986 -0.4221  0.9119
15724TIP3    H168587   4.410   1.166   5.743  2.1568  1.1919 -1.8624
15724TIP3    H268588   4.366   1.072   5.634  1.4861  0.2870 -0.8200
15725TIP3   OH268589   3.423   3.251  14.289 -0.0198  0.4196  0.4989
15725TIP3    H168590   3.475   3.293  14.358 -0.8282  1.3736  0.5334
15725TIP3    H268591   3.339   3.297  14.291 -0.4939 -0.4101 -0.2653
15726TIP3   OH268592   5.001   4.599   5.261  0.1877 -0.4139  0.4416
15726TIP3    H168593   4.959   4.604   5.175 -0.1176  0.7176  0.6501
15726TIP3    H268594   4.930   4.611   5.324  0.6359  0.2747  0.8221
15727TIP3   OH268595   2.204   6.156   1.327 -0.1292 -0.5022 -0.1594
15727TIP3    H168596   2.286   6.159   1.279  0.6055  0.7235  1.1466
15727TIP3    H268597   2.164   6.073   1.301  0.6861 -0.2922 -2.1494
15728TIP3   OH268598   3.536   4.278   5.418 -0.5334  0.4783 -0.3859
15728TIP3    H168599   3.448   4.258   5.451 -1.4146  1.6820 -1.9789
15728TIP3    H268600   3.541   4.373   5.420  0.8510  0.4040 -0.0630
15729TIP3   OH268601   6.068   4.924   4.694 -0.3544  0.2228  0.2441
15729TIP3    H168602   6.045   4.935   4.786  1.0173  1.0397  0.5164
15729TIP3    H268603   5.987   4.939   4.646 -1.1242 -0.4499  1.3445
15730TIP3   OH268604   4.308   6.667  16.663  0.2029 -0.0490  0.6557
15730TIP3    H168605   4.297   6.713  16.580  1.0373 -2.4449 -0.8164
15730TIP3    H268606   4.264   6.723  16.727  0.9026  2.6303 -1.1139
15731TIP3   OH268607   6.724   4.891   1.892 -0.0362 -0.0274  0.8213
15731TIP3    H168608   6.775   4.812   1.912  1.1181  0.1802 -1.1748
15731TIP3    H268609   6.783   4.945   1.838 -2.3958  0.1581 -1.6839
15732TIP3   OH268610   0.534   0.771   3.364 -0.2499  0.4960 -0.1068
15732TIP3    H168611   0.492   0.841   3.313  1.2282  1.8805  0.5376
15732TIP3    H268612   0.567   0.815   3.442 -0.5502 -1.2041  0.9984
15733TIP3   OH268613   3.297   5.363   1.829  0.3282 -0.1019  0.6931
15733TIP3    H168614   3.336   5.449   1.819  1.5557 -0.7517 -0.2134
15733TIP3    H268615   3.233   5.374   1.900 -0.1759  1.7483 -0.0157
15734TIP3   OH268616   5.239   2.908  15.071  0.5103  0.0726 -0.6950
15734TIP3    H168617   5.146   2.920  15.090  0.9169 -1.2051  2.2714
15734TIP3    H268618   5.241   2.832  15.013 -0.2836  0.2123 -0.9229
15735TIP3   OH268619   6.589   6.153   2.796 -0.0543 -0.3072 -0.3946
15735TIP3    H168620   6.595   6.242   2.760 -1.2881 -0.6930 -1.6033
15735TIP3    H268621   6.526   6.109   2.739  0.0482 -1.7628  0.6060
15736TIP3   OH268622   2.173   2.146   5.035 -0.1462 -0.5025  0.0686
15736TIP3    H168623   2.234   2.083   5.073 -0.1774 -0.0730  0.8352
15736TIP3    H268624   2.092   2.097   5.025 -0.3311 -0.4360  1.1818
15737TIP3   OH268625   4.223   2.593   1.171  0.6708 -0.3326  0.4762
15737TIP3    H168626   4.181   2.679   1.175 -0.1630 -0.2983 -5.0595
15737TIP3    H268627   4.151   2.531   1.172  0.8601 -0.6184 -1.7630
15738TIP3   OH268628   1.761   0.206  13.363 -0.3221 -0.5909 -0.0238
15738TIP3    H168629   1.793   0.283  13.410  1.4878 -1.6930  0.6120
15738TIP3    H268630   1.803   0.212  13.276  1.4197 -1.8595  0.6966
15739TIP3   OH268631   0.728   1.834   5.124  0.1149  0.5766 -0.2841
15739TIP3    H168632   0.808   1.805   5.167  0.0478  0.7022 -0.0778
15739TIP3    H268633   0.658   1.803   5.180 -0.0200 -0.4246 -0.9914
15740TIP3   OH268634   4.601   6.692   4.285 -0.2027  0.0566  0.1706
15740TIP3    H168635   4.621   6.783   4.309  1.1995 -0.4022  0.7880
15740TIP3    H268636   4.540   6.699   4.212 -0.0769  1.4981  0.1948
15741TIP3   OH268637   2.014   0.919   5.572  0.6456 -0.1201 -0.1166
15741TIP3    H168638   2.104   0.934   5.598  0.3224 -0.4464  1.2138
15741TIP3    H268639   1.974   1.006   5.572  0.4197 -0.2064  1.3841
15742TIP3   OH268640   6.670   1.018  16.781  0.3341  0.2295  0.3849
15742TIP3    H168641   6.618   1.063  16.847 -0.0854  0.2154  0.0599
15742TIP3    H268642   6.618   0.942  16.755  0.6403  0.0546  0.2721
15743TIP3   OH268643   6.279   0.507  13.789  0.1698  0.6482 -0.1252
15743TIP3    H168644   6.284   0.580  13.850  0.2210  2.0306 -1.7502
15743TIP3    H268645   6.243   0.545  13.709 -1.7564 -1.5405 -0.3388
15744TIP3   OH268646   0.252   5.684  13.931 -0.7927  0.3447  0.0755
15744TIP3    H168647   0.272   5.604  13.980  0.3817  0.8483  0.4263
15744TIP3    H268648   0.236   5.654  13.842 -0.0563 -0.2531  0.1425
15745TIP3   OH268649   0.226   0.205  12.964  0.1560 -0.5722 -0.0940
15745TIP3    H168650   0.254   0.230  13.052  2.8817 -1.4964 -0.6514
15745TIP3    H268651   0.266   0.270  12.907 -0.8918 -0.4897 -0.7516
15746TIP3   OH268652   5.950   5.571  13.080 -0.6008  0.0725 -0.1334
15746TIP3    H168653   5.855   5.572  13.095 -0.7488 -1.6108 -0.8196
15746TIP3    H268654   5.988   5.550  13.165 -0.8629  0.5546  0.1008
15747TIP3   OH268655   3.429   6.554  15.929 -0.2446 -0.0223 -0.2288
15747TIP3    H168656   3.394   6.539  16.016 -0.6881 -1.6917 -0.6664
15747TIP3    H268657   3.524   6.549  15.940 -0.3276 -1.6050 -0.0402
15748TIP3   OH268658   0.936   3.874   1.422  0.4990 -0.4602  0.3218
15748TIP3    H168659   0.841   3.879   1.435  0.4167  0.4406 -0.5937
15748TIP3    H268660   0.973   3.909   1.503  0.0878 -2.4529  1.4167
15749TIP3   OH268661   1.045   0.712  15.812  0.3569  0.1568  0.1489
15749TIP3    H168662   1.071   0.774  15.879  1.7944  0.5175 -0.7124
15749TIP3    H268663   0.950   0.705  15.821  0.1528  2.5886  0.1539
15750TIP3   OH268664   2.842   5.652  16.307  0.3377  0.0107  0.0947
15750TIP3    H168665   2.847   5.583  16.241 -1.3099 -0.2711  0.2564
15750TIP3    H268666   2.786   5.719  16.267  0.8222  0.6593  0.4825
15751TIP3   OH268667   2.959   3.473  11.814  0.0672  0.0942 -0.0165
15751TIP3    H168668   2.970   3.460  11.908  1.7740  0.4967 -0.1561
15751TIP3    H268669   2.870   3.508  11.805 -0.4117 -0.7418  1.3640
15752TIP3   OH268670   5.973   6.648   3.915  0.5095 -0.7225 -0.4483
15752TIP3    H168671   5.936   6.715   3.858  0.7919 -1.9557 -2.1404
15752TIP3    H268672   6.067   6.649   3.895  0.5103 -1.6207 -0.5250
15753TIP3   OH268673   3.558   4.534  16.968 -0.9215 -0.0695 -0.1691
15753TIP3    H168674   3.586   4.613  17.013 -0.4020 -0.2819 -0.1210
15753TIP3    H268675   3.471   4.516  17.003 -0.0375 -0.9102  1.6219
15754TIP3   OH268676   1.806   1.962  16.333 -0.1723  0.2069 -0.0407
15754TIP3    H168677   1.831   2.028  16.398  0.3949 -0.4099  0.3740
15754TIP3    H268678   1.807   2.008  16.250  1.6101  0.3846  0.0683
15755TIP3   OH268679   5.606   5.685  14.191 -0.2481 -0.4680 -0.1972
15755TIP3    H168680   5.633   5.645  14.274  1.7528  0.5629 -0.3277
15755TIP3    H268681   5.564   5.614  14.143 -0.8561 -1.2481  1.4244
15756TIP3   OH268682   3.706   6.428   1.584 -0.2606  0.7348 -0.3985
15756TIP3    H168683   3.797   6.398   1.596 -0.2741  0.5765 -0.6924
15756TIP3    H268684   3.655   6.372   1.642  0.0490  2.0934  1.2482
15757TIP3   OH268685   1.980   2.100  15.616 -0.4519  0.1841  0.4155
15757TIP3    H168686   2.029   2.158  15.675  1.0890 -2.2470  1.5971
15757TIP3    H268687   2.006   2.128  15.528 -0.7849  2.1592  0.9082
15758TIP3   OH268688   3.607   1.650   6.577  0.5997 -0.1905  0.7187
15758TIP3    H168689   3.542   1.716   6.552  0.6517 -1.0004 -1.7484
15758TIP3    H268690   3.682   1.667   6.519  0.1103 -3.1756 -0.9170
15759TIP3   OH268691   1.522   1.954  11.836 -0.5079 -0.1456  0.0255
15759TIP3    H168692   1.559   1.935  11.750  1.3247  0.2297  0.7105
15759TIP3    H268693   1.577   1.905  11.897 -1.5505 -0.0957  1.0197
15760TIP3   OH268694   5.917   6.201  12.712 -0.1453 -0.1888 -0.4915
15760TIP3    H168695   5.939   6.219  12.621 -0.8788  0.4147 -0.5483
15760TIP3    H268696   5.913   6.287  12.754  3.1105 -0.5797  0.8078
15761TIP3   OH268697   2.495   2.611  13.981  0.0035  0.2081  0.4871
15761TIP3    H168698   2.509   2.688  13.926 -0.8250  0.6135  0.8447
15761TIP3    H268699   2.425   2.562  13.938 -0.6381  0.5220  1.1854
15762TIP3   OH268700   4.651   0.224  13.425  0.0621  0.7405 -0.4726
15762TIP3    H168701   4.669   0.298  13.483 -0.1767  1.2950 -1.0987
15762TIP3    H268702   4.573   0.183  13.462  0.8326  0.1292  0.5107
15763TIP3   OH268703   5.053   1.272  15.421  0.1422 -0.1444 -0.3479
15763TIP3    H168704   5.013   1.325  15.490 -2.5115 -2.1112 -0.3046
15763TIP3    H268705   5.036   1.321  15.340 -0.4415  0.1101 -0.0767
15764TIP3   OH268706   2.546   3.490   5.772  0.1965 -0.0638  0.1246
15764TIP3    H168707   2.594   3.408   5.763  1.7094  0.8102  0.0789
15764TIP3    H268708   2.460   3.472   5.734  1.8380 -0.4798 -3.6006
15765TIP3   OH268709   1.226   5.648   0.476 -0.4194  0.7221  1.0989
15765TIP3    H168710   1.254   5.561   0.446  0.2980  1.2377  0.2219
15765TIP3    H268711   1.176   5.632   0.555 -2.6791 -0.7488 -0.5658
15766TIP3   OH268712   1.454   5.905   1.645  0.5089  0.0045 -0.0079
15766TIP3    H168713   1.487   5.864   1.566  0.9468 -1.5648  0.9659
15766TIP3    H268714   1.385   5.963   1.615 -1.0753 -2.4835 -1.2914
15767TIP3   OH268715   5.783   3.291   1.324 -0.0787  0.5473 -0.0766
15767TIP3    H168716   5.707   3.318   1.273  0.1309  1.4792  0.1108
15767TIP3    H268717   5.822   3.220   1.272 -0.4610  0.7861 -0.6924
15768TIP3   OH268718   2.966   6.523   5.455  0.6117  0.5586  0.1018
15768TIP3    H168719   3.021   6.558   5.525  2.3894  0.9767 -1.4738
15768TIP3    H268720   3.026   6.469   5.403 -0.9404 -0.6302 -0.4781
15769TIP3   OH268721   6.272   6.284   0.429  0.0080 -1.0260 -0.1853
15769TIP3    H168722   6.219   6.356   0.395 -0.1341  0.6758  3.4379
15769TIP3    H268723   6.216   6.242   0.494  1.1694 -2.5626 -0.1548
15770TIP3   OH268724   6.167   3.300  11.431  0.1840  0.1741 -0.0093
15770TIP3    H168725   6.154   3.229  11.495  0.7980 -0.3712 -0.4854
15770TIP3    H268726   6.253   3.336  11.452 -0.2909  1.0360  0.4730
15771TIP3   OH268727   4.947   1.082   5.279 -0.3566 -0.5884  0.2399
15771TIP3    H168728   5.013   1.128   5.331 -2.2460  0.8517  1.4881
15771TIP3    H268729   4.886   1.047   5.345 -2.0964  0.1512 -0.9440
15772TIP3   OH268730   6.391   0.051   6.318 -0.6795  0.0765 -0.1201
15772TIP3    H168731   6.424  -0.030   6.278 -1.3759 -0.1042 -0.3334
15772TIP3    H268732   6.308   0.026   6.358 -0.3234  0.4246  0.8375
15773TIP3   OH268733   0.248   1.624   6.369  0.3395 -0.5303 -0.1786
15773TIP3    H168734   0.204   1.548   6.331 -1.6915 -0.8913  2.6872
15773TIP3    H268735   0.338   1.595   6.382 -0.2734 -2.2748  0.3567
15774TIP3   OH268736   5.907   1.005  16.702  0.3232 -0.1479 -0.1016
15774TIP3    H168737   5.901   1.066  16.629  2.0563 -0.5638 -0.6222
15774TIP3    H268738   5.818   0.973  16.715  0.1314 -0.7420 -2.6184
15775TIP3   OH268739   4.335   2.310  11.267  0.2645 -0.3452  0.7789
15775TIP3    H168740   4.347   2.265  11.183  0.7745  0.5329  0.3707
15775TIP3    H268741   4.410   2.284  11.320  0.2308 -0.4692  0.7655
15776TIP3   OH268742   3.191   5.592  12.055 -0.4663 -0.0911  0.2209
15776TIP3    H168743   3.164   5.666  12.108  2.6976  0.3032  1.3866
15776TIP3    H268744   3.201   5.627  11.967  1.9978  1.1914  0.9555
15777TIP3   OH268745   5.691   0.932  15.525 -0.0867 -0.9205 -0.7788
15777TIP3    H168746   5.648   0.870  15.584 -2.5254  1.8771  0.4890
15777TIP3    H268747   5.783   0.930  15.551 -0.5853 -2.0719  0.9757
15778TIP3   OH268748   1.696   1.957   5.502  0.0664  0.0543 -0.0012
15778TIP3    H168749   1.660   1.869   5.488 -0.5119  0.3037 -0.0877
15778TIP3    H268750   1.788   1.942   5.524  0.5312 -0.4393 -2.1993
15779TIP3   OH268751   6.121   6.734   5.387  0.0623 -0.0534  0.2967
15779TIP3    H168752   6.151   6.697   5.470  0.9438  0.7649  0.3440
15779TIP3    H268753   6.153   6.824   5.388 -0.1724  0.0414 -0.8124
15780TIP3   OH268754   2.722   3.751   4.997  0.1818  0.2450  0.7728
15780TIP3    H168755   2.701   3.663   5.030  0.9000 -0.0898  0.3585
15780TIP3    H268756   2.654   3.769   4.932 -0.2047  0.1682  1.1529
15781TIP3   OH268757   2.492   0.179  13.197  0.0595  0.2842 -0.3502
15781TIP3    H168758   2.530   0.232  13.267 -1.7401  2.0082 -0.6071
15781TIP3    H268759   2.467   0.097  13.240  2.2833 -0.1368  0.1999
15782TIP3   OH268760   4.191   1.002   4.587 -0.3995 -0.6899 -0.2164
15782TIP3    H168761   4.153   1.048   4.512  0.6870 -0.2869 -0.5172
15782TIP3    H268762   4.159   1.050   4.663  1.5801  1.2253 -0.5657
15783TIP3   OH268763   5.596   6.389  16.621  0.0183  0.4390 -0.6398
15783TIP3    H168764   5.637   6.406  16.536 -1.2046  2.8730 -0.7702
15783TIP3    H268765   5.504   6.373  16.601 -0.4368  1.8327  0.3038
15784TIP3   OH268766   6.106   1.734   3.332 -0.2023  0.5342  0.1592
15784TIP3    H168767   6.048   1.657   3.336 -0.3652  0.6201 -0.5897
15784TIP3    H268768   6.052   1.803   3.295  0.0449  0.9297  0.5317
15785TIP3   OH268769   4.275   1.305  12.126  0.0307  0.2375 -0.3894
15785TIP3    H168770   4.244   1.389  12.161 -0.4576  0.8047 -2.1241
15785TIP3    H268771   4.241   1.303  12.036  0.3538 -1.6569 -0.4827
15786TIP3   OH268772   3.990   6.601  11.687 -0.3354 -0.2345 -0.2340
15786TIP3    H168773   3.999   6.693  11.712  1.3020 -0.4194 -0.0894
15786TIP3    H268774   4.042   6.554  11.752 -2.2518 -1.3960  0.4981
15787TIP3   OH268775   3.178   1.034   6.307  0.1913 -0.0013 -0.2742
15787TIP3    H168776   3.256   1.024   6.253  0.5739  1.4600 -0.0073
15787TIP3    H268777   3.180   0.958   6.366 -0.6762 -2.0895 -2.8220
15788TIP3   OH268778   2.634   0.173  11.493 -0.3638  0.5166  0.0582
15788TIP3    H168779   2.627   0.107  11.562 -2.0092  0.6218  0.0173
15788TIP3    H268780   2.661   0.125  11.415 -1.3562 -0.0875  0.0771
15789TIP3   OH268781   4.325   1.312  16.357  0.6994 -0.5073  0.3157
15789TIP3    H168782   4.302   1.233  16.406  0.4596  0.0286  1.0571
15789TIP3    H268783   4.415   1.332  16.384  1.3228 -1.3979 -1.0223
15790TIP3   OH268784   4.072   4.279   0.667  0.2526 -0.2666  0.6675
15790TIP3    H168785   4.164   4.298   0.689  0.3193  0.9738 -0.6109
15790TIP3    H268786   4.073   4.262   0.573 -0.7324 -0.9658  0.7832
15791TIP3   OH268787   5.507   3.199  15.661 -0.0850  0.3371 -0.1771
15791TIP3    H168788   5.437   3.152  15.617 -0.4723 -1.7609  2.5795
15791TIP3    H268789   5.580   3.137  15.663  1.0304  1.5908 -0.7478
15792TIP3   OH268790   4.547   3.800   3.900 -0.5322 -0.2801  0.4535
15792TIP3    H168791   4.576   3.889   3.921 -0.4893 -0.4968  1.3394
15792TIP3    H268792   4.575   3.786   3.810  0.0978  0.3426  0.5490
15793TIP3   OH268793   1.180   5.947  12.830 -0.8221  0.1195 -0.3752
15793TIP3    H168794   1.121   5.994  12.771 -1.5304 -0.9697 -0.5627
15793TIP3    H268795   1.221   6.015  12.884 -0.4120  1.0994 -1.9008
15794TIP3   OH268796   5.337   2.733  14.447  0.7593 -0.2865  0.4061
15794TIP3    H168797   5.250   2.742  14.408  0.1394  0.7334  1.9586
15794TIP3    H268798   5.324   2.676  14.523  1.6214 -0.8784  0.1185
15795TIP3   OH268799   3.759   0.276  14.666 -0.0979 -0.2237  0.2531
15795TIP3    H168800   3.853   0.266  14.652 -0.1764  0.9694 -1.2283
15795TIP3    H268801   3.719   0.208  14.612 -0.1328  0.2043 -0.2678
15796TIP3   OH268802   4.213   1.971  16.742 -0.3267  0.5636 -0.1448
15796TIP3    H168803   4.251   1.885  16.724 -1.6097  0.2856 -1.5667
15796TIP3    H268804   4.131   1.973  16.693 -1.3427  1.8149  1.5208
15797TIP3   OH268805   5.247   6.120   3.586 -0.3825  0.0898 -0.3517
15797TIP3    H168806   5.253   6.149   3.494  1.5157  0.3990 -0.1450
15797TIP3    H268807   5.257   6.201   3.636  0.0271 -0.2728  0.1497
15798TIP3   OH268808   1.406   2.307   5.018 -0.0886  0.9353 -0.3031
15798TIP3    H168809   1.415   2.277   5.109 -0.3533  0.4095 -0.4505
15798TIP3    H268810   1.358   2.237   4.974 -0.4704  1.4524 -0.7145
15799TIP3   OH268811   1.148   6.310   5.688  0.3694  0.1358 -0.3098
15799TIP3    H168812   1.178   6.396   5.659 -2.2810  0.1483 -3.2087
15799TIP3    H268813   1.119   6.324   5.778  1.7251  1.8101 -0.1013
15800TIP3   OH268814   6.009   1.644  14.277  0.1527 -0.1026  0.0760
15800TIP3    H168815   6.008   1.737  14.253 -0.7993 -0.4815 -1.4513
15800TIP3    H268816   6.038   1.599  14.198 -1.2436 -1.2572  0.2033
15801TIP3   OH268817   1.177   0.474  12.205  0.3342 -0.5910 -0.6180
15801TIP3    H168818   1.169   0.555  12.255 -1.7485 -0.0974 -1.6780
15801TIP3    H268819   1.225   0.499  12.126 -0.6346 -0.2984 -1.1188
15802TIP3   OH268820   0.979   1.236  12.926 -0.5537  0.0212 -0.3668
15802TIP3    H168821   0.892   1.260  12.959 -2.0526 -1.8794 -2.7287
15802TIP3    H268822   1.001   1.156  12.973 -0.1266  0.4142  0.1126
15803TIP3   OH268823   5.440   0.254  16.252 -0.1572  0.0937  0.2927
15803TIP3    H168824   5.520   0.306  16.256 -0.7766  1.0019  1.1035
15803TIP3    H268825   5.370   0.318  16.237 -0.5015 -0.9154 -2.6007
15804TIP3   OH268826   3.903   6.639   3.886  0.2258 -0.4452 -0.1243
15804TIP3    H168827   3.839   6.647   3.815  1.2465 -0.5552 -1.0785
15804TIP3    H268828   3.968   6.577   3.852  0.9195 -0.2132  0.7673
15805TIP3   OH268829   3.687   3.408   2.935  0.1810  0.0494 -0.0213
15805TIP3    H168830   3.691   3.503   2.922 -0.3967 -0.3824 -4.0585
15805TIP3    H268831   3.599   3.384   2.905 -0.2195 -1.6294  2.3660
15806TIP3   OH268832   5.751   6.506  13.213 -0.4718  0.2572 -0.4251
15806TIP3    H168833   5.697   6.509  13.134 -1.8836  1.7416  0.5565
15806TIP3    H268834   5.802   6.587  13.211 -0.0412 -0.0020 -0.1414
15807TIP3   OH268835   2.935   0.067   4.117 -0.0713  0.4174  0.6031
15807TIP3    H168836   2.845   0.046   4.091  0.0024  0.1486  0.5647
15807TIP3    H268837   2.928   0.152   4.160 -0.0920  1.2024 -0.9203
15808TIP3   OH268838   4.549   3.077  12.757 -0.0681  0.0768  0.5572
15808TIP3    H168839   4.617   3.073  12.824 -1.2784 -0.7975  1.7769
15808TIP3    H268840   4.498   2.997  12.769 -0.9002  0.3773 -0.7762
15809TIP3   OH268841   0.922   1.821  14.615 -0.1515  0.2384  0.3683
15809TIP3    H168842   0.883   1.906  14.636  0.2705  0.7648 -0.8976
15809TIP3    H268843   0.895   1.804  14.525  0.7498 -0.4052  0.2100
15810TIP3   OH268844   4.523   1.028   2.479 -0.1716 -0.2060  0.2547
15810TIP3    H168845   4.499   1.082   2.403 -0.5051  0.5718  0.9078
15810TIP3    H268846   4.497   0.940   2.454  4.2227 -0.8481 -2.5652
15811TIP3   OH268847   3.347   4.825  11.630 -0.2227  0.5236  0.1532
15811TIP3    H168848   3.289   4.808  11.555 -0.5218 -0.8373  0.6624
15811TIP3    H268849   3.358   4.739  11.671  0.9067  1.0494  0.9764
15812TIP3   OH268850   1.930   2.169   4.880 -0.5599  0.2806 -0.8791
15812TIP3    H168851   1.908   2.261   4.899 -1.6072  0.5436 -3.2250
15812TIP3    H268852   1.895   2.121   4.955 -1.8557  1.5718 -0.6258
15813TIP3   OH268853   6.442   3.359  12.331  0.0533  0.1217 -0.0624
15813TIP3    H168854   6.521   3.329  12.376 -0.5705  0.4487  1.2841
15813TIP3    H268855   6.473   3.417  12.262  1.1895 -2.2947 -1.6623
15814TIP3   OH268856   1.134   0.755  15.282 -0.5283  0.2920 -0.5287
15814TIP3    H168857   1.067   0.694  15.252  1.1491 -2.1784  0.6459
15814TIP3    H268858   1.088   0.813  15.342 -1.8181 -0.7848 -0.4493
15815TIP3   OH268859   0.262   2.010  12.517  0.4646  0.0453  0.1525
15815TIP3    H168860   0.278   2.096  12.553 -0.4610  1.2708 -2.2352
15815TIP3    H268861   0.349   1.972  12.504  0.8414  0.3337  1.8540
15816TIP3   OH268862   0.626   0.886  14.261 -0.0758 -0.3185  0.8817
15816TIP3    H168863   0.697   0.822  14.250 -0.4084 -0.8717  1.8595
15816TIP3    H268864   0.550   0.844  14.221 -0.1931 -0.3503  1.1398
15817TIP3   OH268865   1.361   1.077  13.690 -0.2954  0.4260 -0.1202
15817TIP3    H168866   1.407   1.129  13.625  0.0603 -0.2635 -0.4220
15817TIP3    H268867   1.269   1.100  13.678 -0.3086 -0.2421 -1.3600
15818TIP3   OH268868   0.035   3.268   5.731  0.1736  0.3536  0.2504
15818TIP3    H168869   0.082   3.299   5.653 -1.8525  1.5980 -0.5190
15818TIP3    H268870   0.077   3.314   5.804  2.6297 -1.4387  0.0222
15819TIP3   OH268871   4.434   1.345  17.058 -0.1401  0.3411  0.2979
15819TIP3    H168872   4.468   1.339  17.148  0.5337  1.0805  0.1018
15819TIP3    H268873   4.465   1.430  17.027 -1.5859  0.7188 -0.1429
15820TIP3   OH268874   2.308   4.009  11.751 -0.3285 -0.0699  0.6330
15820TIP3    H168875   2.401   3.995  11.771  0.1257  0.2048 -1.2176
15820TIP3    H268876   2.296   4.103  11.763 -0.5190 -0.1944  1.4525
15821TIP3   OH268877   4.972   4.039   0.462 -0.2126  0.3798 -0.7291
15821TIP3    H168878   4.965   3.945   0.479  0.3668  0.4835  0.1065
15821TIP3    H268879   5.016   4.075   0.539  0.4643  1.1907 -1.4705
15822TIP3   OH268880   4.622   4.003   0.340 -0.0229  0.0290  0.2101
15822TIP3    H168881   4.527   3.993   0.350 -0.1689  0.6702 -0.5040
15822TIP3    H268882   4.647   4.068   0.405 -0.1985  0.4489 -0.1389
15823TIP3   OH268883   0.890   2.626   5.286  0.1481 -0.4910  0.2759
15823TIP3    H168884   0.975   2.606   5.248 -0.2805 -1.0317 -0.4192
15823TIP3    H268885   0.838   2.660   5.213  0.2779  1.4201  1.0540
15824TIP3   OH268886   3.911   6.021  13.349  0.0962  0.3365  0.1629
15824TIP3    H168887   3.931   5.933  13.319  2.4573  0.8688  0.0873
15824TIP3    H268888   3.941   6.023  13.440 -0.4276  0.9069  0.3260
15825TIP3   OH268889   6.063   3.400   5.331 -0.4961 -0.1107 -0.4411
15825TIP3    H168890   6.024   3.409   5.418  1.3032 -0.9907  0.4767
15825TIP3    H268891   6.069   3.305   5.317 -0.4289  0.0276 -1.3845
15826TIP3   OH268892   3.927   0.824  15.531  0.2209  0.2862 -0.4528
15826TIP3    H168893   3.948   0.770  15.607  0.8952  0.1373 -0.7374
15826TIP3    H268894   3.836   0.850  15.543 -0.1504 -1.0372 -0.3969
15827TIP3   OH268895   0.478   5.044  14.074  0.2031 -0.0119 -0.3752
15827TIP3    H168896   0.511   4.958  14.102 -0.8353 -0.2244  0.2214
15827TIP3    H268897   0.466   5.035  13.980 -0.1211 -0.6057 -0.2830
15828TIP3   OH268898   5.602   1.638  11.698 -0.3544 -0.2025  0.0801
15828TIP3    H168899   5.541   1.705  11.729 -0.3773  0.1005 -0.6148
15828TIP3    H268900   5.663   1.685  11.640 -1.8703 -1.1785 -2.4000
15829TIP3   OH268901   6.481   6.372  14.902  0.3320  0.1892 -0.2494
15829TIP3    H168902   6.522   6.350  14.819  1.4017 -1.7038  0.7671
15829TIP3    H268903   6.530   6.448  14.934  1.6674 -0.7228 -0.0855
15830TIP3   OH268904   3.112   1.293   0.516  0.4059  0.0218  0.2213
15830TIP3    H168905   3.134   1.368   0.461 -0.3894  0.4164  0.4315
15830TIP3    H268906   3.160   1.220   0.477  1.9947  0.8403  0.6331
15831TIP3   OH268907   1.339   2.008   0.939 -0.3452  0.1000  0.0291
15831TIP3    H168908   1.374   2.031   1.025 -1.5918  1.0281  0.3004
15831TIP3    H268909   1.262   2.064   0.928 -0.9384 -0.9113 -1.1510
15832TIP3   OH268910   2.252   2.156  10.904 -0.1459 -0.4617  0.8321
15832TIP3    H168911   2.217   2.067  10.897 -2.1392  0.2157  1.7080
15832TIP3    H268912   2.322   2.149  10.969  0.4820 -1.6070  0.0360
15833TIP3   OH268913   2.132   6.025  14.287 -0.0404  0.2128 -0.6595
15833TIP3    H168914   2.192   6.098  14.301  1.1973 -0.8541 -0.3426
15833TIP3    H268915   2.172   5.974  14.216  1.1847 -2.3151  1.7649
15834TIP3   OH268916   6.306   4.664   1.412 -1.0804 -0.2245 -0.0405
15834TIP3    H168917   6.266   4.660   1.498 -0.0822 -1.4840  0.3827
15834TIP3    H268918   6.388   4.616   1.421 -0.6958  0.1041 -1.5460
15835TIP3   OH268919   6.089   0.187   3.291  0.2319  0.3618 -0.3473
15835TIP3    H168920   6.011   0.179   3.235 -1.1471  0.2021  1.5400
15835TIP3    H268921   6.142   0.111   3.268 -0.1850  0.4387 -1.6323
15836TIP3   OH268922   0.614   6.117  15.396 -0.2017  0.1272 -0.2036
15836TIP3    H168923   0.530   6.111  15.441 -0.0797  1.4299  0.2249
15836TIP3    H268924   0.641   6.208  15.408  0.6950  0.0245 -1.3752
15837TIP3   OH268925   6.655   3.560   2.597 -0.4467 -0.4352 -0.0155
15837TIP3    H168926   6.619   3.507   2.526 -0.7818 -0.5501  0.2402
15837TIP3    H268927   6.735   3.515   2.622 -1.3231 -1.4748  0.9844
15838TIP3   OH268928   3.137   4.178   4.888  0.0449 -0.0002  0.4299
15838TIP3    H168929   3.101   4.158   4.974  0.5020  1.2397  0.9185
15838TIP3    H268930   3.223   4.217   4.906 -0.1473  0.8980 -0.5523
15839TIP3   OH268931   0.859   4.258  13.470  0.5605 -0.2479  0.0337
15839TIP3    H168932   0.775   4.303  13.462  0.7915 -0.0555 -1.4423
15839TIP3    H268933   0.839   4.167  13.450  0.0697 -0.8939  3.1427
15840TIP3   OH268934   5.455   3.312   5.243  0.0987 -0.2024  0.3767
15840TIP3    H168935   5.499   3.377   5.299  0.2052 -0.6407  0.8023
15840TIP3    H268936   5.373   3.293   5.289 -1.2272  1.6965 -1.1447
15841TIP3   OH268937   5.138   6.533  15.108  0.0077 -0.5679  0.2402
15841TIP3    H168938   5.081   6.559  15.181 -0.7889 -1.6364  0.0099
15841TIP3    H268939   5.126   6.601  15.042  1.9101  1.2437  1.6945
15842TIP3   OH268940   2.667   3.723  13.987  0.3872 -0.4290  0.1116
15842TIP3    H168941   2.709   3.639  14.006  2.1138  0.5465  0.7426
15842TIP3    H268942   2.628   3.749  14.070  1.2269  0.1455  0.3274
15843TIP3   OH268943   0.696   5.682  14.335 -0.4019 -0.3092  0.4300
15843TIP3    H168944   0.629   5.640  14.389 -1.3291  0.1251 -0.3808
15843TIP3    H268945   0.758   5.612  14.315 -1.1414 -0.9468  0.3485
15844TIP3   OH268946   4.755   3.206  15.343  0.4792 -0.3374 -0.1401
15844TIP3    H168947   4.703   3.263  15.286  1.7304  0.2800 -0.7047
15844TIP3    H268948   4.756   3.251  15.428 -0.9958 -1.0173  0.2416
15845TIP3   OH268949   0.615   2.788  12.193 -0.5935  0.1573  0.1156
15845TIP3    H168950   0.521   2.777  12.201 -0.5566  0.1423  0.5396
15845TIP3    H268951   0.652   2.715  12.243 -0.3571  0.3067  0.1620
15846TIP3   OH268952   6.048   0.197  16.072 -0.2409  0.0867 -0.5017
15846TIP3    H168953   6.021   0.140  16.001  1.2831  0.4288 -1.3890
15846TIP3    H268954   6.144   0.190  16.073 -0.0515  2.3106 -0.3728
15847TIP3   OH268955   0.010   0.307   1.816 -0.1804 -0.4918  0.4941
15847TIP3    H168956   0.038   0.334   1.728 -1.6226 -0.0064  0.1682
15847TIP3    H268957   0.021   0.386   1.870 -1.5208 -0.1165  0.2212
15848TIP3   OH268958   2.686   0.900  12.833 -0.5668  0.0004 -0.5763
15848TIP3    H168959   2.736   0.974  12.868  0.4475 -0.5716 -0.7961
15848TIP3    H268960   2.748   0.827  12.834 -1.5126 -0.8080 -0.5101
15849TIP3   OH268961   2.545   3.751  16.671  0.0905  0.0473  0.0356
15849TIP3    H168962   2.488   3.819  16.634  1.2648  0.0269 -1.8734
15849TIP3    H268963   2.590   3.714  16.596  2.4370 -0.1388  1.4827
15850TIP3   OH268964   0.160   4.538  16.708 -0.4262 -0.7346  0.2606
15850TIP3    H168965   0.238   4.531  16.654 -0.5375 -1.5199  0.1924
15850TIP3    H268966   0.158   4.629  16.737 -1.0113  0.0269 -2.0437
15851TIP3   OH268967   5.731   1.743  13.969 -0.1496 -0.1349  0.2206
15851TIP3    H168968   5.768   1.655  13.964  0.2648 -0.0807  1.9225
15851TIP3    H268969   5.796   1.794  14.017 -1.0222  0.7416  0.4933
15852TIP3   OH268970   5.297   2.414   3.004 -0.1084 -0.2505  0.5351
15852TIP3    H168971   5.258   2.405   2.917  1.1114 -0.1812 -0.0217
15852TIP3    H268972   5.225   2.393   3.064 -1.0758  0.1119 -0.4718
15853TIP3   OH268973   2.420   3.534  16.900  0.4648  0.1648  0.5652
15853TIP3    H168974   2.426   3.570  16.989 -0.3443  3.5879 -0.6916
15853TIP3    H268975   2.344   3.477  16.902 -0.0846  0.9136  1.8614
15854TIP3   OH268976   4.933   2.639   1.344 -0.2750  0.0645  0.0031
15854TIP3    H168977   4.866   2.572   1.333 -2.7677  2.0645  2.3025
15854TIP3    H268978   4.910   2.706   1.280  0.3606  0.1373 -0.1535
15855TIP3   OH268979   4.606   4.575   6.732  0.2726 -0.2859  0.0733
15855TIP3    H168980   4.694   4.555   6.701  0.7991 -0.4101  1.6058
15855TIP3    H268981   4.567   4.489   6.750 -0.4055 -0.2600 -1.2422
15856TIP3   OH268982   5.026   1.299  15.958 -0.0807  0.1493  0.3345
15856TIP3    H168983   5.042   1.276  16.050 -1.1462  1.4543  0.8622
15856TIP3    H268984   4.958   1.238  15.930 -0.1461  0.1075  0.5761
15857TIP3   OH268985   5.630   1.981  14.733 -0.1005  0.0436  0.6077
15857TIP3    H168986   5.540   2.007  14.751  0.2556  0.9132  1.1896
15857TIP3    H268987   5.622   1.902  14.680 -1.2144  0.5768 -0.0385
15858TIP3   OH268988   4.190   5.671  17.198 -0.1203 -0.0583 -0.0651
15858TIP3    H168989   4.166   5.626  17.279  0.2195  1.7690  1.0787
15858TIP3    H268990   4.285   5.664  17.194 -0.2439 -1.4223 -1.0984
15859TIP3   OH268991   2.340   4.206   0.318 -0.5754  0.3280  0.2881
15859TIP3    H168992   2.295   4.191   0.402 -0.6859  0.1530  0.1972
15859TIP3    H268993   2.279   4.173   0.252 -0.9106  1.3771  0.0646
15860TIP3   OH268994   0.008   5.556  12.441  0.0987  0.2918  0.6187
15860TIP3    H168995  -0.066   5.600  12.484 -0.1704  1.4621 -1.0038
15860TIP3    H268996  -0.034   5.493  12.383  0.4440 -0.5481  1.2665
15861TIP3   OH268997   4.148   5.341   1.759 -0.2802 -0.0017 -0.0889
15861TIP3    H168998   4.097   5.286   1.818 -0.9540 -1.6136 -2.1132
15861TIP3    H268999   4.100   5.339   1.676  0.6064  2.2592 -0.7155
15862TIP3   OH269000   4.309   0.393  15.747  0.6076 -0.0874 -0.1163
15862TIP3    H169001   4.364   0.361  15.676 -0.6135  0.4651 -1.3271
15862TIP3    H269002   4.312   0.489  15.738 -2.4011 -0.0928 -1.6601
15863TIP3   OH269003   4.818   6.009   1.972 -1.0543 -0.1249 -0.3364
15863TIP3    H169004   4.728   5.989   1.947 -1.3162 -0.5874  0.9308
15863TIP3    H269005   4.863   5.924   1.969 -0.3193  0.3101 -2.2772
15864TIP3   OH269006   1.956   0.436  14.501  0.1443  0.0729  0.5860
15864TIP3    H169007   2.011   0.462  14.427  0.9182  0.7275  1.3757
15864TIP3    H269008   1.997   0.478  14.577 -1.0962  0.0662  1.2749
15865TIP3   OH269009   0.756   4.779  12.213  0.1054 -0.1193 -0.3076
15865TIP3    H169010   0.841   4.812  12.242 -0.2778  0.1134  0.5704
15865TIP3    H269011   0.710   4.756  12.294 -2.1278  3.2737 -0.4961
15866TIP3   OH269012   3.722   2.923   1.834  0.4505 -0.0220 -0.0692
15866TIP3    H169013   3.679   2.853   1.784  0.3813  0.0222 -0.0710
15866TIP3    H269014   3.710   3.001   1.781  0.5858 -0.0205 -0.0991
15867TIP3   OH269015   6.403   3.935  14.956 -0.3978 -0.4332 -1.1662
15867TIP3    H169016   6.397   3.870  15.027 -1.0715 -0.7792 -1.5333
15867TIP3    H269017   6.429   3.884  14.879 -1.6289 -0.4018 -1.6205
15868TIP3   OH269018   0.831   2.543  15.068  0.7303  0.6757  0.3392
15868TIP3    H169019   0.899   2.493  15.023  0.3855 -0.5835  1.1835
15868TIP3    H269020   0.752   2.490  15.058 -0.4097  2.6587 -1.5934
15869TIP3   OH269021   0.777   4.838  12.680  0.6683 -0.0104  0.6227
15869TIP3    H169022   0.776   4.774  12.609  2.8892  0.3911  0.1774
15869TIP3    H269023   0.696   4.823  12.728 -1.4046  0.4039 -2.6087
15870TIP3   OH269024   4.137   6.021   5.073 -0.0358  0.5425  0.3139
15870TIP3    H169025   4.170   5.956   5.135  0.4777  0.8386  0.3594
15870TIP3    H269026   4.136   6.103   5.122 -0.1176  0.6803  0.0838
15871TIP3   OH269027   4.354   5.172   1.606 -0.0373 -0.2774 -0.1837
15871TIP3    H169028   4.341   5.080   1.583  0.2114  0.1786 -2.2596
15871TIP3    H269029   4.287   5.190   1.672 -0.4085 -1.8089 -0.1196
15872TIP3   OH269030   1.108   1.914   5.757 -0.6495  0.4440  0.2666
15872TIP3    H169031   1.086   1.890   5.668 -2.0731  0.5333  0.5832
15872TIP3    H269032   1.204   1.916   5.759 -0.5907 -0.9324 -0.8796
15873TIP3   OH269033   1.618   2.778  16.251  0.7921  0.1024 -0.0616
15873TIP3    H169034   1.547   2.738  16.301 -0.1321 -0.0010 -1.4261
15873TIP3    H269035   1.692   2.720  16.263  0.0402 -0.9226 -0.3290
15874TIP3   OH269036   5.631   2.768   5.006  0.0179  0.7368 -0.5061
15874TIP3    H169037   5.538   2.759   5.026  0.3977 -0.4119  0.7916
15874TIP3    H269038   5.644   2.715   4.927 -0.5990  1.6557 -1.2333
15875TIP3   OH269039   1.865   0.474  13.477  0.2845 -0.7412  0.4458
15875TIP3    H169040   1.935   0.436  13.531  1.7622  0.4585 -0.5683
15875TIP3    H269041   1.886   0.567  13.472 -0.6826 -0.5728 -0.9220
15876TIP3   OH269042   3.616   4.951  10.815  0.0220  0.9008  0.1213
15876TIP3    H169043   3.625   4.919  10.905 -1.5573  2.7151  0.9779
15876TIP3    H269044   3.683   5.019  10.807  1.7399 -0.8653 -0.8858
15877TIP3   OH269045   2.378   2.189   0.056 -0.4117 -0.4719 -0.6017
15877TIP3    H169046   2.283   2.178   0.060 -0.3594 -0.8377 -0.3473
15877TIP3    H269047   2.392   2.250  -0.016 -0.7929 -1.0191 -1.1434
15878TIP3   OH269048   5.845   3.186  13.408  0.6789 -0.7623 -0.4178
15878TIP3    H169049   5.779   3.141  13.355 -0.6968  0.8239 -0.0647
15878TIP3    H269050   5.848   3.136  13.490 -0.9281 -0.1573  0.0202
15879TIP3   OH269051   4.345   2.912  14.138  0.1628  0.2642 -0.2385
15879TIP3    H169052   4.371   2.852  14.208  1.2457 -1.0814 -1.7608
15879TIP3    H269053   4.343   2.998  14.180  1.4656 -0.4249  1.2911
15880TIP3   OH269054   3.238   4.843   4.398  0.1750 -0.5223  0.0319
15880TIP3    H169055   3.312   4.804   4.352  2.0163  0.7442  1.8438
15880TIP3    H269056   3.276   4.880   4.478 -2.2358  1.0786  0.4868
15881TIP3   OH269057   0.048   0.719   4.473  0.5721 -0.2540  0.0608
15881TIP3    H169058  -0.029   0.671   4.440  0.9847 -0.8025 -0.0983
15881TIP3    H269059   0.113   0.709   4.404  0.4332  1.1157 -0.2826
15882TIP3   OH269060   0.484   6.640   4.772  0.1490 -0.3340  0.1195
15882TIP3    H169061   0.403   6.621   4.819  0.5328 -1.8737  0.1604
15882TIP3    H269062   0.545   6.667   4.841  0.3805 -1.5142  0.3863
15883TIP3   OH269063   6.048   1.470   2.053  0.3624  0.7757 -0.4437
15883TIP3    H169064   6.020   1.473   1.961  2.2118  0.1868 -1.0491
15883TIP3    H269065   6.089   1.555   2.068  1.6674  0.2127 -0.7174
15884TIP3   OH269066   3.633   5.493  12.497 -0.5519  0.0209  0.2406
15884TIP3    H169067   3.610   5.534  12.580 -1.7508 -1.1431  0.4998
15884TIP3    H269068   3.641   5.400  12.517 -0.6028 -0.2436 -0.8869
15885TIP3   OH269069   1.187   2.093   3.678  0.1204  0.1931 -0.0527
15885TIP3    H169070   1.142   2.070   3.760  0.3127  2.1351  0.6339
15885TIP3    H269071   1.179   2.015   3.623 -1.4233 -0.5641  1.2135
15886TIP3   OH269072   1.537   4.354  11.422  0.4918  0.4893 -0.2268
15886TIP3    H169073   1.445   4.348  11.395  0.3163 -1.1825  0.6792
15886TIP3    H269074   1.537   4.329  11.514  1.5113  3.1534  0.5488
15887TIP3   OH269075   1.503   2.787   0.469  0.1377  0.4072  0.5460
15887TIP3    H169076   1.504   2.692   0.478  0.4355  0.3085 -0.4393
15887TIP3    H269077   1.586   2.808   0.427 -1.0845  0.8156 -1.7914
15888TIP3   OH269078   1.424   1.929  10.884  0.3454  0.2468 -0.5596
15888TIP3    H169079   1.460   1.842  10.866  0.9075 -0.0426  1.7470
15888TIP3    H269080   1.387   1.958  10.800 -1.9339 -3.1753 -0.8570
15889TIP3   OH269081   6.693   3.105   1.256  0.1417  0.3065  0.5667
15889TIP3    H169082   6.763   3.049   1.290 -1.1697 -1.3592  0.5885
15889TIP3    H269083   6.731   3.146   1.178  0.9257 -1.0966  0.1893
15890TIP3   OH269084   0.527   4.742  12.804 -0.4873 -0.1889 -0.8853
15890TIP3    H169085   0.466   4.673  12.828  0.7969 -1.2583 -0.6570
15890TIP3    H269086   0.478   4.823  12.819 -0.3347 -0.8335  3.9044
15891TIP3   OH269087   5.348   5.028   2.816  0.1105  0.3395 -0.3837
15891TIP3    H169088   5.313   5.108   2.856  1.9030  1.0716 -0.2219
15891TIP3    H269089   5.333   5.040   2.722 -1.0638  0.1266 -0.2383
15892TIP3   OH269090   4.146   4.606   4.882 -0.1704 -0.2473 -0.3451
15892TIP3    H169091   4.192   4.663   4.943 -0.0638 -0.3131 -0.3628
15892TIP3    H269092   4.198   4.525   4.881  0.8851  0.4087 -1.9185
15893TIP3   OH269093   1.688   6.022   5.479 -0.6996  0.4155 -0.6606
15893TIP3    H169094   1.742   6.039   5.402 -0.6394  0.7099 -0.5532
15893TIP3    H269095   1.630   5.951   5.452 -0.1703  0.0017 -0.7355
15894TIP3   OH269096   1.708   3.761  11.496 -0.0961 -0.1161 -0.3798
15894TIP3    H169097   1.702   3.808  11.579  2.9569 -2.5612  1.3394
15894TIP3    H269098   1.762   3.818  11.440 -1.3779  1.0954 -0.4239
15895TIP3   OH269099   4.956   0.075  12.813 -0.1465  0.0404  0.4329
15895TIP3    H169100   4.861   0.078  12.825 -0.4433 -3.4089 -0.4013
15895TIP3    H269101   4.968   0.058  12.720  1.2854 -0.1457  0.6400
15896TIP3   OH269102   3.321   2.034   3.535  0.7036 -0.2149  0.2516
15896TIP3    H169103   3.238   2.028   3.487  1.0935  0.3977 -0.5168
15896TIP3    H269104   3.355   2.120   3.512  2.7759 -1.4483 -1.4209
15897TIP3   OH269105   5.634   5.524  15.762 -0.3421 -0.4873 -0.2763
15897TIP3    H169106   5.662   5.604  15.806  2.5254 -0.8758 -1.3059
15897TIP3    H269107   5.610   5.464  15.833  2.1511 -0.3584  0.7151
15898TIP3   OH269108   0.538   0.444   6.346 -0.1340  0.7856 -0.3162
15898TIP3    H169109   0.558   0.512   6.281  0.9869  2.8070  2.0615
15898TIP3    H269110   0.445   0.455   6.364 -0.4580  0.1901 -1.5874
15899TIP3   OH269111   2.193   3.750   5.965  0.1264  0.7034 -0.3347
15899TIP3    H169112   2.256   3.771   6.034  0.0858  1.3904 -0.5058
15899TIP3    H269113   2.242   3.762   5.884 -0.4412  1.9920 -0.4966
15900TIP3   OH269114   6.226   0.287  11.319  0.4346  0.8838 -0.2775
15900TIP3    H169115   6.226   0.206  11.267  1.4294  1.5564 -1.3565
15900TIP3    H269116   6.143   0.329  11.296 -0.0092  0.2570  0.1571
15901TIP3   OH269117   5.779   5.044  14.207 -0.3192  0.0078 -0.2865
15901TIP3    H169118   5.865   5.083  14.192 -0.4848  0.0698 -1.0813
15901TIP3    H269119   5.776   5.029  14.302  0.4104  0.3650 -0.2017
15902TIP3   OH269120   6.344   1.052   2.612 -0.5875 -0.4715 -0.4919
15902TIP3    H169121   6.432   1.070   2.646 -0.7528  0.0582 -0.3418
15902TIP3    H269122   6.343   0.957   2.596 -0.4928 -0.7316  0.9496
15903TIP3   OH269123   4.969   0.926   2.020  0.4438  0.3347  0.2875
15903TIP3    H169124   4.924   0.874   1.953 -1.1465 -0.2344  1.7574
15903TIP3    H269125   5.001   0.861   2.083 -1.0703  1.0813  1.8580
15904TIP3   OH269126   5.070   1.299  16.260 -0.2233 -0.1215 -0.1628
15904TIP3    H169127   5.154   1.311  16.217  0.3559 -1.1485  0.6575
15904TIP3    H269128   5.052   1.383  16.302  1.3010 -0.4727  1.2337
15905TIP3   OH269129   0.752   1.306  16.730  0.4523  0.1037 -0.0821
15905TIP3    H169130   0.697   1.383  16.739 -1.2152 -0.5895 -3.5519
15905TIP3    H269131   0.840   1.341  16.717 -0.1415  1.4029 -0.6594
15906TIP3   OH269132   4.094   2.399   4.962 -0.2545  0.2791 -0.8157
15906TIP3    H169133   4.093   2.432   5.052 -0.6328 -3.1707  0.5366
15906TIP3    H269134   4.039   2.460   4.913 -1.3421  1.3345  1.6381
15907TIP3   OH269135   1.429   3.474   0.177  0.6436  0.0668  0.2494
15907TIP3    H169136   1.419   3.566   0.199  1.7100  0.0214  0.9435
15907TIP3    H269137   1.378   3.427   0.243  1.0763  0.0957  0.6003
15908TIP3   OH269138   3.297   0.497  16.104 -0.0118 -0.0004  0.3062
15908TIP3    H169139   3.358   0.484  16.032  1.7069 -1.1407  1.9088
15908TIP3    H269140   3.301   0.591  16.122 -1.7137  0.5741 -2.1115
15909TIP3   OH269141   1.008   3.088   3.846  0.3447 -0.2426  0.6250
15909TIP3    H169142   0.954   3.098   3.767  3.8588  0.4231 -1.7912
15909TIP3    H269143   0.992   3.167   3.897  0.7979  1.0553 -1.2039
15910TIP3   OH269144   2.489   4.626  16.070  0.1020 -0.1179 -0.5316
15910TIP3    H169145   2.547   4.553  16.047  0.0777 -0.3756  0.1914
15910TIP3    H269146   2.415   4.585  16.115 -1.0203  0.1437 -2.1037
15911TIP3   OH269147   5.868   3.648   4.293  0.6729  0.0759  0.3596
15911TIP3    H169148   5.815   3.628   4.370 -0.1424  1.3178  0.1380
15911TIP3    H269149   5.825   3.723   4.253  1.8143  0.2357 -0.6064
15912TIP3   OH269150   4.005   2.808   2.242  0.2202 -0.4019  0.4612
15912TIP3    H169151   4.002   2.718   2.273 -0.3801 -0.7451 -0.5817
15912TIP3    H269152   3.943   2.811   2.170 -0.3739  1.0560  1.0205
15913TIP3   OH269153   2.002   1.042   0.934 -0.0696  0.3173  0.6121
15913TIP3    H169154   2.092   1.061   0.908 -0.5260 -0.1682 -1.3539
15913TIP3    H269155   2.009   1.021   1.027  1.7027  1.2561  0.7231
15914TIP3   OH269156   2.915   2.095   5.930  0.0894  0.0702  0.1893
15914TIP3    H169157   2.996   2.142   5.952 -0.2018  1.9644 -2.5544
15914TIP3    H269158   2.940   2.035   5.860 -0.5414 -0.5279  0.4716
15915TIP3   OH269159   6.328   1.108   4.503 -0.3468  0.0639  0.3852
15915TIP3    H169160   6.403   1.049   4.496 -0.0428  0.3113  1.4101
15915TIP3    H269161   6.359   1.190   4.463 -0.3503 -0.0886  0.0683
15916TIP3   OH269162   5.509   1.113  13.004  0.0157  0.0829 -0.3686
15916TIP3    H169163   5.586   1.069  13.040 -1.6200 -2.4715  0.1789
15916TIP3    H269164   5.435   1.068  13.046 -1.8262  0.2906 -3.2998
15917TIP3   OH269165   4.434   4.124   1.718  0.2611 -0.5168 -0.0310
15917TIP3    H169166   4.497   4.121   1.646  0.0072 -0.5449 -0.2515
15917TIP3    H269167   4.453   4.206   1.763  0.0181 -0.2114 -0.4906
15918TIP3   OH269168   0.903   2.408  16.103 -0.1452  0.1540 -0.2955
15918TIP3    H169169   0.814   2.443  16.111  0.5986  2.7028 -2.3543
15918TIP3    H269170   0.951   2.446  16.177 -0.5571 -0.5589  0.3414
15919TIP3   OH269171   3.241   5.296   2.556  0.0604 -0.5490 -0.0840
15919TIP3    H169172   3.178   5.228   2.580  0.0799  0.2655  2.4604
15919TIP3    H269173   3.254   5.347   2.636  1.8817  0.9862 -1.2800
15920TIP3   OH269174   6.249   0.575   0.836  0.0141  0.1615 -0.2858
15920TIP3    H169175   6.280   0.486   0.824 -1.0880 -0.0219 -1.9609
15920TIP3    H269176   6.308   0.613   0.902  1.4094 -1.3205 -0.6586
15921TIP3   OH269177   4.717   0.192  11.154 -0.4856  0.3486 -0.7227
15921TIP3    H169178   4.812   0.188  11.164 -0.5752  0.9995  0.4901
15921TIP3    H269179   4.704   0.228  11.066  0.3762 -0.6399 -1.2633
15922TIP3   OH269180   2.906   5.574  13.900 -0.1824 -0.2235 -0.1963
15922TIP3    H169181   2.862   5.556  13.983  0.0637 -0.5897 -0.1392
15922TIP3    H269182   2.986   5.621  13.925  0.1140 -0.7291 -0.1856
15923TIP3   OH269183   0.703   3.423   4.721  0.1774  0.1864 -0.1163
15923TIP3    H169184   0.622   3.446   4.766  0.7961  1.5160  0.3564
15923TIP3    H269185   0.735   3.506   4.686  2.1112 -0.0524  1.0145
15924TIP3   OH269186   6.046   6.607  15.375 -0.0733  0.4222 -0.2426
15924TIP3    H169187   6.117   6.603  15.310 -0.7435  0.6491 -1.0047
15924TIP3    H269188   6.058   6.691  15.418 -0.2861  0.7648 -0.8456
15925TIP3   OH269189   5.508   2.592   1.341  0.1411  0.2351 -0.7530
15925TIP3    H169190   5.479   2.682   1.325  0.4371  0.0865 -2.2362
15925TIP3    H269191   5.584   2.600   1.397  0.9003  0.9960 -1.8698
15926TIP3   OH269192   0.473   4.270   4.204  0.0779  0.2118  0.3424
15926TIP3    H169193   0.451   4.305   4.290 -0.1995 -1.8041  1.1213
15926TIP3    H269194   0.477   4.175   4.217  3.8592  0.1027 -0.9672
15927TIP3   OH269195   4.450   4.054   5.261  0.4904 -0.3861  0.3565
15927TIP3    H169196   4.544   4.067   5.244  0.6461 -1.5412  0.2778
15927TIP3    H269197   4.439   3.959   5.262 -0.9909 -0.2436 -1.2559
15928TIP3   OH269198   1.297   4.131   4.041  0.1987  0.2763 -0.2587
15928TIP3    H169199   1.325   4.051   3.996  1.3658  0.1523  0.6852
15928TIP3    H269200   1.248   4.180   3.974  0.5630 -0.6399 -1.2049
15929TIP3   OH269201   5.361   5.765   2.648 -0.0981 -0.1602  0.0147
15929TIP3    H169202   5.266   5.755   2.655 -0.3535  0.3573 -2.3863
15929TIP3    H269203   5.396   5.677   2.661 -0.9688 -0.5336 -0.2244
15930TIP3   OH269204   2.184   1.458  13.382 -0.6703 -0.3971  0.0682
15930TIP3    H169205   2.093   1.481  13.363 -0.4887 -0.6813 -1.1949
15930TIP3    H269206   2.216   1.417  13.302 -0.1062 -2.4246  1.2988
15931TIP3   OH269207   0.004   4.885  15.762  0.5608  0.3155  0.4212
15931TIP3    H169208  -0.025   4.931  15.840  0.7619 -0.6508  1.0821
15931TIP3    H269209  -0.006   4.792  15.784 -0.6068  0.0437 -1.1730
15932TIP3   OH269210   3.682   1.847   3.944 -0.7723 -0.1425 -0.0779
15932TIP3    H169211   3.652   1.933   3.971  0.3911  0.8841 -1.9491
15932TIP3    H269212   3.667   1.791   4.020 -1.6914  1.6622  1.0959
15933TIP3   OH269213   0.484   2.077  14.329 -0.3532 -0.2542  0.8512
15933TIP3    H169214   0.439   2.132  14.394 -1.3800 -1.4249  1.1561
15933TIP3    H269215   0.572   2.065  14.365 -0.9141 -0.8837  2.0358
15934TIP3   OH269216   4.971   5.826   3.402 -0.0037  0.4307 -0.4088
15934TIP3    H169217   5.057   5.867   3.415  0.6456 -0.8435 -0.5530
15934TIP3    H269218   4.991   5.747   3.352 -0.9961 -1.0803  1.5527
15935TIP3   OH269219   4.743   1.923   0.470 -0.4285 -0.3120  0.2073
15935TIP3    H169220   4.796   1.948   0.545  1.8825 -0.7475 -1.2375
15935TIP3    H269221   4.683   1.997   0.458 -0.2783  0.1145  1.9461
15936TIP3   OH269222   4.463   3.575   0.901  0.4030  0.1300  0.1620
15936TIP3    H169223   4.415   3.535   0.973 -0.7799  1.5869  0.2174
15936TIP3    H269224   4.398   3.630   0.857  1.7244  1.1906 -0.5039
15937TIP3   OH269225   2.610   0.944   5.974 -0.2169  0.5843  0.0698
15937TIP3    H169226   2.626   0.978   6.061 -0.9024  1.2927 -0.0739
15937TIP3    H269227   2.696   0.936   5.934  0.1575 -0.4268  1.0609
15938TIP3   OH269228   0.059   0.089  10.597  0.7010 -0.4318 -0.2126
15938TIP3    H169229   0.079   0.125  10.510  1.1352  1.3231  0.6016
15938TIP3    H269230   0.058  -0.006  10.583  0.0623 -0.1618 -2.2848
15939TIP3   OH269231   1.354   3.369   2.389 -0.2364  0.0798 -0.0467
15939TIP3    H169232   1.319   3.453   2.417 -1.2569  0.4101 -2.2118
15939TIP3    H269233   1.279   3.323   2.351  0.8984 -0.6443 -1.4789
15940TIP3   OH269234   5.480   0.828   3.713 -0.3869 -0.5118  0.3803
15940TIP3    H169235   5.396   0.859   3.745 -0.7099 -1.2869  0.2883
15940TIP3    H269236   5.529   0.803   3.792 -0.1813  0.0903  0.4439
15941TIP3   OH269237   1.784   1.895   1.506  0.4357  0.5075  0.1941
15941TIP3    H169238   1.874   1.881   1.478  1.0475  4.0965  0.1108
15941TIP3    H269239   1.791   1.930   1.594 -0.8424  0.9598  0.1363
15942TIP3   OH269240   5.123   0.081   3.749  0.0296 -0.3729 -0.4153
15942TIP3    H169241   5.160  -0.002   3.776  0.8122  0.0426 -0.2076
15942TIP3    H269242   5.034   0.059   3.719 -0.9405 -0.8297  2.6270
15943TIP3   OH269243   0.843   3.347   2.433  0.3200  0.0028 -0.6931
15943TIP3    H169244   0.880   3.260   2.417 -2.8512 -1.4551 -0.6023
15943TIP3    H269245   0.841   3.388   2.347 -1.8431 -1.6414 -1.5026
15944TIP3   OH269246   0.427   4.868  11.221 -0.0048 -0.2864  0.4592
15944TIP3    H169247   0.379   4.805  11.274  0.2341 -1.6082 -0.8623
15944TIP3    H269248   0.517   4.835  11.219 -0.3045 -1.0711 -1.9297
15945TIP3   OH269249   1.411   4.921  15.980 -0.1481 -0.2501 -0.1252
15945TIP3    H169250   1.469   4.848  15.956 -1.1880 -1.6375  1.4532
15945TIP3    H269251   1.372   4.950  15.898  1.1090 -0.7565 -0.9081
15946TIP3   OH269252   0.115   6.307   1.203 -0.1637  0.5040  0.3537
15946TIP3    H169253   0.183   6.253   1.245 -1.3521 -1.1294  0.2405
15946TIP3    H269254   0.033   6.271   1.237 -1.1185 -0.3170 -2.7100
15947TIP3   OH269255   2.683   1.583   1.088  0.7880 -0.0527 -0.4534
15947TIP3    H169256   2.733   1.527   1.148  1.0114  0.3449 -0.2630
15947TIP3    H269257   2.689   1.670   1.127  0.5750  0.1306 -0.8315
15948TIP3   OH269258   2.474   0.906   1.624 -0.3866  0.3489 -0.4613
15948TIP3    H169259   2.449   0.833   1.680 -0.4712  1.1479  0.5531
15948TIP3    H269260   2.539   0.955   1.675  0.7360  0.1961 -1.6981
15949TIP3   OH269261   1.123   5.318   5.258  0.0811  0.5007 -0.0626
15949TIP3    H169262   1.052   5.255   5.259  2.1666 -1.9151 -0.2824
15949TIP3    H269263   1.122   5.357   5.346  0.4113 -1.7249  0.9438
15950TIP3   OH269264   0.594   6.197   1.552  0.1850  0.0816  0.0273
15950TIP3    H169265   0.499   6.186   1.564  0.1465  0.5435  0.1345
15950TIP3    H269266   0.620   6.119   1.503  0.4566 -2.2033  3.6646
15951TIP3   OH269267   4.557   2.315   6.408  0.3908  0.3414  0.0227
15951TIP3    H169268   4.634   2.303   6.353 -0.2444 -0.9192 -0.5860
15951TIP3    H269269   4.514   2.394   6.373  1.5486  1.2310  0.5619
15952TIP3   OH269270   1.062   2.047  10.598  0.0059 -0.4628  0.5206
15952TIP3    H169271   1.031   2.075  10.511 -3.1669 -2.5717  0.9002
15952TIP3    H269272   1.010   2.097  10.660 -0.7395 -2.0189  1.1882
15953TIP3   OH269273   2.500   3.982   2.319  0.4329  0.3223 -0.4911
15953TIP3    H169274   2.476   3.907   2.264 -0.9987  0.9417 -0.7187
15953TIP3    H269275   2.547   3.942   2.393  0.2218 -0.7390 -0.9144
15954TIP3   OH269276   6.621   6.213  12.163  0.1273  0.6647 -0.0689
15954TIP3    H169277   6.713   6.234  12.178  0.0889  0.1090  1.0367
15954TIP3    H269278   6.602   6.143  12.227 -0.6629 -0.2425 -1.2729
15955TIP3   OH269279   4.017   0.309  16.790 -0.1463 -0.3485 -0.2234
15955TIP3    H169280   4.013   0.403  16.771 -0.3662 -0.2630  0.2417
15955TIP3    H269281   4.021   0.304  16.886  1.4218 -0.7611 -0.3110
15956TIP3   OH269282   4.017   4.879  17.140 -0.8514 -0.1769  0.0433
15956TIP3    H169283   3.936   4.905  17.184 -1.4825  2.3174 -2.4752
15956TIP3    H269284   4.087   4.908  17.199 -1.7152  0.6607  0.6697
15957TIP3   OH269285   3.737   1.811   5.345  0.1066  0.2883  0.2540
15957TIP3    H169286   3.765   1.802   5.436 -0.2312 -0.0805  0.3203
15957TIP3    H269287   3.707   1.902   5.338  2.4203  1.0690 -0.1195
15958TIP3   OH269288   4.816   4.352  17.025  0.4572  0.8600  0.0593
15958TIP3    H169289   4.792   4.397  16.944  1.6141  3.0525  0.9106
15958TIP3    H269290   4.759   4.274  17.026 -2.7687  3.0802 -0.6756
15959TIP3   OH269291   1.789   5.328  16.734 -0.5245 -0.1947  0.4143
15959TIP3    H169292   1.805   5.369  16.649  0.2764 -2.7316 -0.7043
15959TIP3    H269293   1.846   5.251  16.735  0.5472  0.5289  3.8248
15960TIP3   OH269294   2.865   6.167  15.143 -0.0136  0.1953  0.0968
15960TIP3    H169295   2.778   6.132  15.163 -0.3866  0.3785 -1.1791
15960TIP3    H269296   2.848   6.254  15.107  0.7600  0.6302  0.7766
15961TIP3   OH269297   2.166   6.441   5.360 -0.8152  0.2589 -0.2852
15961TIP3    H169298   2.122   6.403   5.284 -0.2986  1.1573 -1.0477
15961TIP3    H269299   2.134   6.531   5.363 -1.4692 -0.0104  1.0633
15962TIP3   OH269300   3.388   5.092  12.632  0.3590  0.2554  0.0926
15962TIP3    H169301   3.355   5.106  12.721 -2.2937  0.8347 -0.9375
15962TIP3    H269302   3.388   4.997  12.622 -0.4939  0.2253  0.3077
15963TIP3   OH269303   1.331   2.284   4.269  1.1518  0.6317  0.1020
15963TIP3    H169304   1.332   2.258   4.361 -0.2823 -0.5623 -0.1923
15963TIP3    H269305   1.366   2.209   4.222  1.9554  1.2703 -0.3204
15964TIP3   OH269306   1.004   2.895  14.052  0.2421  0.2381  0.3867
15964TIP3    H169307   0.921   2.852  14.070  0.4332 -0.3631 -0.1471
15964TIP3    H269308   0.984   2.960  13.985  0.5176 -1.1236 -1.0723
15965TIP3   OH269309   4.529   0.337  14.451 -0.2449  0.3476 -0.3408
15965TIP3    H169310   4.484   0.328  14.535  1.0518 -0.5948  0.2770
15965TIP3    H269311   4.557   0.248  14.428 -0.3242  0.6412 -1.6235
15966TIP3   OH269312   0.464   1.516  17.049  0.2356  0.4040  0.4893
15966TIP3    H169313   0.427   1.504  17.137  0.5372 -1.6746  0.3667
15966TIP3    H269314   0.392   1.555  16.998 -0.8445 -0.8406  1.0131
15967TIP3   OH269315   5.668   6.628   6.058 -0.4640  0.0910  0.9776
15967TIP3    H169316   5.730   6.650   5.988  1.6347 -1.9037  2.1464
15967TIP3    H269317   5.624   6.710   6.078 -1.2443  0.6753 -2.7901
15968TIP3   OH269318   4.678   3.451   5.075  0.1101  0.1686 -0.1451
15968TIP3    H169319   4.611   3.385   5.092  0.8860  0.4567  4.7128
15968TIP3    H269320   4.630   3.524   5.036 -1.9700 -0.5615  0.9588
15969TIP3   OH269321   1.103   1.782  15.842  0.0636 -0.2950 -0.5852
15969TIP3    H169322   1.160   1.718  15.799  1.2695 -0.8590  1.7882
15969TIP3    H269323   1.029   1.791  15.783  1.2089 -1.7763 -2.3124
15970TIP3   OH269324   6.414   1.822   3.103 -0.1657 -0.2105 -0.2572
15970TIP3    H169325   6.399   1.749   3.163 -0.8819  1.2959  1.4200
15970TIP3    H269326   6.498   1.800   3.061  0.4816 -1.1791  1.4568
15971TIP3   OH269327   2.273   1.867   0.424  0.2570  0.1118 -0.1930
15971TIP3    H169328   2.343   1.802   0.428 -0.6056 -0.9471 -1.8226
15971TIP3    H269329   2.235   1.857   0.337 -1.0125  1.6385  0.1516
15972TIP3   OH269330   3.929   0.101  16.191  0.0468 -0.2172  0.3938
15972TIP3    H169331   3.936   0.186  16.147 -0.0097 -0.9743 -1.0966
15972TIP3    H269332   3.836   0.090  16.208  0.0542  0.0212  0.5912
15973TIP3   OH269333   4.106   2.264  14.306  0.6019 -0.2179  0.4829
15973TIP3    H169334   4.104   2.334  14.371  0.6309  0.4053 -0.1925
15973TIP3    H269335   4.168   2.200  14.343  0.4666  0.0345  1.1629
15974TIP3   OH269336   6.730   1.568   4.449  0.0645  0.4003 -0.7845
15974TIP3    H169337   6.660   1.617   4.406  0.6939 -0.0849 -2.4022
15974TIP3    H269338   6.768   1.630   4.512 -2.0645  0.5277  0.4144
15975TIP3   OH269339   1.996   6.445   0.947 -0.0410 -0.2942 -0.1500
15975TIP3    H169340   2.043   6.527   0.967 -1.7853  1.1398 -1.7463
15975TIP3    H269341   2.065   6.383   0.925  1.3291  0.7306  1.0895
15976TIP3   OH269342   2.071   0.130  11.773 -0.1883  0.1977  0.1805
15976TIP3    H169343   2.114   0.138  11.858  0.1355 -1.6979  0.2134
15976TIP3    H269344   2.121   0.187  11.715  1.4456 -0.8327  0.5643
15977TIP3   OH269345   2.229   4.359  15.240 -0.4782 -0.1883  0.3392
15977TIP3    H169346   2.256   4.444  15.275 -0.7208 -0.3481  0.9164
15977TIP3    H269347   2.263   4.358  15.150 -0.3922  0.4776  0.3617
15978TIP3   OH269348   5.419   1.156   4.482 -0.0955  0.3445  0.3638
15978TIP3    H169349   5.492   1.104   4.517 -0.1699  0.1171  0.1850
15978TIP3    H269350   5.345   1.134   4.539  0.6827  2.8936  2.4678
15979TIP3   OH269351   6.027   4.852  12.975 -0.4775 -0.3928 -0.1172
15979TIP3    H169352   5.932   4.836  12.969 -0.7155  0.4992  1.0023
15979TIP3    H269353   6.053   4.809  13.056  0.1836 -1.0812 -0.6898
15980TIP3   OH269354   6.686   0.814   0.540  0.2187  0.0095  0.2514
15980TIP3    H169355   6.660   0.794   0.629  1.1365 -2.4213  0.0093
15980TIP3    H269356   6.770   0.860   0.549  0.5262 -0.6197  0.6270
15981TIP3   OH269357   2.652   5.965  11.777  0.2998  0.0489  0.6764
15981TIP3    H169358   2.568   6.009  11.767  1.6923  2.6676 -0.1492
15981TIP3    H269359   2.696   5.979  11.693  1.7987 -0.7102  1.3142
15982TIP3   OH269360   4.044   4.863   5.107  0.7122 -0.0976 -0.2848
15982TIP3    H169361   4.051   4.882   5.200 -1.2404 -1.3393  0.1550
15982TIP3    H269362   4.096   4.783   5.095 -1.2602 -1.5066  0.3034
15983TIP3   OH269363   1.598   0.753  15.041  0.0196  0.2817 -0.0153
15983TIP3    H169364   1.581   0.847  15.043  1.3573  0.5213  0.8247
15983TIP3    H269365   1.548   0.719  15.115 -1.5873  0.1112 -1.1474
15984TIP3   OH269366   5.593   4.087   4.678 -0.4221 -0.6766  0.0172
15984TIP3    H169367   5.618   4.102   4.586 -1.1690 -3.0421 -0.6184
15984TIP3    H269368   5.635   4.004   4.700 -3.1730 -1.9362  0.6657
15985TIP3   OH269369   3.057   2.573  13.030 -0.4277  0.7015 -0.1296
15985TIP3    H169370   3.050   2.625  12.950  0.2470  1.5526  0.3594
15985TIP3    H269371   3.135   2.607  13.074 -0.5524 -0.0536  0.6836
15986TIP3   OH269372   2.686   6.476  11.570 -1.1940 -0.5055  0.0113
15986TIP3    H169373   2.719   6.405  11.515  1.7786  0.9517 -0.2132
15986TIP3    H269374   2.624   6.523  11.515  2.3457  1.4273 -2.5026
15987TIP3   OH269375   2.149   1.265  12.178 -0.3626  0.2680 -0.1517
15987TIP3    H169376   2.165   1.207  12.252 -0.5054 -1.2831 -1.3179
15987TIP3    H269377   2.173   1.352  12.210  2.2306 -0.7716  0.8650
15988TIP3   OH269378   3.425   2.841  13.876  0.1988 -0.5618 -0.2558
15988TIP3    H169379   3.471   2.832  13.793 -0.1238 -2.3696 -0.2575
15988TIP3    H269380   3.337   2.807  13.860 -0.4113  0.6678  0.3800
15989TIP3   OH269381   6.438   4.238   2.918  0.6324 -0.0621  0.4149
15989TIP3    H169382   6.470   4.148   2.906 -0.0809 -0.2137 -0.4292
15989TIP3    H269383   6.377   4.232   2.992  1.9158  0.0756  1.5042
15990TIP3   OH269384   2.726   3.863   0.912 -0.4026  0.0224  0.0933
15990TIP3    H169385   2.740   3.817   0.994  3.2826  0.4312 -0.2291
15990TIP3    H269386   2.747   3.798   0.844  0.0478  0.7168 -0.4418
15991TIP3   OH269387   1.949   5.369   6.750 -0.3061  0.3269  0.8638
15991TIP3    H169388   1.992   5.283   6.749  0.6207  0.7887 -0.8199
15991TIP3    H269389   1.862   5.354   6.715 -0.2023  0.0305  0.7351
15992TIP3   OH269390   4.109   5.386  11.243 -0.3013  0.3400 -0.1504
15992TIP3    H169391   4.019   5.418  11.248 -0.1562  0.4760  2.2055
15992TIP3    H269392   4.115   5.319  11.311  1.2713  0.0692 -0.5219
15993TIP3   OH269393   3.762   0.784  16.371 -0.1571 -0.0935 -0.0702
15993TIP3    H169394   3.807   0.761  16.290  1.5861  0.3179  0.7573
15993TIP3    H269395   3.669   0.783  16.348  0.3184  0.2845 -2.1377
15994TIP3   OH269396   1.465   3.571   1.459 -0.7880  0.4055 -0.5892
15994TIP3    H169397   1.532   3.625   1.419  0.4589 -0.4282  0.3246
15994TIP3    H269398   1.430   3.625   1.530  2.4296 -0.9194  2.1732
15995TIP3   OH269399   2.080   5.580  15.606  0.8154  0.2950 -0.1216
15995TIP3    H169400   2.141   5.654  15.597 -0.6803  1.1849 -3.8533
15995TIP3    H269401   2.119   5.511  15.552  0.6812 -0.6641  0.9807
15996TIP3   OH269402   2.513   4.338   1.077  0.5147  0.3009 -0.9015
15996TIP3    H169403   2.428   4.299   1.097  0.8551  0.3793  0.7479
15996TIP3    H269404   2.568   4.263   1.053  1.3674 -0.3853  2.9590
15997TIP3   OH269405   5.697   1.623  16.886  0.2369 -0.7248 -0.1997
15997TIP3    H169406   5.734   1.538  16.862 -0.4852 -1.2229  0.4330
15997TIP3    H269407   5.747   1.687  16.835 -1.6116 -1.7846 -3.4468
15998TIP3   OH269408   3.733   0.345   5.725 -0.1651 -0.0838 -0.2764
15998TIP3    H169409   3.804   0.300   5.680  0.2192  0.6000 -0.3611
15998TIP3    H269410   3.695   0.279   5.783 -0.1285 -0.7368 -0.9883
15999TIP3   OH269411   4.559   4.258   2.140 -0.3574 -0.2177  0.0934
15999TIP3    H169412   4.490   4.275   2.204  0.7160 -0.5600  1.3713
15999TIP3    H269413   4.626   4.210   2.189  1.4709  1.4402 -0.7198
16000TIP3   OH269414   2.172   4.286  11.704  0.3396  0.1649  0.6996
16000TIP3    H169415   2.092   4.250  11.742  0.1904  1.1339  1.3221
16000TIP3    H269416   2.197   4.223  11.636 -1.1186  0.0113  0.2905
16001TIP3   OH269417   4.762   0.218   5.947 -0.0320  0.1415  0.5195
16001TIP3    H169418   4.781   0.248   6.036 -0.4058 -0.3959  0.7840
16001TIP3    H269419   4.667   0.208   5.945 -0.1925  1.7901 -0.4703
16002TIP3   OH269420   6.048   1.504   3.957 -0.1620 -0.2546  0.2204
16002TIP3    H169421   6.000   1.560   3.896 -1.3538  0.7829  2.0804
16002TIP3    H269422   6.140   1.527   3.944 -0.4586  0.3898 -0.7538
16003TIP3   OH269423   1.763   3.234   4.304 -0.1794 -0.3160 -0.6507
16003TIP3    H169424   1.779   3.326   4.322 -1.4106  0.2744 -2.5008
16003TIP3    H269425   1.720   3.201   4.384 -1.0135  1.0350 -0.5397
16004TIP3   OH269426   5.738   6.037   6.482  0.0386  0.3849 -0.1053
16004TIP3    H169427   5.707   6.117   6.526 -2.1155  0.1897 -1.1894
16004TIP3    H269428   5.787   6.069   6.407  1.6696  0.6878  1.0456
16005TIP3   OH269429   4.913   4.594   4.382  0.4308 -0.6185  0.0569
16005TIP3    H169430   4.870   4.625   4.302  0.8507 -0.7884 -0.2355
16005TIP3    H269431   4.854   4.526   4.415  0.7630 -1.2512 -0.6568
16006TIP3   OH269432   6.531   3.677  13.536  0.5748 -0.4057 -0.2470
16006TIP3    H169433   6.574   3.714  13.612  2.4178 -1.8765 -0.5356
16006TIP3    H269434   6.546   3.741  13.466 -0.4075  0.5523  0.4193
16007TIP3   OH269435   3.852   0.588   3.351  0.1053  0.8489  0.0845
16007TIP3    H169436   3.882   0.510   3.397 -0.5081 -1.0035 -2.5612
16007TIP3    H269437   3.774   0.616   3.400 -1.5913 -2.1272 -0.8184
16008TIP3   OH269438   6.260   4.467   0.372 -0.1554 -0.2862  0.5353
16008TIP3    H169439   6.294   4.380   0.393  1.7998  0.0384 -1.1372
16008TIP3    H269440   6.283   4.521   0.447 -0.0678 -0.8837  0.9385
16009TIP3   OH269441   3.943   6.372   1.370  0.0448 -0.0198  0.4137
16009TIP3    H169442   3.896   6.291   1.354  1.1186 -0.4507 -0.6937
16009TIP3    H269443   4.035   6.346   1.375  0.2539  0.9124  1.6621
16010TIP3   OH269444   3.727   1.378   4.146  0.3190  0.1560  0.2421
16010TIP3    H169445   3.719   1.432   4.225 -1.7436  0.6807 -0.3026
16010TIP3    H269446   3.799   1.419   4.098  0.4293  0.9081  1.0174
16011TIP3   OH269447   4.622   6.588   5.341  0.2643 -0.3290 -0.3169
16011TIP3    H169448   4.547   6.629   5.297  1.4649  0.5644 -1.6135
16011TIP3    H269449   4.691   6.654   5.335  0.4963 -0.2413  2.8827
16012TIP3   OH269450   3.344   0.870  10.822  0.8373 -0.5116 -0.4169
16012TIP3    H169451   3.294   0.915  10.889  0.9812 -1.2492  0.1891
16012TIP3    H269452   3.435   0.874  10.852  1.0042 -0.1942 -0.9388
16013TIP3   OH269453   6.488   6.088  13.284  0.7011  0.0842  0.2669
16013TIP3    H169454   6.575   6.082  13.324  0.7386 -0.6508  0.0840
16013TIP3    H269455   6.483   6.177  13.251  1.1476  0.3225  0.8258
16014TIP3   OH269456   1.218   5.306   0.525 -0.2350 -0.3758 -0.3856
16014TIP3    H169457   1.250   5.361   0.453 -2.3601  0.6048 -0.6098
16014TIP3    H269458   1.231   5.216   0.493  0.6048  0.0254 -1.2096
16015TIP3   OH269459   0.744   4.150  16.575 -0.2746 -0.4490 -0.0263
16015TIP3    H169460   0.810   4.216  16.597  1.2182 -1.1410 -2.2489
16015TIP3    H269461   0.703   4.128  16.658  2.3718 -0.0631  1.4326
16016TIP3   OH269462   6.435   6.455   5.310 -0.1642  0.5403  1.1384
16016TIP3    H169463   6.364   6.500   5.265  0.2678 -2.7647 -3.1350
16016TIP3    H269464   6.512   6.508   5.292 -0.1001 -0.4420 -1.7248
16017TIP3   OH269465   6.779   6.261  14.170 -0.4468 -0.7004 -0.3473
16017TIP3    H169466   6.865   6.230  14.142  0.6991 -0.1406  2.4175
16017TIP3    H269467   6.724   6.183  14.167  0.8129 -1.6296  0.4183
16018TIP3   OH269468   1.365   1.259  12.529  0.4103 -0.0302  0.2096
16018TIP3    H169469   1.428   1.319  12.568  0.9693 -1.3232  1.3103
16018TIP3    H269470   1.320   1.219  12.604 -0.7008 -0.2072 -0.5347
16019TIP3   OH269471   2.914   0.998   4.344  0.3861 -0.5181  0.0750
16019TIP3    H169472   2.851   1.024   4.411  0.7915  0.0894  0.2148
16019TIP3    H269473   3.000   1.006   4.386  0.8307  2.1471 -1.2244
16020TIP3   OH269474   0.039   4.224   4.377  0.2700  0.4851  0.4182
16020TIP3    H169475   0.087   4.145   4.353  0.9432  0.5047  1.6616
16020TIP3    H269476  -0.032   4.193   4.434  0.1415  0.7113  0.3848
16021TIP3   OH269477   1.050   0.335   2.985 -0.0641  0.5087 -0.1411
16021TIP3    H169478   1.002   0.349   2.904  1.3020  0.4768 -0.9804
16021TIP3    H269479   1.141   0.356   2.963  0.8341 -2.3404  0.5423
16022TIP3   OH269480   6.690   1.720  13.184  0.0867 -0.1173  0.1786
16022TIP3    H169481   6.645   1.804  13.189  1.2419  0.6177 -1.3199
16022TIP3    H269482   6.776   1.741  13.148  1.0774 -1.6991  1.5632
16023TIP3   OH269483   5.329   4.121   2.542 -0.5444  0.4206  0.0116
16023TIP3    H169484   5.374   4.106   2.625 -2.5419 -0.5625  0.9610
16023TIP3    H269485   5.274   4.198   2.559  0.0826  1.0571 -0.8402
16024TIP3   OH269486   1.386   4.218   4.928  0.9340 -1.1527  0.3047
16024TIP3    H169487   1.317   4.239   4.990  0.6481  0.4713 -0.5270
16024TIP3    H269488   1.467   4.243   4.972  0.6459  1.1090 -0.3975
16025TIP3   OH269489   4.792   0.032   6.396  0.3318 -0.4949 -0.0816
16025TIP3    H169490   4.862  -0.006   6.449 -0.9656 -2.6063  0.1754
16025TIP3    H269491   4.764   0.109   6.445  1.5168 -0.4285  0.5142
16026TIP3   OH269492   0.561   6.732   1.899  0.2341  0.1245 -0.7011
16026TIP3    H169493   0.554   6.827   1.891  0.0959  0.3486  1.6716
16026TIP3    H269494   0.649   6.712   1.867  0.9700  1.2810  0.5478
16027TIP3   OH269495   4.142   4.167  11.978  0.2475  0.1033 -0.1784
16027TIP3    H169496   4.083   4.093  11.966  0.1524  0.2643 -0.7377
16027TIP3    H269497   4.219   4.146  11.925  0.7937 -0.2065  0.7198
16028TIP3   OH269498   3.214   5.016   3.018  0.1673 -0.5421  0.2774
16028TIP3    H169499   3.238   4.939   2.966 -0.4622 -0.5356 -0.0210
16028TIP3    H269500   3.142   4.986   3.073  0.4423 -0.3833  0.7322
16029TIP3   OH269501   5.923   0.960   0.085  0.3115 -0.2585  0.0547
16029TIP3    H169502   5.859   1.030   0.095  0.2180 -0.3674  0.2320
16029TIP3    H269503   5.955   0.968  -0.005  0.3913  0.0864  0.1134
16030TIP3   OH269504   0.727   4.630  12.500 -0.5430  0.3948  0.0404
16030TIP3    H169505   0.646   4.607  12.454 -2.1687 -1.7009  3.6877
16030TIP3    H269506   0.793   4.573  12.461 -1.5875 -0.3856 -0.6232
16031TIP3   OH269507   5.915   0.625   2.297  0.4976  0.3661  0.6256
16031TIP3    H169508   5.871   0.614   2.213  0.0009  0.8975  0.8131
16031TIP3    H269509   5.849   0.664   2.354  0.7939 -0.0773  1.2945
16032TIP3   OH269510   5.756   0.932  11.252  0.2410  0.4009 -0.1975
16032TIP3    H169511   5.726   1.007  11.304 -0.4367 -0.5255  0.7703
16032TIP3    H269512   5.799   0.971  11.177 -1.9548  1.7779 -0.7924
16033TIP3   OH269513   0.314   4.355   3.691 -0.1741  0.1070  0.2979
16033TIP3    H169514   0.338   4.319   3.777  0.6042  1.4294  0.6599
16033TIP3    H269515   0.332   4.285   3.629  0.7380 -0.3385  1.0552
16034TIP3   OH269516   1.169   4.962   2.980  0.1679  0.2242  0.0980
16034TIP3    H169517   1.118   4.937   3.058 -1.9807  1.4372 -0.8645
16034TIP3    H269518   1.254   4.988   3.015 -0.4025 -0.2672  1.9443
16035TIP3   OH269519   5.856   6.459  16.077 -0.4257  0.4113 -0.3027
16035TIP3    H169520   5.947   6.454  16.047 -0.7144  0.0815 -1.1285
16035TIP3    H269521   5.811   6.390  16.029 -0.9563  0.0762  0.6790
16036TIP3   OH269522   0.001   6.541  16.585 -0.2678  0.8903 -0.3008
16036TIP3    H169523  -0.030   6.610  16.643 -0.8334  1.2344 -1.0007
16036TIP3    H269524  -0.059   6.468  16.601  1.3662 -0.0568  1.6934
16037TIP3   OH269525   0.570   1.890   5.489 -0.4724  0.6081  0.1672
16037TIP3    H169526   0.586   1.809   5.441  0.5769  1.3214 -0.7056
16037TIP3    H269527   0.485   1.920   5.456  0.0448  0.8732 -0.9459
16038TIP3   OH269528   6.743   4.481   0.046 -0.2103 -0.1090 -0.0775
16038TIP3    H169529   6.838   4.494   0.057 -0.0200 -1.3069 -0.1912
16038TIP3    H269530   6.736   4.408  -0.016 -1.2393  2.0011 -2.5219
16039TIP3   OH269531   1.174   0.703   2.604  0.6558 -0.7932  0.2652
16039TIP3    H169532   1.206   0.763   2.537 -0.7318 -0.9285 -0.5435
16039TIP3    H269533   1.223   0.726   2.683  1.8669 -0.2248 -0.6430
16040TIP3   OH269534   3.966   2.254   1.713  0.3687  0.4083 -0.3712
16040TIP3    H169535   3.915   2.334   1.706 -1.0295 -0.3670  0.7795
16040TIP3    H269536   3.925   2.204   1.784  0.6129 -1.7752 -1.7063
16041TIP3   OH269537   2.355   6.422  12.061 -0.3962  0.0057 -0.3807
16041TIP3    H169538   2.308   6.458  11.986 -0.7473  0.9644  0.2931
16041TIP3    H269539   2.445   6.453  12.050 -0.6074  0.7472 -0.0191
16042TIP3   OH269540   4.651   0.874   2.007  0.3769  0.6568  0.1442
16042TIP3    H169541   4.683   0.785   2.021  1.5325  0.9578 -0.4576
16042TIP3    H269542   4.637   0.880   1.913 -1.6318  0.4901  0.4260
16043TIP3   OH269543   0.667   0.879   3.581  0.0291  0.2157  0.5543
16043TIP3    H169544   0.688   0.794   3.619  1.9031 -0.2615 -1.4191
16043TIP3    H269545   0.703   0.943   3.642  0.9124 -0.4804  0.7760
16044TIP3   OH269546   6.366   6.194   1.220 -0.1484  0.0714 -0.0760
16044TIP3    H169547   6.439   6.132   1.215 -0.8679 -0.7543 -0.4273
16044TIP3    H269548   6.399   6.265   1.275  1.1419  0.0020 -0.7355
16045TIP3   OH269549   0.811   5.126   3.200 -0.0068  0.0679 -0.2483
16045TIP3    H169550   0.719   5.125   3.226  0.0035  0.9565 -0.1521
16045TIP3    H269551   0.823   5.046   3.149 -0.9917  0.2632 -0.7942
16046TIP3   OH269552   1.040   0.623   1.305  0.4314  0.4330  0.3799
16046TIP3    H169553   1.083   0.656   1.226  0.2842  0.9346  0.5097
16046TIP3    H269554   1.069   0.682   1.375 -0.5240  0.8192  0.4566
16047TIP3   OH269555   0.013   1.834   1.656 -0.2743  0.4259 -0.0431
16047TIP3    H169556  -0.025   1.812   1.571 -2.3109  0.6316  0.7742
16047TIP3    H269557   0.097   1.789   1.658 -1.3331 -1.6551 -1.1607
16048TIP3   OH269558   6.474   4.976   2.852 -0.1292  0.3789 -0.3781
16048TIP3    H169559   6.478   4.942   2.763  2.3191 -1.7319  0.4829
16048TIP3    H269560   6.510   5.065   2.845 -0.6355  0.4907 -1.6020
16049TIP3   OH269561   4.138   4.199  11.435  0.1065  0.2449 -0.4618
16049TIP3    H169562   4.154   4.189  11.529  0.0893  0.6199 -0.4160
16049TIP3    H269563   4.181   4.282  11.412  0.1085  0.1557 -0.7819
16050TIP3   OH269564   5.778   2.599   1.895 -0.5177  0.1032 -0.5506
16050TIP3    H169565   5.776   2.504   1.881  0.6596  0.2191 -1.6419
16050TIP3    H269566   5.735   2.635   1.817 -2.5306  0.4147  0.6728
16051TIP3   OH269567   1.623   3.194  14.023 -0.2850  0.5823  0.2075
16051TIP3    H169568   1.550   3.151  14.068 -0.1915  0.4842  0.2631
16051TIP3    H269569   1.689   3.208  14.091 -0.0105  0.1382  0.0326
16052TIP3   OH269570   1.259   2.484  15.823 -0.4443 -0.1212  0.2457
16052TIP3    H169571   1.287   2.529  15.903 -0.0425 -0.6192  0.3832
16052TIP3    H269572   1.309   2.403  15.822 -0.9070 -0.4028 -0.1928
16053TIP3   OH269573   4.586   1.888  16.703  0.5875  0.2912  0.2101
16053TIP3    H169574   4.594   1.909  16.796  1.1421 -0.4129  0.3299
16053TIP3    H269575   4.552   1.968  16.662 -0.3411  0.3685  1.1274
16054TIP3   OH269576   0.918   1.584  16.132 -0.1216  0.0844  0.1465
16054TIP3    H169577   0.850   1.637  16.173 -0.2769 -0.0089  0.0123
16054TIP3    H269578   0.876   1.547  16.055  0.5955  1.4605 -0.9312
16055TIP3   OH269579   5.059   5.545   4.652  0.3361  0.0942 -0.1214
16055TIP3    H169580   5.073   5.639   4.644 -1.0977  0.2982 -0.3782
16055TIP3    H269581   5.147   5.508   4.653  0.9245  1.4549  0.2552
16056TIP3   OH269582   1.071   2.760   1.111 -0.2871 -0.5224  0.6062
16056TIP3    H169583   1.077   2.819   1.186  0.6429 -1.9540  1.6743
16056TIP3    H269584   1.057   2.674   1.149  1.2763 -1.4325 -0.8098
16057TIP3   OH269585   2.237   3.225   5.151 -0.0658 -0.2634  0.5838
16057TIP3    H169586   2.215   3.143   5.108 -0.4602 -0.7475  1.6831
16057TIP3    H269587   2.328   3.215   5.177  0.3731  0.2918 -0.7112
16058TIP3   OH269588   6.728   0.473  14.221 -0.8908  0.0843 -0.0509
16058TIP3    H169589   6.685   0.430  14.147 -2.1019  0.8075  0.2137
16058TIP3    H269590   6.799   0.414  14.245 -1.6077 -1.0416 -0.6343
16059TIP3   OH269591   5.165   1.308   2.447  0.1438  0.2902 -0.5588
16059TIP3    H169592   5.229   1.374   2.473  0.9630 -0.2035 -1.2740
16059TIP3    H269593   5.214   1.250   2.389 -0.8806 -0.2650 -0.8719
16060TIP3   OH269594   1.906   2.010  12.093 -0.2600 -0.0270 -0.0936
16060TIP3    H169595   1.981   2.067  12.109 -0.4365 -0.1368  1.2461
16060TIP3    H269596   1.907   1.994  11.999  1.1195  0.3417 -0.1530
16061TIP3   OH269597   0.219   1.188   4.700 -0.4213  0.1370  0.1655
16061TIP3    H169598   0.161   1.243   4.648 -0.9262 -0.5192  0.0260
16061TIP3    H269599   0.181   1.100   4.694  0.3235 -0.2124  0.4546
16062TIP3   OH269600   1.578   1.880  15.815 -0.0763  0.4131  0.1219
16062TIP3    H169601   1.657   1.919  15.778  1.0584 -1.9674 -0.1251
16062TIP3    H269602   1.505   1.924  15.772  1.1553  1.5455 -0.8137
16063TIP3   OH269603   3.829   5.713   3.816  0.1675  0.0710  0.5232
16063TIP3    H169604   3.756   5.657   3.842  0.7829 -0.3619  1.3590
16063TIP3    H269605   3.904   5.679   3.865  0.7480  1.0451  0.3350
16064TIP3   OH269606   5.337   6.602  15.299 -0.0445  0.2229 -0.4689
16064TIP3    H169607   5.282   6.567  15.229 -0.3449 -2.1016  0.8888
16064TIP3    H269608   5.419   6.554  15.291 -0.3592 -0.6223  1.2541
16065TIP3   OH269609   0.673   1.325   2.929  0.2099 -0.0303  0.0253
16065TIP3    H169610   0.744   1.289   2.876 -0.2752 -1.7406  0.5348
16065TIP3    H269611   0.661   1.414   2.895  0.3224 -0.8884 -2.3239
16066TIP3   OH269612   1.786   3.186  13.274 -0.3987 -0.4857 -0.7254
16066TIP3    H169613   1.780   3.255  13.340 -1.8899 -0.0390 -1.3119
16066TIP3    H269614   1.838   3.225  13.204  1.4189 -1.0525  0.2765
16067TIP3   OH269615   3.580   3.503   1.161  0.1887  0.4110 -0.5506
16067TIP3    H169616   3.604   3.562   1.090  0.5135  0.4977 -0.3696
16067TIP3    H269617   3.660   3.453   1.179  0.6726  1.7132  1.0342
16068TIP3   OH269618   4.050   4.747   2.893 -0.8927  0.3834  0.2401
16068TIP3    H169619   4.133   4.794   2.888 -0.0512 -0.9936  0.7874
16068TIP3    H269620   4.073   4.663   2.933 -2.2083 -0.7765 -1.3727
16069TIP3   OH269621   2.855   0.951  16.656 -0.1077 -0.9690  0.9892
16069TIP3    H169622   2.909   1.024  16.626 -1.2556 -0.3978  0.2825
16069TIP3    H269623   2.906   0.911  16.727  0.5231  0.5374  1.4087
16070TIP3   OH269624   4.542   3.751  13.224 -0.2936 -0.0866  0.9921
16070TIP3    H169625   4.523   3.669  13.270 -1.9419  1.7700  3.7124
16070TIP3    H269626   4.456   3.789  13.206  0.4751  1.2084  0.0080
16071TIP3   OH269627   3.535   6.631   5.462  0.6127 -0.3056 -0.3231
16071TIP3    H169628   3.458   6.580   5.438 -1.0781  1.7672  0.5755
16071TIP3    H269629   3.571   6.586   5.539 -0.7974 -0.2434  0.3849
16072TIP3   OH269630   3.955   4.404   1.147  0.0348  0.3594  0.6067
16072TIP3    H169631   4.015   4.457   1.200 -0.9512  0.5385  1.5749
16072TIP3    H269632   3.947   4.322   1.195  0.0477  0.0709  0.1159
16073TIP3   OH269633   5.291   4.297  15.561 -0.7710 -0.2138 -0.4749
16073TIP3    H169634   5.307   4.301  15.655  0.1826  1.4732 -0.6923
16073TIP3    H269635   5.294   4.204  15.540  2.2725 -0.4132  0.6326
16074TIP3   OH269636   2.966   2.075   4.417  0.0977 -0.4822  0.0159
16074TIP3    H169637   3.001   2.127   4.345 -1.7665  0.4052 -0.2756
16074TIP3    H269638   2.872   2.073   4.402 -0.3569 -0.0949  2.5358
16075TIP3   OH269639   3.709   0.138  10.558  0.0241 -0.0451  0.5925
16075TIP3    H169640   3.737   0.138  10.650  0.3127  2.9912  0.5348
16075TIP3    H269641   3.631   0.082  10.558  1.8792 -2.7741  2.0430
16076TIP3   OH269642   2.106   5.673  12.202  0.0231  0.0321 -0.2559
16076TIP3    H169643   2.146   5.597  12.160 -0.5554 -1.8204  2.4630
16076TIP3    H269644   2.173   5.741  12.198  0.5913 -0.6414 -2.5871
16077TIP3   OH269645   2.302   1.406   5.688 -0.0884 -0.2447  0.5407
16077TIP3    H169646   2.377   1.407   5.748  0.4190 -1.4845 -0.0593
16077TIP3    H269647   2.329   1.461   5.615  0.1823 -0.5760  0.3914
16078TIP3   OH269648   4.067   5.505   1.534  0.1498  0.1463 -0.3944
16078TIP3    H169649   4.122   5.551   1.598  1.4873  0.6186 -1.8538
16078TIP3    H269650   4.015   5.574   1.493 -1.2214 -0.2370  0.6181
16079TIP3   OH269651   6.752   4.135   5.909 -0.4056  0.2461  0.3317
16079TIP3    H169652   6.720   4.130   5.999 -1.0695 -0.6741  0.0508
16079TIP3    H269653   6.698   4.072   5.861 -0.2550  0.9493 -0.7663
16080TIP3   OH269654   5.026   2.653  13.777 -0.0024  0.2649  0.0850
16080TIP3    H169655   5.043   2.671  13.685  1.2878  1.1185  0.4692
16080TIP3    H269656   4.976   2.728  13.808 -0.8123 -0.2276 -0.0185
16081TIP3   OH269657   5.665   3.899  15.518 -0.9262 -0.3391  0.0927
16081TIP3    H169658   5.640   3.966  15.455  0.2561 -1.0225 -1.1104
16081TIP3    H269659   5.599   3.906  15.588  0.2855  3.4140  0.9855
16082TIP3   OH269660   1.965   0.606   2.643 -0.2789  0.0200  0.0735
16082TIP3    H169661   2.046   0.586   2.691  0.8320  1.0535 -1.2938
16082TIP3    H269662   1.973   0.554   2.562 -1.0379  0.0404 -0.0121
16083TIP3   OH269663   2.043   3.491  14.660  0.0816  0.1677 -0.0283
16083TIP3    H169664   2.038   3.401  14.630 -1.0420 -0.3691  1.7157
16083TIP3    H269665   2.128   3.498  14.704 -0.6298 -0.5791  1.4958
16084TIP3   OH269666   4.597   0.247   5.636 -0.0591  0.3134  0.8175
16084TIP3    H169667   4.631   0.327   5.676  2.4972 -0.1430 -0.3359
16084TIP3    H269668   4.523   0.276   5.582  1.4621  2.0509 -0.3682
16085TIP3   OH269669   3.311   5.641   1.421  0.0363 -0.5279 -0.2681
16085TIP3    H169670   3.360   5.589   1.357 -0.9681 -0.0617 -1.4374
16085TIP3    H269671   3.222   5.644   1.386 -0.2448  0.7674  0.5304
16086TIP3   OH269672   0.829   1.705  15.156 -0.3061 -0.1657 -0.2058
16086TIP3    H169673   0.750   1.656  15.134 -0.8018  0.8234 -0.6174
16086TIP3    H269674   0.856   1.670  15.241 -0.4544 -1.4134 -0.6643
16087TIP3   OH269675   0.049   6.359   4.748 -0.1631 -0.1147  0.2071
16087TIP3    H169676   0.005   6.288   4.794  2.8343 -1.3907  1.1619
16087TIP3    H269677   0.054   6.329   4.657  1.1919 -1.1893  0.6283
16088TIP3   OH269678   0.700   5.746  15.607  0.0812  0.3636 -0.5791
16088TIP3    H169679   0.793   5.742  15.585  0.7233 -0.0282  1.9608
16088TIP3    H269680   0.678   5.657  15.632 -0.6218  0.7340  0.1394
16089TIP3   OH269681   0.482   0.509   0.390  0.1422 -0.1165  0.1688
16089TIP3    H169682   0.460   0.422   0.356  0.0417 -0.5933  1.4400
16089TIP3    H269683   0.401   0.560   0.380  0.7420  0.4170 -2.3504
16090TIP3   OH269684   1.982   4.793   4.061  0.1814 -0.0275 -0.3201
16090TIP3    H169685   2.003   4.779   3.968  0.6961 -1.8536  0.0439
16090TIP3    H269686   1.895   4.755   4.071  0.1460  0.1314 -0.0457
16091TIP3   OH269687   3.469   1.810  13.930  0.2990 -0.3997  0.1277
16091TIP3    H169688   3.532   1.742  13.953  0.7906  0.1353  0.3689
16091TIP3    H269689   3.410   1.768  13.868  1.1403 -0.7850 -0.4212
16092TIP3   OH269690   6.545   4.815   4.302  0.5707 -0.4488 -0.4574
16092TIP3    H169691   6.520   4.796   4.392  0.8885  1.1292 -0.0216
16092TIP3    H269692   6.496   4.893   4.279  1.4579 -0.1004 -1.2108
16093TIP3   OH269693   6.006   0.239  13.219  0.4867 -0.2404 -0.2200
16093TIP3    H169694   6.052   0.298  13.159 -1.1169  0.7858 -0.4479
16093TIP3    H269695   6.071   0.218  13.287  1.6479  0.2588 -1.1668
16094TIP3   OH269696   6.092   3.391  13.669  0.0400  0.3541  0.1788
16094TIP3    H169697   6.122   3.467  13.718 -0.7988  0.6934  0.1713
16094TIP3    H269698   6.074   3.325  13.735 -1.6507  1.0033  0.3974
16095TIP3   OH269699   3.146   2.195  11.810  0.2049  0.2999 -0.4677
16095TIP3    H169700   3.115   2.106  11.793 -0.7508  0.7934 -1.3124
16095TIP3    H269701   3.176   2.192  11.901  1.1898 -1.1595 -0.8099
16096TIP3   OH269702   6.492   3.118   3.327  0.4088 -0.2529 -0.0875
16096TIP3    H169703   6.562   3.122   3.263  1.0105 -0.6095  0.5372
16096TIP3    H269704   6.535   3.093   3.409 -0.4686 -0.6447  0.2665
16097TIP3   OH269705   1.866   2.927   2.732 -0.3325 -0.5358  1.0210
16097TIP3    H169706   1.813   2.858   2.692 -2.8861  2.2165 -0.5019
16097TIP3    H269707   1.824   2.942   2.817 -0.0224 -0.5467  1.1774
16098TIP3   OH269708   6.668   1.594   2.414 -0.2266 -0.3561 -0.0566
16098TIP3    H169709   6.680   1.652   2.489  0.6390 -0.6726  0.0528
16098TIP3    H269710   6.726   1.629   2.346  0.7426 -1.4248  0.2080
16099TIP3   OH269711   2.950   4.235   3.055 -0.1632 -0.2566  0.1890
16099TIP3    H169712   3.028   4.289   3.069  0.9209 -1.4619 -1.0306
16099TIP3    H269713   2.888   4.294   3.013  0.1812  0.6581  0.9580
16100TIP3   OH269714   2.574   2.528  10.592  0.1828  0.0792  0.0170
16100TIP3    H169715   2.570   2.576  10.510  0.2065  1.2328  0.6720
16100TIP3    H269716   2.659   2.551  10.630 -0.5699  0.9878  1.1970
16101TIP3   OH269717   3.093   0.291   6.247 -0.8994  0.3212  0.0433
16101TIP3    H169718   3.133   0.376   6.263 -0.0780  0.5450 -2.7559
16101TIP3    H269719   3.119   0.237   6.321 -0.6939  2.2522  1.4021
16102TIP3   OH269720   4.680   2.365   4.532 -0.1047 -0.2865 -0.1502
16102TIP3    H169721   4.681   2.341   4.625 -1.3389  0.3127  0.0290
16102TIP3    H269722   4.761   2.416   4.520 -0.2402  0.1648  0.7444
16103TIP3   OH269723   2.864   3.008   0.273  0.5573 -0.0013  0.3361
16103TIP3    H169724   2.804   2.959   0.330  0.4679 -0.4645 -0.1485
16103TIP3    H269725   2.815   3.087   0.250 -0.2826 -0.8594 -0.8829
16104TIP3   OH269726   5.151   1.452  14.569 -0.1881  0.2076 -0.3471
16104TIP3    H169727   5.156   1.522  14.634  0.6772  0.6622 -0.8770
16104TIP3    H269728   5.093   1.486  14.501 -0.9213 -0.1803  0.0822
16105TIP3   OH269729   3.965   0.008  15.247  0.7634 -0.0119  0.0877
16105TIP3    H169730   3.893  -0.052  15.264  0.6427  0.1244  0.0569
16105TIP3    H269731   3.929   0.095  15.266  1.0480  0.0166  0.4863
16106TIP3   OH269732   3.091   4.817   4.851  0.2879 -0.1585 -0.0621
16106TIP3    H169733   2.997   4.814   4.870 -0.1222  2.1213 -1.4798
16106TIP3    H269734   3.126   4.736   4.887 -2.0223 -0.4594  1.5867
16107TIP3   OH269735   1.208   3.219   3.676 -0.1374 -0.2780  0.4957
16107TIP3    H169736   1.177   3.180   3.758 -0.5198 -0.6965  0.1595
16107TIP3    H269737   1.154   3.178   3.608 -0.9556  1.2660  0.1802
16108TIP3   OH269738   5.471   1.335   0.845  0.1339 -0.1777 -0.6233
16108TIP3    H169739   5.523   1.296   0.915  0.1260 -0.1361 -0.5945
16108TIP3    H269740   5.396   1.374   0.890 -0.7057 -1.5366 -0.8054
16109TIP3   OH269741   3.929   4.835   1.913  0.4961 -0.4274  0.6209
16109TIP3    H169742   3.933   4.780   1.990 -0.2414 -2.3790 -0.6952
16109TIP3    H269743   3.839   4.828   1.882  1.1093 -0.7910 -1.1826
16110TIP3   OH269744   2.220   3.948   0.563 -0.5712 -0.1098 -0.0594
16110TIP3    H169745   2.287   3.881   0.546 -0.9556 -0.7341  0.8686
16110TIP3    H269746   2.188   3.928   0.650 -2.6742 -0.4239 -0.8913
16111TIP3   OH269747   2.059   4.761  14.623  0.1268 -0.4822 -0.5586
16111TIP3    H169748   2.025   4.833  14.676 -0.2391 -0.9042 -0.2110
16111TIP3    H269749   2.153   4.759  14.643 -0.4695 -2.4853  2.3480
16112TIP3   OH269750   5.668   4.311  13.221  0.0781 -0.7350 -0.1691
16112TIP3    H169751   5.694   4.220  13.208  0.5766 -0.1743 -3.4609
16112TIP3    H269752   5.747   4.354  13.255  0.5149 -1.0613 -0.7768
16113TIP3   OH269753   5.590   1.762   2.883 -0.7505 -0.0419 -0.0132
16113TIP3    H169754   5.505   1.750   2.925 -2.6064  1.1434 -3.2330
16113TIP3    H269755   5.592   1.855   2.859  1.6843  0.0636  0.4474
16114TIP3   OH269756   5.495   3.103   5.613  0.3043 -0.5574 -0.5800
16114TIP3    H169757   5.581   3.130   5.645  0.0157  0.2955 -0.5072
16114TIP3    H269758   5.454   3.062   5.689 -0.7306  2.2939  0.4572
16115TIP3   OH269759   0.515   1.110   4.612  0.0281 -0.3428  0.1310
16115TIP3    H169760   0.597   1.079   4.574 -0.2856  1.0326 -1.7487
16115TIP3    H269761   0.447   1.059   4.568 -0.1794 -1.2045  1.4041
16116TIP3   OH269762   2.454   3.348  12.276 -0.0393  0.2060 -0.5423
16116TIP3    H169763   2.473   3.270  12.328 -0.1890 -1.2384 -2.6051
16116TIP3    H269764   2.511   3.416  12.313 -0.9627 -0.4719  2.2174
16117TIP3   OH269765   6.349   1.435   4.083 -0.6746 -0.2292  0.4599
16117TIP3    H169766   6.327   1.503   4.020 -0.4342  0.3292  0.9698
16117TIP3    H269767   6.443   1.443   4.095 -0.6934 -0.4433  0.7525
16118TIP3   OH269768   2.005   5.182  14.363 -0.0553 -0.1719  0.0573
16118TIP3    H169769   1.960   5.248  14.416  0.4612 -0.8866  1.4149
16118TIP3    H269770   2.082   5.228  14.328 -0.0746  0.1457  0.4242
16119TIP3   OH269771   0.167   1.553  11.634  0.5749 -0.1097  0.4538
16119TIP3    H169772   0.180   1.647  11.619 -0.7262  0.4442  2.5706
16119TIP3    H269773   0.158   1.545  11.729  0.9258 -2.4297  0.3336
16120TIP3   OH269774   2.940   2.038  16.413 -0.2024 -0.2347 -0.0853
16120TIP3    H169775   2.903   2.056  16.326 -0.5161  0.0679  0.1049
16120TIP3    H269776   2.930   2.121  16.460 -0.7393 -0.6244  0.4901
16121TIP3   OH269777   1.927   5.639  13.963  0.1232  0.3346 -0.3484
16121TIP3    H169778   1.866   5.565  13.973  1.7193 -1.2745 -2.2071
16121TIP3    H269779   2.002   5.615  14.017  0.0780  1.2354  0.1093
16122TIP3   OH269780   1.211   4.540  14.439 -0.0480  0.4217  0.6964
16122TIP3    H169781   1.134   4.575  14.394  0.4336 -0.4910 -0.8832
16122TIP3    H269782   1.284   4.561  14.381  0.4520 -1.6760  0.5407
16123TIP3   OH269783   3.322   3.321   3.762 -0.1246  0.0551  0.2750
16123TIP3    H169784   3.230   3.331   3.786  0.0445  2.2438  0.1394
16123TIP3    H269785   3.330   3.362   3.676  1.0989  0.5361  0.5925
16124TIP3   OH269786   6.257   0.826   3.476  0.2892  0.0004  0.1714
16124TIP3    H169787   6.259   0.797   3.385 -1.1167  0.5747 -0.0518
16124TIP3    H269788   6.274   0.920   3.472  0.7776 -0.0709  0.5520
16125TIP3   OH269789   5.758   6.420  14.743 -0.3327 -0.0450 -0.3679
16125TIP3    H169790   5.817   6.345  14.737  1.1525  1.0736 -0.2380
16125TIP3    H269791   5.792   6.482  14.679 -3.1438 -0.5037 -2.4114
16126TIP3   OH269792   2.090   4.870   1.589 -0.3100 -0.0076  0.1699
16126TIP3    H169793   2.135   4.954   1.582  1.1391 -0.4081  3.4204
16126TIP3    H269794   2.110   4.825   1.507 -1.2753  2.8494 -1.7132
16127TIP3   OH269795   1.967   4.829   5.369 -0.4296 -0.0430 -0.2498
16127TIP3    H169796   1.951   4.922   5.382 -0.0231  0.0897 -0.7068
16127TIP3    H269797   1.974   4.793   5.457  0.2637  0.5060 -0.0756
16128TIP3   OH269798   3.100   6.318   4.164  0.2406 -0.1717  0.5128
16128TIP3    H169799   3.115   6.343   4.255 -0.6719  0.0668  0.6027
16128TIP3    H269800   3.179   6.271   4.138  1.2060  1.2170  0.9147
16129TIP3   OH269801   4.138   6.780   4.884  0.2307  0.3420 -0.1158
16129TIP3    H169802   4.096   6.717   4.825 -0.2188 -0.0415  0.6073
16129TIP3    H269803   4.065   6.829   4.922  0.4861  0.1879  0.5733
16130TIP3   OH269804   6.501   2.747  10.996 -0.1205  0.4056  0.3669
16130TIP3    H169805   6.443   2.724  11.069  0.3278 -0.5548  0.4243
16130TIP3    H269806   6.442   2.754  10.921 -0.4778  0.6438  0.6659
16131TIP3   OH269807   2.191   5.676   2.042  0.0862 -0.3208  0.5125
16131TIP3    H169808   2.156   5.604   2.094  1.1276 -0.3595  1.1608
16131TIP3    H269809   2.247   5.725   2.102 -1.9648  2.0636  0.5613
16132TIP3   OH269810   5.577   2.113   1.789  0.5659 -0.1490  0.4227
16132TIP3    H169811   5.585   2.019   1.780 -0.1146 -0.3648  1.8277
16132TIP3    H269812   5.486   2.126   1.819  1.2241  0.7910  2.0760
16133TIP3   OH269813   4.903   2.422  10.943  0.4779 -0.4317 -0.6714
16133TIP3    H169814   4.906   2.341  10.995  0.2016 -1.0551 -1.6170
16133TIP3    H269815   4.922   2.394  10.854  2.9436  0.9171 -0.6155
16134TIP3   OH269816   4.832   4.324   1.637  0.3105  0.5436 -0.6566
16134TIP3    H169817   4.776   4.251   1.611  1.8030 -0.6113 -0.7074
16134TIP3    H269818   4.811   4.338   1.730 -0.6906  0.7184 -0.9005
16135TIP3   OH269819   4.097   4.564   0.873 -0.2323 -0.0626  0.4145
16135TIP3    H169820   4.087   4.533   0.784 -0.9413  0.9186  0.1463
16135TIP3    H269821   4.070   4.656   0.870  0.0485  0.0682  1.5679
16136TIP3   OH269822   2.190   6.054  11.505 -0.8343 -0.3334  0.0516
16136TIP3    H169823   2.133   5.983  11.477 -2.9556  1.0251  0.8013
16136TIP3    H269824   2.266   6.049  11.447 -1.1489 -2.9090 -0.1824
16137TIP3   OH269825   4.700   2.513   3.111  0.1308  0.1172  0.1500
16137TIP3    H169826   4.684   2.604   3.087 -1.3501 -0.1586 -0.0079
16137TIP3    H269827   4.727   2.516   3.203 -1.6364  0.5966  0.6752
16138TIP3   OH269828   6.646   5.573  13.818  0.3630  0.3763 -0.2011
16138TIP3    H169829   6.634   5.666  13.837  0.7895 -0.0416  2.3750
16138TIP3    H269830   6.706   5.543  13.887  0.2700 -1.7844 -1.0425
16139TIP3   OH269831   4.916   1.217  12.037 -0.2284 -0.0056  0.4499
16139TIP3    H169832   4.922   1.291  11.977 -0.1524  0.3232  0.8572
16139TIP3    H269833   4.841   1.239  12.093  0.1961  0.0775  0.9908
16140TIP3   OH269834   0.162   0.679   1.634 -0.1260 -0.1348  0.0486
16140TIP3    H169835   0.115   0.598   1.614 -0.3201 -0.0062 -0.0168
16140TIP3    H269836   0.245   0.670   1.587 -0.6579  0.2434 -0.9879
16141TIP3   OH269837   3.303   5.957   0.551  0.3325  0.1124 -0.7973
16141TIP3    H169838   3.239   5.918   0.492  0.4832  1.4686 -1.8638
16141TIP3    H269839   3.381   5.969   0.497  1.0236 -0.1978  0.1180
16142TIP3   OH269840   2.884   0.385  17.015  0.2440  0.3716 -0.3387
16142TIP3    H169841   2.975   0.403  17.041  0.0807 -0.3766  0.7924
16142TIP3    H269842   2.842   0.355  17.095 -1.3670  1.9619 -0.5741
16143TIP3   OH269843   3.514   2.763   0.214  0.8855 -0.0204 -0.7412
16143TIP3    H169844   3.510   2.816   0.294 -0.0483  0.2152 -0.9366
16143TIP3    H269845   3.569   2.688   0.238 -1.3628 -1.2016  0.8832
16144TIP3   OH269846   4.817   4.061  11.648  0.1037  0.6703  0.4819
16144TIP3    H169847   4.901   4.107  11.646  0.0972  0.6808  0.4421
16144TIP3    H269848   4.783   4.069  11.559 -1.3593  3.3303  1.2043
16145TIP3   OH269849   5.935   5.457   5.440 -0.0226  0.0026  0.0992
16145TIP3    H169850   6.010   5.436   5.385 -1.4188 -2.8111 -0.8121
16145TIP3    H269851   5.863   5.471   5.379 -0.7529  0.4925  1.0545
16146TIP3   OH269852   5.399   4.118  13.108  0.3391 -0.5520  0.7727
16146TIP3    H169853   5.461   4.144  13.175  0.5548  1.1742 -0.0716
16146TIP3    H269854   5.351   4.198  13.087 -0.4763 -1.3128 -0.3497
16147TIP3   OH269855   2.206   2.126  17.108  0.1439  0.0742 -0.1392
16147TIP3    H169856   2.140   2.187  17.141 -0.5336 -1.4673  1.4370
16147TIP3    H269857   2.176   2.040  17.138  2.3928 -0.7476 -0.1828
16148TIP3   OH269858   1.618   4.824  10.737 -0.3127 -0.0952 -0.0081
16148TIP3    H169859   1.611   4.783  10.651 -1.0066  0.4162 -0.1970
16148TIP3    H269860   1.613   4.751  10.799 -0.1842 -0.4264 -0.3883
16149TIP3   OH269861   5.667   1.483  16.020 -0.2473 -0.4354 -0.0665
16149TIP3    H169862   5.747   1.516  16.062 -1.1850  0.4871  0.9980
16149TIP3    H269863   5.632   1.420  16.082 -0.8085 -0.1995 -0.1440
16150TIP3   OH269864   4.562   1.872   0.668  0.5237 -0.4749 -0.2212
16150TIP3    H169865   4.567   1.948   0.611  2.2823 -0.4705 -0.0842
16150TIP3    H269866   4.579   1.797   0.610 -1.2107 -0.7914 -0.3602
16151TIP3   OH269867   3.689   0.808   6.378  0.2251 -0.4243 -0.0462
16151TIP3    H169868   3.644   0.857   6.446 -0.0843  0.5116 -0.9085
16151TIP3    H269869   3.736   0.874   6.328 -1.4194 -0.8133 -2.1600
16152TIP3   OH269870   4.435   5.616   0.648 -0.2654  0.0583  0.1947
16152TIP3    H169871   4.476   5.682   0.591 -1.2264  0.4266 -0.0840
16152TIP3    H269872   4.507   5.583   0.702 -0.2028  3.0085  1.9823
16153TIP3   OH269873   4.483   4.669  10.378  0.0078  0.0975  0.0448
16153TIP3    H169874   4.399   4.624  10.385  0.5068 -0.4695  3.7470
16153TIP3    H269875   4.461   4.759  10.354 -1.7941  0.2920  2.2592
16154TIP3   OH269876   2.222   5.123  16.724 -0.2442  0.2417  0.5601
16154TIP3    H169877   2.135   5.143  16.689  0.4471  1.1653 -0.6508
16154TIP3    H269878   2.210   5.126  16.819 -1.5263  0.4394  0.4059
16155TIP3   OH269879   5.284   2.381  15.955 -0.0427 -0.7382  0.1722
16155TIP3    H169880   5.227   2.324  16.007 -1.1669  0.8259  0.7212
16155TIP3    H269881   5.366   2.333  15.947 -1.0466 -2.5186  0.4149
16156TIP3   OH269882   1.656   2.619  13.976 -0.2413  0.1309 -0.0022
16156TIP3    H169883   1.738   2.595  13.932 -1.0117 -0.7934 -0.9716
16156TIP3    H269884   1.668   2.587  14.066  0.3681 -0.2180 -0.1985
16157TIP3   OH269885   4.197   0.135   4.290 -0.4110 -0.2562  0.5883
16157TIP3    H169886   4.230   0.093   4.369  0.2696  0.7869  0.8684
16157TIP3    H269887   4.188   0.063   4.227 -0.1207 -0.9605  1.3348
16158TIP3   OH269888   6.130   3.411  15.301  0.5188 -0.3259 -0.2798
16158TIP3    H169889   6.107   3.370  15.385  0.9367  0.4397  0.2183
16158TIP3    H269890   6.099   3.501  15.309  1.1152 -0.0770 -0.7110
16159TIP3   OH269891   1.118   0.135  13.270 -0.1219  0.1011 -0.2863
16159TIP3    H169892   1.119   0.221  13.312  1.1741 -0.1195  0.1657
16159TIP3    H269893   1.025   0.115  13.259 -0.4917  0.3354  2.1280
16160TIP3   OH269894   6.496   3.924  11.387  0.0927 -0.3955  0.3289
16160TIP3    H169895   6.550   3.924  11.308 -0.1046  0.0422  0.1915
16160TIP3    H269896   6.500   3.834  11.419  1.4723 -0.1994  0.7102
16161TIP3   OH269897   3.941   3.725   2.189  0.0925 -0.0485 -0.2122
16161TIP3    H169898   3.860   3.762   2.153  0.6444  1.4850  0.0669
16161TIP3    H269899   3.992   3.700   2.112 -0.3206 -0.3152 -0.4037
16162TIP3   OH269900   3.598   4.351  16.458  0.1741 -0.3967  1.0794
16162TIP3    H169901   3.513   4.394  16.464  0.4832  0.2548  0.9085
16162TIP3    H269902   3.582   4.260  16.483 -0.6564 -0.3927  0.5573
16163TIP3   OH269903   4.913   5.355  10.813 -0.2190  0.1386 -0.4041
16163TIP3    H169904   4.858   5.358  10.892  0.7457  0.6285  0.2633
16163TIP3    H269905   5.002   5.339  10.846  0.1401 -0.0050 -1.4172
16164TIP3   OH269906   0.952   4.779  16.537 -0.2536 -0.2880 -0.0658
16164TIP3    H169907   0.931   4.842  16.467 -1.1865  1.2408  1.5629
16164TIP3    H269908   0.875   4.778  16.593  0.9882 -0.5109  1.6695
16165TIP3   OH269909   5.034   6.314  16.597  0.3309 -0.7840 -0.2208
16165TIP3    H169910   4.976   6.384  16.627  0.3819 -1.6336  1.9901
16165TIP3    H269911   5.122   6.353  16.598  0.2227 -0.5436 -0.1284
16166TIP3   OH269912   0.773   4.944   0.062  0.0743 -0.1085 -0.0721
16166TIP3    H169913   0.852   4.946   0.007 -1.0008  2.7560 -1.6090
16166TIP3    H269914   0.806   4.939   0.152  1.9743 -0.1105 -0.7490
16167TIP3   OH269915   4.925   1.115  14.349  0.0089 -0.0166 -0.4932
16167TIP3    H169916   5.011   1.074  14.345 -0.1468 -0.4912  0.8278
16167TIP3    H269917   4.935   1.196  14.299  1.1637 -0.1584 -0.5053
16168TIP3   OH269918   3.213   6.125  12.068  0.3366 -0.2113 -1.1721
16168TIP3    H169919   3.118   6.120  12.082  0.3227 -0.6267 -1.4060
16168TIP3    H269920   3.251   6.078  12.143  0.3913  0.7851 -0.5739
16169TIP3   OH269921   1.725   4.492  14.083  0.3057  0.1408 -0.4663
16169TIP3    H169922   1.803   4.545  14.070 -0.4788  1.6497  0.7810
16169TIP3    H269923   1.676   4.538  14.152 -1.3807 -1.0958 -0.8096
16170TIP3   OH269924   1.887   0.318   1.094 -0.3041 -0.3719  0.1514
16170TIP3    H169925   1.865   0.382   1.027  0.8242  0.5555  0.6492
16170TIP3    H269926   1.824   0.334   1.165  0.5125  0.7845  0.6380
16171TIP3   OH269927   3.047   2.337   5.760  0.1808 -0.2257 -0.2781
16171TIP3    H169928   2.967   2.284   5.758 -1.4767  2.0475  2.2169
16171TIP3    H269929   3.089   2.314   5.843  1.1189  0.0068 -0.6813
16172TIP3   OH269930   3.203   6.024  13.394 -0.0112  0.1473  0.1347
16172TIP3    H169931   3.283   5.995  13.437 -0.9610 -0.0930  1.7784
16172TIP3    H269932   3.148   6.058  13.465 -0.3761  2.6303 -1.2575
16173TIP3   OH269933   0.983   4.661   0.606 -0.5868  0.1680  0.2090
16173TIP3    H169934   1.017   4.706   0.529  1.3354  0.9534  1.4677
16173TIP3    H269935   0.889   4.652   0.590 -0.2014  0.3184 -2.1971
16174TIP3   OH269936   3.355   2.843  10.826  0.3619  0.0750  0.3088
16174TIP3    H169937   3.449   2.849  10.809  0.3032  1.4463  0.4249
16174TIP3    H269938   3.334   2.924  10.872 -1.0248  0.1504 -0.4399
16175TIP3   OH269939   2.249   4.470  15.558 -0.1349  0.0886  1.1829
16175TIP3    H169940   2.269   4.525  15.482  0.6791  0.0217  1.3507
16175TIP3    H269941   2.153   4.469  15.562 -0.2703 -1.9518 -1.3170
16176TIP3   OH269942   4.641   0.949  15.361 -0.5857  0.2081  0.3765
16176TIP3    H169943   4.548   0.938  15.378 -0.7304 -0.4337 -0.8236
16176TIP3    H269944   4.649   0.952  15.266  0.6254  0.2137  0.4649
16177TIP3   OH269945   1.590   1.666   5.864 -0.3850 -0.4093  0.4213
16177TIP3    H169946   1.643   1.600   5.819  0.1449  0.2737  0.0360
16177TIP3    H269947   1.538   1.616   5.927 -0.0725 -1.2082  0.0518
16178TIP3   OH269948   4.053   4.754  13.756 -0.4013  0.2073 -0.0351
16178TIP3    H169949   3.988   4.730  13.690  0.2905 -0.8073 -0.3602
16178TIP3    H269950   4.002   4.792  13.828 -1.4790 -1.7030  0.2274
16179TIP3   OH269951   3.024   4.881  15.649  0.2220  0.1098 -0.2599
16179TIP3    H169952   3.103   4.894  15.702  0.8554  1.2772 -1.4884
16179TIP3    H269953   3.056   4.840  15.568 -0.7658 -1.8180  0.2790
16180TIP3   OH269954   1.413   4.165  13.181 -0.4793  0.6086  0.2254
16180TIP3    H169955   1.434   4.137  13.092  2.3469  0.5037  0.9034
16180TIP3    H269956   1.424   4.086  13.234  0.3314  1.2662  1.0479
16181TIP3   OH269957   4.218   1.807   3.797  0.2187  0.0439  0.7470
16181TIP3    H169958   4.285   1.765   3.743  0.3307  0.5993  0.4536
16181TIP3    H269959   4.228   1.766   3.883  0.0205 -0.8643  0.3455
16182TIP3   OH269960   1.800   4.056  15.447  0.1310  0.0942 -0.4894
16182TIP3    H169961   1.890   4.058  15.480  0.5171  2.3667 -1.6270
16182TIP3    H269962   1.752   4.113  15.507 -0.4592 -0.6390 -0.2462
16183TIP3   OH269963   4.840   2.771  15.345  0.0474 -0.0841 -0.4669
16183TIP3    H169964   4.770   2.715  15.312  0.8659 -1.3072 -0.1663
16183TIP3    H269965   4.819   2.784  15.437 -0.8063  1.1398 -0.8203
16184TIP3   OH269966   6.098   5.598   0.344 -0.1846  0.1956 -0.3411
16184TIP3    H169967   6.138   5.624   0.261 -0.9932  0.2239 -0.7250
16184TIP3    H269968   6.171   5.593   0.406 -0.0199  3.6599 -0.1664
16185TIP3   OH269969   4.483   5.626  13.099 -0.9993  0.5130 -0.3555
16185TIP3    H169970   4.434   5.652  13.022 -3.4313  0.5481  1.1442
16185TIP3    H269971   4.530   5.547  13.072 -0.8604  1.2144 -2.2066
16186TIP3   OH269972   3.255   2.732  13.120  0.0840  0.3747  0.3175
16186TIP3    H169973   3.195   2.779  13.178 -1.7230  0.0378 -1.2188
16186TIP3    H269974   3.298   2.800  13.069  1.0081  0.6153  1.3931
16187TIP3   OH269975   5.825   5.268  12.512 -0.0479 -0.7749  0.3617
16187TIP3    H169976   5.821   5.344  12.455  1.6264 -1.9830 -1.4625
16187TIP3    H269977   5.857   5.302  12.595 -0.3238  0.6618 -0.1077
16188TIP3   OH269978   3.726   5.727  17.090  0.0175  0.9600 -0.0025
16188TIP3    H169979   3.676   5.716  17.170 -1.0324  2.2573 -0.4696
16188TIP3    H269980   3.660   5.747  17.023  0.7960 -0.7749 -1.3327
16189TIP3   OH269981   4.199   4.069   1.157  0.0446  0.6848 -0.3452
16189TIP3    H169982   4.185   4.044   1.066  0.4488  2.2513 -0.8502
16189TIP3    H269983   4.207   4.164   1.155  1.9111  0.5808  1.0798
16190TIP3   OH269984   2.732   3.387  16.872  0.5805  0.6499 -0.5345
16190TIP3    H169985   2.757   3.294  16.874 -0.5872  0.3525  1.7496
16190TIP3    H269986   2.670   3.394  16.800  0.1454 -0.4930 -0.2837
16191TIP3   OH269987   2.611   6.343  13.224  0.2455  0.1441 -0.0299
16191TIP3    H169988   2.599   6.359  13.317  0.4587 -1.5079  0.3091
16191TIP3    H269989   2.563   6.413  13.181 -1.7749 -0.3752  1.3225
16192TIP3   OH269990   5.641   4.888  12.628 -0.1416 -0.4068 -0.0550
16192TIP3    H169991   5.646   4.843  12.544  2.5840 -3.7416  1.7752
16192TIP3    H269992   5.548   4.900  12.644 -0.8459 -3.3097 -1.7498
16193TIP3   OH269993   0.494   0.457  13.039 -0.0795 -0.3913  0.4653
16193TIP3    H169994   0.515   0.446  13.132  0.3587 -0.2958  0.3814
16193TIP3    H269995   0.568   0.416  12.994  0.6041  1.1491  0.1491
16194TIP3   OH269996   0.741   3.391   6.398  0.4451 -0.6967  0.2372
16194TIP3    H169997   0.755   3.485   6.407 -0.7463 -0.6595  1.8625
16194TIP3    H269998   0.813   3.351   6.447 -0.5822 -0.5986  1.8296
16195TIP3   OH269999   4.925   0.447   3.708  0.1871 -0.0087 -0.4190
16195TIP3    H170000   4.951   0.408   3.624  2.2080 -0.1622  0.2625
16195TIP3    H270001   4.983   0.522   3.719  1.8811 -1.5897  2.1196
16196TIP3   OH270002   2.626   6.505  14.573  0.3873  0.0764  0.4406
16196TIP3    H170003   2.719   6.510  14.596  0.6703  1.6220 -0.9453
16196TIP3    H270004   2.624   6.460  14.489 -0.1216  0.0838  0.4455
16197TIP3   OH270005   2.807   4.988   3.869 -0.6133  0.0436  0.0015
16197TIP3    H170006   2.769   4.900   3.873  0.8149 -0.5863  0.2311
16197TIP3    H270007   2.803   5.020   3.959  0.5249 -0.5255  0.2626
16198TIP3   OH270008   5.741   3.003  11.205  0.0633 -0.1414 -0.6770
16198TIP3    H170009   5.735   2.992  11.300 -2.6005  0.2179 -0.7623
16198TIP3    H270010   5.798   3.079  11.194  0.9030 -0.5684  0.6196
16199TIP3   OH270011   0.492   5.950   5.026 -0.4413  0.3447 -0.0030
16199TIP3    H170012   0.544   5.936   4.947  0.4098  1.4308  0.3581
16199TIP3    H270013   0.554   5.935   5.098 -0.8269  0.8798  0.4415
16200TIP3   OH270014   3.910   5.123  12.543  0.7934  0.6177 -0.0916
16200TIP3    H170015   3.884   5.209  12.576  0.1757  0.5110 -0.2872
16200TIP3    H270016   3.985   5.098  12.596 -0.2958  0.3743  1.3599
16201TIP3   OH270017   1.223   3.622   2.784  0.0976  0.1508  0.4648
16201TIP3    H170018   1.205   3.562   2.856  2.4750  0.4083  1.2880
16201TIP3    H270019   1.149   3.683   2.785  0.1508  0.2050  2.7247
16202TIP3   OH270020   4.296   3.122   2.467  0.0663 -0.0323  0.4540
16202TIP3    H170021   4.276   3.201   2.518  0.6356  1.2808 -1.3156
16202TIP3    H270022   4.366   3.080   2.516 -0.6412  0.2296  1.7365
16203TIP3   OH270023   6.365   5.246   0.105 -0.0330  0.4100  0.0255
16203TIP3    H170024   6.293   5.279   0.052  0.3166  4.1880  1.7241
16203TIP3    H270025   6.443   5.286   0.067  0.6383  0.0456  0.9942
16204TIP3   OH270026   5.816   1.818   0.299  0.5664 -0.2094  0.3218
16204TIP3    H170027   5.765   1.749   0.341  0.5854  0.3901  1.3352
16204TIP3    H270028   5.807   1.894   0.357  1.4330  0.3219 -0.2277
16205TIP3   OH270029   0.112   5.649  14.989 -0.0424 -0.0693  0.1039
16205TIP3    H170030   0.157   5.606  15.062 -0.3771  1.5773  1.2973
16205TIP3    H270031   0.034   5.688  15.028 -1.1018 -0.5778 -1.4545
16206TIP3   OH270032   3.554   0.677  15.689 -0.1366  0.4081 -0.2310
16206TIP3    H170033   3.585   0.727  15.614 -0.2132 -0.6842 -1.0005
16206TIP3    H270034   3.499   0.609  15.652 -0.3869  0.0111  0.8371
16207TIP3   OH270035   5.145   1.267  10.920  0.0717 -0.1451 -0.1251
16207TIP3    H170036   5.137   1.349  10.969 -3.0969 -1.1695  1.1937
16207TIP3    H270037   5.086   1.278  10.846 -0.5554 -1.3193  0.1927
16208TIP3   OH270038   5.190   0.821  15.918  0.1627 -0.0061  0.0365
16208TIP3    H170039   5.135   0.848  15.991 -1.4490  1.0700 -1.5232
16208TIP3    H270040   5.257   0.889  15.911  2.1492 -1.6353  2.3251
16209TIP3   OH270041   6.582   5.630   2.860  0.3087  0.0704  0.7307
16209TIP3    H170042   6.588   5.586   2.775  1.8096  0.0713  0.8268
16209TIP3    H270043   6.641   5.705   2.852  0.2253  0.2362  1.6749
16210TIP3   OH270044   0.341   3.489   4.216  0.0408  0.2249 -0.0797
16210TIP3    H170045   0.363   3.574   4.176 -0.3924  1.0139  1.3165
16210TIP3    H270046   0.396   3.485   4.295 -0.4537 -0.4877  0.2321
16211TIP3   OH270047   5.994   5.381   4.017  0.6547 -0.1036  0.5800
16211TIP3    H170048   6.080   5.347   3.992  0.0287 -1.9361  0.8595
16211TIP3    H270049   5.937   5.363   3.942  0.1270 -0.3761  1.0404
16212TIP3   OH270050   6.657   5.441  15.146  0.0245  0.0726  0.2300
16212TIP3    H170051   6.749   5.418  15.134 -0.1414  0.0590 -1.0632
16212TIP3    H270052   6.644   5.518  15.090 -1.0351 -0.6414 -0.5214
16213TIP3   OH270053   0.737   6.157  11.940  0.7781 -0.1623 -0.0870
16213TIP3    H170054   0.731   6.199  12.026  1.6955 -0.8250  0.3137
16213TIP3    H270055   0.824   6.180  11.908  1.2531 -1.6607  0.0987
16214TIP3   OH270056   2.759   0.478   5.157 -0.1128  0.7781  0.5532
16214TIP3    H170057   2.840   0.488   5.106 -1.3042 -0.9409 -1.7501
16214TIP3    H270058   2.689   0.502   5.096 -1.4100  1.7315  2.3520
16215TIP3   OH270059   0.526   2.157  13.814  0.2782  0.0686 -0.2743
16215TIP3    H170060   0.490   2.169  13.902  2.3656  1.5325  0.4140
16215TIP3    H270061   0.476   2.084  13.778 -0.1244 -1.0452  2.4077
16216TIP3   OH270062   1.288   3.717   2.516 -0.1250  0.1820 -0.3542
16216TIP3    H170063   1.242   3.655   2.573 -0.3947 -0.0933 -0.8747
16216TIP3    H270064   1.332   3.777   2.577 -2.2668  1.2968  0.1483
16217TIP3   OH270065   0.329   3.013   6.176 -0.0621  0.1894  0.4687
16217TIP3    H170066   0.344   3.043   6.266 -1.6830 -0.5465  0.9988
16217TIP3    H270067   0.355   2.921   6.177  0.7264  0.4047 -0.0393
16218TIP3   OH270068   0.034   1.581   0.314 -0.3607 -0.4509  0.1408
16218TIP3    H170069  -0.044   1.548   0.270  0.4091 -1.9723 -0.0775
16218TIP3    H270070   0.107   1.558   0.257  0.2998  0.7010  0.4886
16219TIP3   OH270071   4.220   1.540  12.275  0.0829 -0.2303 -0.0312
16219TIP3    H170072   4.266   1.624  12.281  1.2157 -0.6442 -2.6267
16219TIP3    H270073   4.127   1.564  12.277  0.3854  1.1777 -1.8471
16220TIP3   OH270074   3.470   6.167   3.110 -0.6913 -0.3533  0.4906
16220TIP3    H170075   3.376   6.151   3.119 -0.3900 -1.2141  2.3110
16220TIP3    H270076   3.511   6.086   3.140  0.6732  0.5206  1.0037
16221TIP3   OH270077   1.340   3.506   3.056 -0.1248 -0.4294  0.5450
16221TIP3    H170078   1.358   3.597   3.077 -0.6294 -0.2462  0.1861
16221TIP3    H270079   1.328   3.463   3.141  1.2282 -0.3937  0.7586
16222TIP3   OH270080   6.535   4.087   1.846  0.0871  0.3213 -0.1455
16222TIP3    H170081   6.509   4.050   1.762 -2.4496  1.2620  0.1758
16222TIP3    H270082   6.626   4.115   1.832  0.4389 -1.5536 -1.8608
16223TIP3   OH270083   5.572   3.717  14.359 -0.1048 -0.5694 -0.6852
16223TIP3    H170084   5.633   3.650  14.390  0.7328 -0.1108 -1.3141
16223TIP3    H270085   5.493   3.705  14.412  0.5145 -1.1989  0.0941
16224TIP3   OH270086   1.550   3.640  17.174 -0.1232 -0.2796 -0.1889
16224TIP3    H170087   1.519   3.670  17.259 -0.1794 -1.8184  0.3501
16224TIP3    H270088   1.646   3.643  17.180 -0.1212 -0.7783  0.0857
16225TIP3   OH270089   0.822   4.470  10.639  0.5535  0.4003  0.0235
16225TIP3    H170090   0.735   4.454  10.674  1.0995 -0.2814  1.1072
16225TIP3    H270091   0.844   4.559  10.666 -0.1778  0.9105 -1.0518
16226TIP3   OH270092   1.217   1.729  12.566  0.1709  0.3011  0.0560
16226TIP3    H170093   1.141   1.775  12.531 -0.2950 -0.9174 -0.5451
16226TIP3    H270094   1.271   1.799  12.605 -1.4358  1.1384  0.8635
16227TIP3   OH270095   2.388   3.265   3.175  0.9099 -0.2062 -0.0909
16227TIP3    H170096   2.384   3.310   3.259 -1.3493 -1.3772  0.4933
16227TIP3    H270097   2.451   3.194   3.188  0.1318 -0.7520  0.8529
16228TIP3   OH270098   1.657   5.135   3.160 -0.0487 -0.0071 -0.7996
16228TIP3    H170099   1.747   5.106   3.146  0.7164  2.4211 -1.0601
16228TIP3    H270100   1.636   5.187   3.083 -0.8900  1.2892  0.2915
16229TIP3   OH270101   2.397   3.527   5.501 -0.3961  0.5654  0.0276
16229TIP3    H170102   2.319   3.518   5.557 -1.6993  0.7363 -1.7152
16229TIP3    H270103   2.399   3.620   5.478  0.0515  0.4744 -0.3040
16230TIP3   OH270104   0.314   3.886   1.445  0.2405  0.4243 -0.4266
16230TIP3    H170105   0.296   3.793   1.456 -0.5375  0.7328  1.0919
16230TIP3    H270106   0.345   3.895   1.355 -1.6225 -1.0222 -1.2324
16231TIP3   OH270107   4.945   5.185   1.055 -0.1831  0.4716 -0.6586
16231TIP3    H170108   5.018   5.124   1.065 -0.2161  0.4999 -0.2495
16231TIP3    H270109   4.957   5.223   0.968 -1.8361 -2.3263 -2.1869
16232TIP3   OH270110   6.465   0.909   4.916 -0.2959 -0.5657 -0.5679
16232TIP3    H170111   6.479   0.989   4.865  0.6965 -0.9140 -0.8556
16232TIP3    H270112   6.429   0.940   4.999  1.5237  0.3422 -0.0761
16233TIP3   OH270113   3.155   3.223   5.325  0.0328 -0.6321 -0.1468
16233TIP3    H170114   3.148   3.313   5.356 -1.3234 -1.0282  0.7146
16233TIP3    H270115   3.241   3.219   5.283 -0.5614  1.5071 -1.6680
16234TIP3   OH270116   0.927   0.592  11.169 -0.3895 -0.3151  0.4841
16234TIP3    H170117   0.881   0.666  11.131 -2.2704 -1.8684 -0.3606
16234TIP3    H270118   0.894   0.587  11.259 -3.2325 -2.3787 -0.5668
16235TIP3   OH270119   0.774   6.300  13.355  0.2093 -0.5548  0.1470
16235TIP3    H170120   0.825   6.381  13.352 -0.4179 -0.1986 -1.2634
16235TIP3    H270121   0.696   6.322  13.405 -0.0220 -0.2380 -0.3472
16236TIP3   OH270122   6.768   0.824   2.753 -0.4830  0.3207  0.2611
16236TIP3    H170123   6.803   0.862   2.673 -0.0301 -1.3021 -0.3282
16236TIP3    H270124   6.719   0.896   2.794 -0.1007  1.3706 -1.0782
16237TIP3   OH270125   5.927   1.833  16.460 -0.0944 -0.5925  0.2896
16237TIP3    H170126   6.014   1.872  16.450  0.0549 -1.0811 -0.3392
16237TIP3    H270127   5.876   1.899  16.507  0.7255 -0.4587  1.0045
16238TIP3   OH270128   0.385   2.114  11.425 -0.2844  0.5824  0.0196
16238TIP3    H170129   0.410   2.175  11.355 -0.9624  1.7092  0.7452
16238TIP3    H270130   0.467   2.100  11.474  0.1211  0.0347 -0.7985
16239TIP3   OH270131   3.962   1.012   3.654 -0.0774 -0.7276  0.7193
16239TIP3    H170132   3.912   1.093   3.667  0.4168 -0.3915  0.5352
16239TIP3    H270133   3.995   0.990   3.741  1.8273  0.6045  0.3510
16240TIP3   OH270134   1.767   4.681   1.634 -0.5321  0.3504 -0.2817
16240TIP3    H170135   1.744   4.769   1.665 -0.7664 -0.4354  1.9205
16240TIP3    H270136   1.827   4.696   1.561 -0.0532  2.3368  0.4676
16241TIP3   OH270137   3.313   5.305  12.499 -0.0916 -0.1001  0.0884
16241TIP3    H170138   3.306   5.380  12.558  1.8155  0.4840 -0.3937
16241TIP3    H270139   3.330   5.231  12.556  3.4153  0.7277  0.1988
16242TIP3   OH270140   3.245   5.219   4.451  0.2365  0.0535  0.2166
16242TIP3    H170141   3.186   5.172   4.392 -0.8341  0.2891  1.0682
16242TIP3    H270142   3.289   5.150   4.501 -0.9289 -0.0827  1.0836
16243TIP3   OH270143   3.587   6.456  13.564  0.3676 -0.0716 -0.0167
16243TIP3    H170144   3.538   6.476  13.484 -0.2050 -1.5340 -0.0378
16243TIP3    H270145   3.524   6.472  13.635  0.9281  1.3986  0.1784
16244TIP3   OH270146   2.808   4.835   4.183 -0.0534 -0.0416  0.1642
16244TIP3    H170147   2.820   4.920   4.141 -1.5822  0.5196  0.7997
16244TIP3    H270148   2.885   4.823   4.239 -0.8636  1.9583  1.7674
16245TIP3   OH270149   1.479   5.641   0.791 -0.2469 -0.1008  0.4757
16245TIP3    H170150   1.562   5.629   0.745  0.5334  0.5982  1.6738
16245TIP3    H270151   1.452   5.730   0.766  0.0417  0.1760  1.1221
16246TIP3   OH270152   5.007   2.758  15.850  0.1215 -0.4608 -0.0486
16246TIP3    H170153   5.102   2.749  15.849  0.0386 -1.2434 -1.1391
16246TIP3    H270154   4.989   2.833  15.794  0.2140  1.0167  1.8387
16247TIP3   OH270155   2.831   3.241   5.070  0.3999 -0.0683 -0.4122
16247TIP3    H170156   2.745   3.257   5.032 -0.0311  1.4304  1.1579
16247TIP3    H270157   2.822   3.157   5.115 -0.2656  0.0962 -0.2291
16248TIP3   OH270158   4.280   5.528   5.346 -0.3204 -0.6204  0.3140
16248TIP3    H170159   4.214   5.464   5.370  0.4990 -0.4781  3.1871
16248TIP3    H270160   4.277   5.593   5.417  1.5711  0.3807 -0.4755
16249TIP3   OH270161   4.026   0.527   5.050  0.3537  0.1007  0.3454
16249TIP3    H170162   3.982   0.533   4.965  1.9422 -1.5018 -0.6273
16249TIP3    H270163   4.079   0.607   5.054 -0.7734  0.8526  0.4542
16250TIP3   OH270164   0.821   2.740   1.013  0.1113 -0.6204  0.3861
16250TIP3    H170165   0.833   2.690   0.931 -0.1271  0.2419 -0.1808
16250TIP3    H270166   0.910   2.756   1.045  0.2331 -0.3343 -0.0904
16251TIP3   OH270167   4.233   5.444  12.803  0.0249  0.7684 -0.2799
16251TIP3    H170168   4.250   5.357  12.839 -0.0788  0.1592 -1.6672
16251TIP3    H270169   4.201   5.495  12.878 -0.9356 -0.6734  0.3205
16252TIP3   OH270170   2.773   2.591  14.239  0.1418 -0.3931 -0.6316
16252TIP3    H170171   2.722   2.513  14.260  1.0753 -1.5401 -2.4688
16252TIP3    H270172   2.716   2.664  14.263 -0.7811 -1.6180  1.0368
16253TIP3   OH270173   5.414   5.328  13.769 -0.2560 -0.0667 -0.1588
16253TIP3    H170174   5.325   5.360  13.779  0.3631  1.8729 -0.5576
16253TIP3    H270175   5.429   5.329  13.674 -0.3394 -1.9223 -0.2069
16254TIP3   OH270176   5.654   4.450  15.026  0.1154  0.5075 -0.1199
16254TIP3    H170177   5.697   4.463  15.111  1.4181  3.4909 -1.2062
16254TIP3    H270178   5.725   4.440  14.964 -0.8115  1.1670 -1.2959
16255TIP3   OH270179   5.253   0.711   4.151  0.1005  0.5641  0.4958
16255TIP3    H170180   5.280   0.637   4.098  1.3541  0.2022  1.6222
16255TIP3    H270181   5.162   0.692   4.176 -0.1234  0.2135 -0.5664
16256TIP3   OH270182   6.656   3.903  17.151 -0.0723  0.5901 -0.2172
16256TIP3    H170183   6.717   3.962  17.193 -1.6290  1.9473  0.1990
16256TIP3    H270184   6.629   3.842  17.220 -0.0616  0.6940 -0.1210
16257TIP3   OH270185   0.587   5.505  15.397  0.0672  0.0624 -0.4643
16257TIP3    H170186   0.536   5.427  15.419 -0.0736 -0.3751 -2.2650
16257TIP3    H270187   0.674   5.488  15.434 -0.3227 -0.3630  0.2832
16258TIP3   OH270188   6.429   2.350  11.574 -0.2823  0.2023  0.1783
16258TIP3    H170189   6.510   2.372  11.620 -0.9440  0.0701  1.4277
16258TIP3    H270190   6.432   2.255  11.565  0.4954  0.3572 -1.2894
16259TIP3   OH270191   3.892   0.348  16.089 -0.0613 -0.0679  0.1309
16259TIP3    H170192   3.871   0.309  16.004 -0.3097  1.7646 -0.6741
16259TIP3    H270193   3.954   0.418  16.067  0.4515 -0.0745  1.5559
16260TIP3   OH270194   3.917   3.666  16.733  0.0458 -0.0164  0.4612
16260TIP3    H170195   3.972   3.707  16.667 -1.4252 -0.3977 -1.0329
16260TIP3    H270196   3.832   3.708  16.724 -0.4527 -0.7759  1.4349
16261TIP3   OH270197   3.965   2.108  15.162 -0.4482  0.2826 -0.1661
16261TIP3    H170198   4.033   2.070  15.217 -0.1354  0.4507 -0.4301
16261TIP3    H270199   3.922   2.172  15.218 -1.2699 -0.7762  0.4177
16262TIP3   OH270200   4.435   0.732  15.112  0.1194  0.5518  0.3053
16262TIP3    H170201   4.489   0.707  15.186  1.4690  2.1107 -0.1112
16262TIP3    H270202   4.393   0.651  15.083  2.4130 -0.7293  0.4919
16263TIP3   OH270203   4.630   6.521  13.823  0.0609 -0.2164  0.1287
16263TIP3    H170204   4.705   6.490  13.874  1.1186  0.4092 -1.0001
16263TIP3    H270205   4.645   6.485  13.735 -0.1787  1.1192 -0.4758
16264TIP3   OH270206   4.032   6.650   4.652  0.1707 -0.1935  0.2720
16264TIP3    H170207   4.093   6.715   4.616 -0.8402  2.6967  3.4942
16264TIP3    H270208   3.965   6.640   4.585  1.3238  0.6608 -1.0487
16265TIP3   OH270209   1.666   3.630   4.139 -0.5067 -0.3362  0.0938
16265TIP3    H170210   1.691   3.715   4.104 -0.8813 -1.3710 -2.7542
16265TIP3    H270211   1.579   3.614   4.103 -1.0205 -1.3433  1.7071
16266TIP3   OH270212   2.268   3.621  16.192 -0.4259 -0.5516 -0.0318
16266TIP3    H170213   2.353   3.616  16.150 -0.7569 -0.4336 -0.7108
16266TIP3    H270214   2.254   3.714  16.209 -0.7320 -0.5017 -0.5577
16267TIP3   OH270215   5.470   6.655  12.423 -0.0386  0.1806 -0.4553
16267TIP3    H170216   5.470   6.671  12.518 -2.1401 -1.0183 -0.2235
16267TIP3    H270217   5.428   6.733  12.386 -1.7315 -0.5479 -0.1320
16268TIP3   OH270218   3.629   5.464   6.988 -0.4761 -0.3161 -0.0140
16268TIP3    H170219   3.694   5.509   7.042 -0.6814  2.3191 -1.8271
16268TIP3    H270220   3.663   5.473   6.899 -2.7469  0.1421 -0.8771
16269TIP3   OH270221   3.169   1.276  13.541  0.2872 -0.2676  0.2940
16269TIP3    H170222   3.253   1.230  13.543 -0.5245 -2.2222 -3.9281
16269TIP3    H270223   3.178   1.340  13.469 -1.7925 -0.4780 -0.2018
16270TIP3   OH270224   4.912   1.182   2.440  0.2695  0.5709 -0.3436
16270TIP3    H170225   4.998   1.223   2.450  1.0391 -0.5184 -2.2194
16270TIP3    H270226   4.903   1.169   2.346 -0.8448 -1.6826  0.0600
16271TIP3   OH270227   4.352   1.793  16.064  0.1924  0.4410 -0.3499
16271TIP3    H170228   4.334   1.879  16.103 -0.5060  0.0911  0.1060
16271TIP3    H270229   4.341   1.807  15.970 -2.5814  0.2213 -0.0781
16272TIP3   OH270230   3.733   0.370  17.235 -0.0643  0.5823  0.2065
16272TIP3    H170231   3.750   0.309  17.308 -0.3837 -0.7860 -0.8481
16272TIP3    H270232   3.814   0.368  17.184 -0.5159  0.0899 -0.5004
16273TIP3   OH270233   3.706   3.271  16.025 -0.8795  0.3039  0.2775
16273TIP3    H170234   3.707   3.191  16.078 -0.6590  0.8992  1.1659
16273TIP3    H270235   3.613   3.295  16.021 -0.7849  0.8289  1.2442
16274TIP3   OH270236   5.054   2.795  14.393 -0.6429 -0.5424  0.4514
16274TIP3    H170237   4.987   2.862  14.376 -0.6384 -0.4136  0.9480
16274TIP3    H270238   5.012   2.713  14.367 -0.9135 -0.4353  0.5465
16275TIP3   OH270239   4.601   4.513   3.777 -0.2406  0.3620  0.2035
16275TIP3    H170240   4.563   4.491   3.862  3.7398 -0.7363  1.8153
16275TIP3    H270241   4.588   4.608   3.769  1.5581  0.9477  3.2918
16276TIP3   OH270242   4.692   2.594  10.126  0.4347  0.1190 -0.1745
16276TIP3    H170243   4.614   2.581  10.072  1.0778  0.3758 -1.1812
16276TIP3    H270244   4.660   2.639  10.205 -0.8483 -2.1800  0.6413
16277TIP3   OH270245   3.807   6.653  14.916  0.0276 -0.7868 -0.1221
16277TIP3    H170246   3.881   6.594  14.908 -0.7297 -1.7128 -0.3628
16277TIP3    H270247   3.804   6.699  14.832  1.7092  0.9141  0.7127
16278TIP3   OH270248   2.052   2.095  11.668  0.5861  0.3689  0.3396
16278TIP3    H170249   1.994   2.077  11.742  0.9227 -0.1776  0.4790
16278TIP3    H270250   2.125   2.033  11.680  2.6711  2.9897  1.8309
16279TIP3   OH270251   1.162   1.195   1.452 -0.4029  0.2912  0.3801
16279TIP3    H170252   1.235   1.162   1.400  0.0590 -0.1639  1.3228
16279TIP3    H270253   1.117   1.256   1.393 -0.5142 -1.0159 -0.9373
16280TIP3   OH270254   3.636   5.013  14.840 -0.2783  0.0739 -0.0345
16280TIP3    H170255   3.715   5.067  14.838  0.6710 -1.2218  1.4734
16280TIP3    H270256   3.639   4.963  14.758  0.9774 -0.6358  0.4193
16281TIP3   OH270257   2.645   5.387   2.085  0.1019  0.2980  0.5077
16281TIP3    H170258   2.590   5.462   2.109  1.3162  1.6935 -0.9939
16281TIP3    H270259   2.583   5.317   2.068 -1.2357  1.7462 -0.7929
16282TIP3   OH270260   5.999   3.345   2.856  0.3584 -0.4590  0.2413
16282TIP3    H170261   6.059   3.298   2.913  0.9467 -0.3568 -0.2827
16282TIP3    H270262   5.973   3.422   2.907 -0.1462 -1.0362  0.8668
16283TIP3   OH270263   3.816   2.886   2.465  0.3736  0.6900 -0.5617
16283TIP3    H170264   3.908   2.911   2.455  0.7245  0.3164  1.5374
16283TIP3    H270265   3.818   2.809   2.522 -1.2783  0.9891 -0.0738
16284TIP3   OH270266   4.482   2.666  10.319 -0.2424  0.7976 -0.1878
16284TIP3    H170267   4.452   2.719  10.393  2.1008  2.0688 -0.0884
16284TIP3    H270268   4.408   2.665  10.258 -1.7882  0.7050  1.6308
16285TIP3   OH270269   2.858   1.648   5.733  0.0512 -0.2950  0.6382
16285TIP3    H170270   2.888   1.739   5.743  2.2233 -0.8353 -0.6391
16285TIP3    H270271   2.763   1.653   5.746 -0.2287  2.5747 -1.8642
16286TIP3   OH270272   2.979   1.924  16.935 -0.2490  0.5358  0.3952
16286TIP3    H170273   2.905   1.865  16.947  0.0425 -0.3707 -2.0310
16286TIP3    H270274   3.036   1.906  17.010 -0.2804 -2.1179 -0.1706
16287TIP3   OH270275   4.570   0.990  10.670 -0.2971 -0.1238 -0.0209
16287TIP3    H170276   4.497   0.945  10.627 -1.0516  0.4701  0.6264
16287TIP3    H270277   4.569   0.956  10.760 -0.3439  0.5535  0.2346
16288TIP3   OH270278   3.457   6.409   0.972  0.3821 -0.1656  0.2252
16288TIP3    H170279   3.532   6.362   1.006  0.8063  0.2396 -0.1454
16288TIP3    H270280   3.381   6.362   1.006  0.8004 -0.0261  1.3691
16289TIP3   OH270281   0.948   5.013  14.516  0.7070  0.2308 -0.1898
16289TIP3    H170282   0.985   4.963  14.588 -0.5539  0.4943  0.6562
16289TIP3    H270283   0.864   4.971  14.499  0.2457  1.2202 -0.3748
16290TIP3   OH270284   6.712   6.525   4.313 -0.3667  0.1573 -0.3759
16290TIP3    H170285   6.623   6.553   4.294 -0.1732  0.1702 -1.3231
16290TIP3    H270286   6.742   6.585   4.382 -1.2617 -0.1883  0.3276
16291TIP3   OH270287   3.773   0.550  15.835  0.0400 -0.3351  0.1504
16291TIP3    H170288   3.701   0.573  15.777 -0.4310  0.7580  1.1531
16291TIP3    H270289   3.768   0.455  15.844 -0.5414 -0.3869 -0.7253
16292TIP3   OH270290   2.639   2.661   2.883 -0.2681 -0.2701  0.1863
16292TIP3    H170291   2.572   2.729   2.878  1.5029  1.6190  1.0956
16292TIP3    H270292   2.606   2.600   2.949 -0.9601  0.8223  0.8694
16293TIP3   OH270293   4.210   3.563  12.275  1.2304 -0.4108 -0.4587
16293TIP3    H170294   4.213   3.473  12.309 -0.9054 -0.8209 -1.2744
16293TIP3    H270295   4.132   3.601  12.315  1.9681  1.0316 -0.3347
16294TIP3   OH270296   2.442   5.504   3.144  0.0230 -0.1789 -0.4273
16294TIP3    H170297   2.482   5.491   3.058  0.3507 -1.4195 -0.1025
16294TIP3    H270298   2.471   5.428   3.195 -0.4621  0.3618  0.6666
16295TIP3   OH270299   4.604   1.840   0.062 -0.0406  0.4886  0.0031
16295TIP3    H170300   4.554   1.765   0.031  0.9258 -0.3041  0.3274
16295TIP3    H270301   4.614   1.896  -0.015 -0.7791  0.2886 -0.2351
16296TIP3   OH270302   3.056   5.757  12.890  0.4552 -0.0115 -0.2341
16296TIP3    H170303   3.112   5.773  12.814  2.0220 -0.2066  0.8568
16296TIP3    H270304   3.099   5.803  12.962 -1.3071  0.6269  0.4394
16297TIP3   OH270305   5.455   4.348  11.890  0.2294  0.3041  0.1856
16297TIP3    H170306   5.467   4.325  11.798  0.1969 -2.2762  0.7943
16297TIP3    H270307   5.374   4.399  11.891 -0.6080 -0.9495 -1.0206
16298TIP3   OH270308   6.766   1.500  13.024 -0.2768  0.2735 -0.6121
16298TIP3    H170309   6.734   1.419  13.063  3.5747 -0.1633  1.9108
16298TIP3    H270310   6.750   1.567  13.090 -0.3092  0.9045 -1.2544
16299TIP3   OH270311   0.037   3.265   3.273  0.9937  0.3557  0.4429
16299TIP3    H170312  -0.004   3.190   3.229  2.1859 -0.2387  0.3162
16299TIP3    H270313  -0.007   3.270   3.357  1.3185 -0.8833  0.7012
16300TIP3   OH270314   1.375   5.581   3.480  0.2664  0.1251 -0.0301
16300TIP3    H170315   1.444   5.646   3.479 -0.8455  1.3239 -0.0643
16300TIP3    H270316   1.300   5.625   3.520 -0.4022 -1.2345  0.2638
16301TIP3   OH270317   3.138   3.845   4.490  0.0493 -0.5604 -0.2927
16301TIP3    H170318   3.180   3.761   4.471 -0.4138 -0.7478 -0.5147
16301TIP3    H270319   3.083   3.829   4.567  0.1453 -0.4002 -0.1896
16302TIP3   OH270320   5.461   3.016   3.694  0.4862 -0.8327 -0.4029
16302TIP3    H170321   5.374   3.048   3.673  0.8890 -0.8531 -2.1906
16302TIP3    H270322   5.513   3.034   3.615  2.2759 -0.1705  0.8775
16303TIP3   OH270323   2.806   0.850  15.031  0.0644 -0.1395 -0.6607
16303TIP3    H170324   2.879   0.900  15.068 -0.3886 -1.3825  2.0122
16303TIP3    H270325   2.837   0.760  15.027 -0.9123 -0.4835 -0.6602
16304TIP3   OH270326   1.911   3.539  13.019  0.3742 -0.5170 -0.0936
16304TIP3    H170327   1.963   3.603  13.066  1.9515 -0.9340 -1.2530
16304TIP3    H270328   1.825   3.580  13.009  1.0281  0.9289  0.1776
16305TIP3   OH270329   5.684   6.761  15.345  0.6854 -0.8579  0.3370
16305TIP3    H170330   5.697   6.836  15.288  1.8719 -0.6972  0.7981
16305TIP3    H270331   5.663   6.689  15.285 -2.3173  0.2317  0.0399
16306TIP3   OH270332   1.216   5.331   1.647  0.2037  0.0155  0.5647
16306TIP3    H170333   1.235   5.421   1.675 -1.0446  1.2049 -2.2299
16306TIP3    H270334   1.177   5.290   1.724  2.8971  1.1195  2.6142
16307TIP3   OH270335   4.636   6.668   5.038  1.0041 -0.7298 -0.5243
16307TIP3    H170336   4.678   6.680   5.123  1.4870 -1.5987 -0.6279
16307TIP3    H270337   4.656   6.748   4.989 -0.3191  0.3031  0.6089
16308TIP3   OH270338   3.250   5.912  12.695 -0.5525  0.4063 -0.4086
16308TIP3    H170339   3.328   5.858  12.684 -1.1986 -0.8385  0.9304
16308TIP3    H270340   3.249   5.968  12.618  1.4504  0.1797 -0.6294
16309TIP3   OH270341   1.043   6.573  15.124 -0.1664  0.8422 -0.2292
16309TIP3    H170342   1.067   6.636  15.192  0.9633  0.8590 -0.6279
16309TIP3    H270343   1.124   6.526  15.106 -1.6919 -3.0411  2.4178
16310TIP3   OH270344   4.729   3.061   5.087 -0.0111 -0.5975  0.2457
16310TIP3    H170345   4.680   2.982   5.068  0.1815 -0.3574 -1.3353
16310TIP3    H270346   4.683   3.102   5.160 -0.1494 -2.1194  1.0108
16311TIP3   OH270347   3.259   6.704  11.912  0.3965  0.2224  0.0863
16311TIP3    H170348   3.258   6.612  11.886  1.2324  0.0716  0.5595
16311TIP3    H270349   3.323   6.744  11.853  1.3470  0.1383  1.0529
16312TIP3   OH270350   6.569   6.203   1.948 -0.5097  0.0955  0.0487
16312TIP3    H170351   6.612   6.279   1.988 -0.5789 -0.5003  1.2989
16312TIP3    H270352   6.582   6.215   1.854  0.8637  0.8426  0.3104
16313TIP3   OH270353   0.802   4.816  14.916  0.7171 -0.4107  0.4111
16313TIP3    H170354   0.815   4.730  14.956  1.0652 -1.6192 -2.1681
16313TIP3    H270355   0.888   4.840  14.882  0.7245  1.2013  1.5203
16314TIP3   OH270356   0.409   5.911   3.315 -0.7090  0.2376  0.2379
16314TIP3    H170357   0.472   5.862   3.262  0.1307 -0.5762  1.9251
16314TIP3    H270358   0.328   5.861   3.310 -0.2832 -0.5057  0.7138
16315TIP3   OH270359   3.587   2.606   1.851 -0.9108 -0.2557  0.3075
16315TIP3    H170360   3.502   2.567   1.871 -1.1206 -0.5694 -1.1253
16315TIP3    H270361   3.574   2.649   1.767 -0.0220  0.8846  0.7477
16316TIP3   OH270362   0.100   0.767   5.453  0.2337 -0.0285 -0.1949
16316TIP3    H170363   0.063   0.727   5.532  0.3600 -0.7176 -0.4806
16316TIP3    H270364   0.083   0.861   5.463 -0.1358 -0.1620  0.4453
16317TIP3   OH270365   0.342   2.461  13.418  0.3472 -0.4445  0.4949
16317TIP3    H170366   0.343   2.366  13.425 -1.5468 -0.5418 -0.3695
16317TIP3    H270367   0.315   2.492  13.505 -0.6735 -0.7616  0.2912
16318TIP3   OH270368   0.856   5.445  16.184 -0.4680  0.1893  0.1200
16318TIP3    H170369   0.808   5.449  16.267 -1.8209  1.5317 -0.7051
16318TIP3    H270370   0.805   5.385  16.130  1.0256 -1.5807  0.6063
16319TIP3   OH270371   4.778   2.285  11.279  0.1635  0.2137  0.0127
16319TIP3    H170372   4.827   2.264  11.200  2.2407 -0.9125  1.5522
16319TIP3    H270373   4.740   2.371  11.262  1.8115  0.6405 -1.6541
16320TIP3   OH270374   3.972   2.099  13.993  0.3696 -0.0534  0.5712
16320TIP3    H170375   3.906   2.111  14.062 -1.8251  2.6090 -1.8712
16320TIP3    H270376   4.007   2.187  13.979 -0.2032 -0.2970 -2.6461
16321TIP3   OH270377   1.308   3.752   4.209  0.6979  0.3070  0.1799
16321TIP3    H170378   1.348   3.754   4.296  1.6285 -0.7598 -0.2115
16321TIP3    H270379   1.344   3.673   4.168 -0.9703 -0.0583 -0.5957
16322TIP3   OH270380   3.677   1.234   0.526 -0.3832 -0.0682  0.2713
16322TIP3    H170381   3.709   1.206   0.611 -0.2277 -1.6153 -0.2761
16322TIP3    H270382   3.680   1.330   0.529 -1.4827 -0.0809  2.4104
16323TIP3   OH270383   1.128   3.217  15.738 -0.0229 -0.1674 -0.3002
16323TIP3    H170384   1.065   3.287  15.723 -0.2781  0.1112  1.9839
16323TIP3    H270385   1.079   3.137  15.718 -0.5780  0.1401 -0.1966
16324TIP3   OH270386   0.491   0.289   3.439 -0.8432 -0.4763  0.3222
16324TIP3    H170387   0.425   0.231   3.478  0.2460 -0.4410  2.2671
16324TIP3    H270388   0.450   0.376   3.440 -0.3370 -0.2552  2.5842
16325TIP3   OH270389   3.387   5.752   0.303 -0.2191 -0.1491 -0.1177
16325TIP3    H170390   3.394   5.844   0.276  2.2723 -0.3552 -0.3289
16325TIP3    H270391   3.452   5.743   0.373 -0.7162 -1.6724  0.1626
16326TIP3   OH270392   1.329   1.751  15.453 -0.0511 -0.0365 -0.8361
16326TIP3    H170393   1.267   1.804  15.503  0.0703  0.0859 -0.8143
16326TIP3    H270394   1.404   1.809  15.439  0.5585 -0.5657  0.1650
16327TIP3   OH270395   5.060   1.566  10.895 -0.6622 -0.7883 -0.0340
16327TIP3    H170396   5.055   1.546  10.801 -1.0250  1.2684 -0.4886
16327TIP3    H270397   5.153   1.583  10.911 -0.6333 -0.9058 -0.0816
16328TIP3   OH270398   1.939   2.760   5.068 -0.0872 -0.4333  0.0587
16328TIP3    H170399   1.977   2.672   5.058 -0.5990 -0.4376 -2.2132
16328TIP3    H270400   2.007   2.811   5.111  1.3330 -1.2213 -1.2000
16329TIP3   OH270401   6.449   5.618   4.868  0.9681 -0.1305  0.0079
16329TIP3    H170402   6.373   5.630   4.811  0.3262  1.1060  1.0701
16329TIP3    H270403   6.456   5.702   4.915  1.5910 -1.0421  1.5730
16330TIP3   OH270404   1.620   6.632  16.328  0.3230 -0.3187 -0.0629
16330TIP3    H170405   1.707   6.669  16.312  0.8005 -1.3604  0.0739
16330TIP3    H270406   1.597   6.662  16.416  1.0262 -0.9551  0.3410
16331TIP3   OH270407   3.195   6.370   0.583 -0.4032  0.0130 -0.1064
16331TIP3    H170408   3.258   6.435   0.616 -0.4590  0.4803 -0.9111
16331TIP3    H270409   3.111   6.398   0.620 -0.1614 -0.5807  0.9245
16332TIP3   OH270410   5.259   4.735  15.051  0.1338 -0.0349  0.3144
16332TIP3    H170411   5.316   4.783  15.111 -1.0240 -0.1292  1.4993
16332TIP3    H270412   5.226   4.801  14.990 -1.4986  0.7261  1.9737
16333TIP3   OH270413   0.937   4.001  12.482  0.2560 -0.0932  0.0585
16333TIP3    H170414   0.941   4.091  12.515  0.2699  0.6227 -1.8208
16333TIP3    H270415   0.866   3.960  12.531  0.0929  1.0241  0.7573
16334TIP3   OH270416   2.364   0.721   0.775 -0.5813  0.1721 -0.0299
16334TIP3    H170417   2.387   0.630   0.756 -0.1989  0.0118  1.1480
16334TIP3    H270418   2.407   0.771   0.706  1.6564 -0.3056  0.9526
16335TIP3   OH270419   3.992   1.856  12.928 -0.6765  1.1384 -0.1889
16335TIP3    H170420   4.051   1.810  12.989 -2.8179  1.2448  2.0769
16335TIP3    H270421   4.047   1.922  12.887  1.3405 -0.3142  0.0628
16336TIP3   OH270422   0.980   3.750  12.305  0.3744 -0.0092  0.1364
16336TIP3    H170423   0.982   3.844  12.319  0.8715  0.0683 -0.4279
16336TIP3    H270424   1.055   3.717  12.354  1.0795  0.0610 -0.8949
16337TIP3   OH270425   2.409   5.962   0.924  0.1761  0.1755  0.2555
16337TIP3    H170426   2.331   5.965   0.869  0.9284 -2.0856 -0.9499
16337TIP3    H270427   2.470   6.022   0.882 -0.5234  1.2030  0.6642
16338TIP3   OH270428   2.815   1.966  14.441 -0.1181 -0.3196 -0.9860
16338TIP3    H170429   2.761   2.041  14.464  1.5317  0.7012 -0.4192
16338TIP3    H270430   2.817   1.912  14.520  0.0392 -0.1472 -0.8737
16339TIP3   OH270431   1.021   0.220   3.937  0.3081  0.6703  0.0066
16339TIP3    H170432   1.096   0.177   3.896  0.4175 -0.9470  1.8540
16339TIP3    H270433   0.946   0.198   3.881  0.8589  0.6366 -0.7258
16340TIP3   OH270434   4.701   3.109   5.919 -0.8348 -0.0094  0.0504
16340TIP3    H170435   4.619   3.062   5.933  0.1164 -1.7337  0.0242
16340TIP3    H270436   4.751   3.095   6.000 -1.2837  2.5933  0.8212
16341TIP3   OH270437   5.428   2.990  14.516  0.3350  0.0525  0.3099
16341TIP3    H170438   5.370   2.936  14.463  1.6319  0.1260 -1.2301
16341TIP3    H270439   5.434   2.945  14.600  0.5579 -1.6123 -0.5935
16342TIP3   OH270440   1.248   3.754  15.162  0.3728  0.3453  0.2270
16342TIP3    H170441   1.294   3.727  15.083 -0.5143  1.6796 -0.7617
16342TIP3    H270442   1.290   3.704  15.232  1.1136 -0.9144 -1.0836
16343TIP3   OH270443   2.176   0.252  11.541  0.0023 -0.2850 -0.1822
16343TIP3    H170444   2.106   0.244  11.476 -1.9541  1.5959  1.6004
16343TIP3    H270445   2.255   0.266  11.490 -1.5691  1.6492 -2.1624
16344TIP3   OH270446   1.906   4.376  12.069 -0.1255 -0.2042  0.1224
16344TIP3    H170447   1.828   4.419  12.034 -1.7679 -2.8567  0.4122
16344TIP3    H270448   1.974   4.394  12.003 -1.2318  1.1995 -0.6794
16345TIP3   OH270449   6.010   2.897   2.931  0.2592 -0.2549 -0.0612
16345TIP3    H170450   6.082   2.850   2.973  0.3929 -0.4222 -0.4748
16345TIP3    H270451   6.032   2.990   2.941  0.6137 -0.3098 -0.3331
16346TIP3   OH270452   2.477   2.666  13.394  0.3460 -0.2052 -0.4190
16346TIP3    H170453   2.522   2.644  13.476  1.8285  0.3407 -1.0752
16346TIP3    H270454   2.539   2.644  13.325 -0.7749 -0.3765 -1.4008
16347TIP3   OH270455   5.123   0.186  17.203  0.0578  0.1526 -0.1587
16347TIP3    H170456   5.123   0.185  17.108  1.3877 -1.1069 -0.1575
16347TIP3    H270457   5.036   0.156  17.228  0.1507 -0.7814 -0.9715
16348TIP3   OH270458   1.105   4.779   0.394  0.3938  0.0096  0.1607
16348TIP3    H170459   1.090   4.732   0.311  0.1150  0.7151 -0.1897
16348TIP3    H270460   1.200   4.787   0.399  0.3871  0.4476 -0.3648
16349TIP3   OH270461   2.795   3.634  15.672  0.8452  0.2595 -0.8142
16349TIP3    H170462   2.876   3.605  15.713  0.7863  0.8389 -0.2923
16349TIP3    H270463   2.726   3.597  15.727  0.7326 -1.1049 -1.8424
16350TIP3   OH270464   2.253   6.599  11.602  0.0205  0.2121  0.0364
16350TIP3    H170465   2.205   6.615  11.521  0.3032  0.3870 -0.0971
16350TIP3    H270466   2.254   6.504  11.611  0.8029  0.1393 -0.6637
16351TIP3   OH270467   6.216   1.451   4.338 -0.3626 -0.2076  0.4628
16351TIP3    H170468   6.168   1.392   4.280  0.8555 -0.0567 -0.7364
16351TIP3    H270469   6.204   1.413   4.425  1.3513 -2.9538 -0.4095
16352TIP3   OH270470   5.825   6.346  12.469  0.3168 -0.5920 -0.0822
16352TIP3    H170471   5.771   6.342  12.548 -0.0434  0.1677 -0.2811
16352TIP3    H270472   5.762   6.357  12.397  0.8063  2.2772 -0.1336
16353TIP3   OH270473   6.563   6.033   4.184 -0.7560  0.2043 -0.2145
16353TIP3    H170474   6.514   6.058   4.262 -1.0369  0.8876 -0.6086
16353TIP3    H270475   6.577   6.115   4.137  0.2277 -0.0687 -0.4144
16354TIP3   OH270476   1.572   1.833   2.558 -0.0084  0.3083 -0.2106
16354TIP3    H170477   1.667   1.847   2.562  0.0982 -0.9433  2.2786
16354TIP3    H270478   1.561   1.755   2.505  0.3828  0.1695 -0.0881
16355TIP3   OH270479   1.913   0.571  11.020  0.0801  0.6047 -0.3096
16355TIP3    H170480   1.871   0.652  11.049  2.3897  1.7613 -0.0549
16355TIP3    H270481   1.969   0.546  11.093 -2.6645 -2.7700  0.7232
16356TIP3   OH270482   5.997   4.378  13.036  0.7394 -0.2040  0.4857
16356TIP3    H170483   5.946   4.298  13.024 -2.0105  1.7482 -1.3571
16356TIP3    H270484   6.057   4.379  12.961  0.2343 -0.1561  0.0782
16357TIP3   OH270485   5.150   5.608  16.097 -0.6490  0.3770  0.4027
16357TIP3    H170486   5.231   5.617  16.047 -0.4944  2.1601  0.9521
16357TIP3    H270487   5.178   5.611  16.189 -1.0208 -2.0373  0.6421
16358TIP3   OH270488   1.661   3.629  12.915 -0.0120 -0.1907 -0.3862
16358TIP3    H170489   1.596   3.700  12.912  1.1986  0.9577 -0.2120
16358TIP3    H270490   1.614   3.552  12.883 -1.6580  0.4468  0.3981
16359TIP3   OH270491   1.238   1.231   2.944  0.6606  0.4874  0.1549
16359TIP3    H170492   1.318   1.265   2.904  0.7702  0.6321  0.4925
16359TIP3    H270493   1.192   1.187   2.873  2.3280 -1.9415  0.5083
16360TIP3   OH270494   1.946   4.259  14.821 -0.3059 -0.1970  0.1787
16360TIP3    H170495   1.988   4.275  14.737 -0.1378  2.2628  0.6823
16360TIP3    H270496   1.968   4.168  14.842  1.0203 -0.3326 -1.6574
16361TIP3   OH270497   1.337   0.950  11.034  0.0023 -0.1854 -0.4507
16361TIP3    H170498   1.260   0.904  11.066 -0.5295  1.6670  1.0305
16361TIP3    H270499   1.410   0.907  11.078 -0.3630 -0.5376 -0.1825
16362TIP3   OH270500   5.260   3.303   5.806  0.4285  0.3252 -0.4808
16362TIP3    H170501   5.352   3.290   5.828  0.7601  1.3067 -1.2462
16362TIP3    H270502   5.214   3.230   5.848  1.4513  0.2954  0.5862
16363TIP3   OH270503   1.158   4.240  12.996 -0.3233  0.4352 -0.2074
16363TIP3    H170504   1.248   4.221  12.971 -0.7099 -0.8965 -0.6647
16363TIP3    H270505   1.153   4.213  13.088 -0.0876  1.0972 -0.0016
16364TIP3   OH270506   3.863   2.999   6.186  0.3668 -0.3449 -0.2856
16364TIP3    H170507   3.913   3.004   6.267  1.0460 -1.9403 -0.5761
16364TIP3    H270508   3.803   2.926   6.200 -0.7509  0.5133 -0.5545
16365TIP3   OH270509   3.588   3.675  14.460 -0.9856 -0.4266  0.0820
16365TIP3    H170510   3.504   3.719  14.458 -0.6630  0.1712 -2.3720
16365TIP3    H270511   3.648   3.738  14.500 -1.3038 -0.0918  0.0329
16366TIP3   OH270512   0.022   0.631  12.304 -0.0080  0.1049 -0.0934
16366TIP3    H170513   0.054   0.719  12.326 -0.1113 -0.1279  1.0081
16366TIP3    H270514  -0.030   0.644  12.224 -1.9381  1.4437  1.3282
16367TIP3   OH270515   2.312   6.770  12.286 -0.0269 -0.3817  0.0245
16367TIP3    H170516   2.402   6.749  12.261  0.3140  1.2627 -0.1191
16367TIP3    H270517   2.261   6.756  12.207  0.6740  2.3459 -0.9449
16368TIP3   OH270518   3.311   0.506  14.682 -0.0351  0.0720 -0.5081
16368TIP3    H170519   3.377   0.526  14.748  1.6745  0.0722 -2.1859
16368TIP3    H270520   3.329   0.416  14.655 -1.2076 -0.1955 -0.4470
16369TIP3   OH270521   5.425   3.648  15.358 -0.4141 -0.2048  0.3426
16369TIP3    H170522   5.413   3.617  15.448  0.2157  0.5811  0.6947
16369TIP3    H270523   5.347   3.701  15.341 -1.7335 -2.2799 -0.4177
16370TIP3   OH270524   5.929   0.631  12.360 -0.3222 -0.1842 -0.0112
16370TIP3    H170525   5.843   0.620  12.319 -1.0507 -2.5528  2.0435
16370TIP3    H270526   5.920   0.710  12.414 -1.0311 -0.0858 -0.2719
16371TIP3   OH270527   6.393   6.312  14.454 -0.1217 -0.5424 -0.1744
16371TIP3    H170528   6.484   6.331  14.434 -0.2849 -1.9548 -2.3323
16371TIP3    H270529   6.397   6.237  14.514  0.1330 -0.1879  0.2620
16372TIP3   OH270530   0.495   2.373   3.812 -0.1391 -0.4505  0.2886
16372TIP3    H170531   0.447   2.421   3.880 -0.7925 -0.4646 -0.1637
16372TIP3    H270532   0.448   2.290   3.804 -0.3021 -0.2817 -0.4767
16373TIP3   OH270533   2.730   5.837   4.914  0.2644 -0.4146 -0.4123
16373TIP3    H170534   2.782   5.903   4.870  1.4972 -0.8030  0.4336
16373TIP3    H270535   2.736   5.760   4.857  1.0249 -0.6077 -0.0772
16374TIP3   OH270536   5.477   5.532  11.431 -0.3106 -0.2810 -0.1147
16374TIP3    H170537   5.430   5.535  11.514  2.0047 -0.6853  1.2700
16374TIP3    H270538   5.501   5.440  11.419  0.4816 -0.0254 -0.5702
16375TIP3   OH270539   0.702   1.143   1.835 -0.2553  0.1702 -0.3792
16375TIP3    H170540   0.688   1.174   1.745  1.4710 -0.8441 -1.0220
16375TIP3    H270541   0.705   1.223   1.888  0.5109  0.8947 -1.4869
16376TIP3   OH270542   5.324   4.362  10.631  0.1694  0.0824  0.1900
16376TIP3    H170543   5.392   4.313  10.584 -0.6200  0.3369 -1.2285
16376TIP3    H270544   5.373   4.415  10.694  1.2617 -0.0903 -0.4957
16377TIP3   OH270545   5.960   0.429  16.482 -0.3786  0.5244 -0.1522
16377TIP3    H170546   5.985   0.336  16.480 -1.0494  0.3583 -0.9717
16377TIP3    H270547   6.016   0.470  16.417 -2.7528  0.0029 -2.6201
16378TIP3   OH270548   3.184   4.239  15.809  0.6631 -0.5580 -0.5496
16378TIP3    H170549   3.144   4.163  15.767  0.9997  0.3685 -2.5746
16378TIP3    H270550   3.272   4.243  15.771  0.8666  0.4742  0.0313
16379TIP3   OH270551   0.862   5.178   5.501  0.5473 -0.1337  0.2036
16379TIP3    H170552   0.921   5.151   5.431 -0.2935  3.2043 -1.9122
16379TIP3    H270553   0.811   5.100   5.521  0.2373 -0.9924 -3.5141
16380TIP3   OH270554   2.374   0.085   3.634  0.0384 -0.1785 -0.0049
16380TIP3    H170555   2.280   0.072   3.621  0.1622 -1.2831  0.1291
16380TIP3    H270556   2.402   0.138   3.560 -0.7225  0.2880  0.0393
16381TIP3   OH270557   2.267   0.337  14.197  0.1358 -0.0023 -0.6320
16381TIP3    H170558   2.346   0.283  14.205  0.9046  1.2764  0.8068
16381TIP3    H270559   2.201   0.292  14.249  0.6705  0.2600  0.2801
16382TIP3   OH270560   2.237   2.707  15.224 -0.2001 -0.0170  0.0136
16382TIP3    H170561   2.313   2.765  15.224 -0.3311  0.1891 -1.7106
16382TIP3    H270562   2.165   2.761  15.256  0.0643  0.2084  0.2370
16383TIP3   OH270563   5.759   4.276  15.702  0.0161  0.2143  0.6208
16383TIP3    H170564   5.716   4.314  15.625  0.1767 -0.9361 -0.0440
16383TIP3    H270565   5.830   4.223  15.667  1.4239  1.3608  1.6736
16384TIP3   OH270566   4.668   4.019  12.714 -0.0799  0.4898 -0.4445
16384TIP3    H170567   4.693   4.032  12.805 -0.5476  0.8906 -0.3737
16384TIP3    H270568   4.631   3.931  12.711  0.3150  0.3196 -0.3317
16385TIP3   OH270569   0.990   6.635  16.083 -0.1708  0.1255  0.3491
16385TIP3    H170570   1.077   6.608  16.054  0.1858  1.8952 -0.2580
16385TIP3    H270571   1.004   6.669  16.172 -0.1206  1.0258  0.0019
16386TIP3   OH270572   1.710   5.707  15.698  0.2364  0.6245 -0.5215
16386TIP3    H170573   1.778   5.738  15.638  0.7440  0.3532 -0.0918
16386TIP3    H270574   1.633   5.761  15.678  1.0250  1.9651  0.0161
16387TIP3   OH270575   4.201   3.524  15.148  0.0855  0.7082  0.0077
16387TIP3    H170576   4.225   3.539  15.239  1.4082 -1.6095  0.1043
16387TIP3    H270577   4.107   3.506  15.150 -0.4345  3.3182  0.5301
16388TIP3   OH270578   4.380   4.357   1.305  0.0089  0.0878  0.6102
16388TIP3    H170579   4.430   4.437   1.319 -0.8630  1.0543 -1.5222
16388TIP3    H270580   4.368   4.353   1.210 -1.0579 -1.8998  0.8088
16389TIP3   OH270581   2.229   2.701   1.495 -0.2570 -0.3399 -0.0107
16389TIP3    H170582   2.250   2.623   1.444  1.4607 -1.3505  2.1888
16389TIP3    H270583   2.296   2.764   1.472  2.0279 -1.6399  2.7454
16390TIP3   OH270584   4.282   2.130   1.153  0.2366  0.5332  0.2922
16390TIP3    H170585   4.189   2.146   1.168 -0.0463 -1.1017  0.4209
16390TIP3    H270586   4.286   2.092   1.065  1.1976  3.9719 -1.2241
16391TIP3   OH270587   5.822   6.357   0.489 -0.7063 -0.1048  0.4413
16391TIP3    H170588   5.836   6.324   0.400  0.8292  0.2039  0.5610
16391TIP3    H270589   5.797   6.279   0.539 -0.5361 -0.4640 -0.0261
16392TIP3   OH270590   1.544   1.309  13.771 -0.1832 -0.3321 -0.9141
16392TIP3    H170591   1.482   1.381  13.783  1.8295  1.2577  0.1335
16392TIP3    H270592   1.601   1.313  13.847  2.2405 -0.7257 -2.6686
16393TIP3   OH270593   2.232   6.560  11.324 -0.1369  0.3911  0.4163
16393TIP3    H170594   2.238   6.533  11.232  0.6874 -0.7842  0.8078
16393TIP3    H270595   2.245   6.655  11.322  0.6852  0.2606 -0.6042
16394TIP3   OH270596   0.611   4.739   5.649 -0.0784 -0.9785 -0.0206
16394TIP3    H170597   0.611   4.657   5.599 -1.0991 -1.0087  0.0130
16394TIP3    H270598   0.532   4.785   5.621  0.8918  0.3569 -0.5956
16395TIP3   OH270599   2.375   4.199  15.414 -0.6964 -0.4554 -0.3321
16395TIP3    H170600   2.355   4.126  15.355 -2.6127  0.0886 -0.3782
16395TIP3    H270601   2.305   4.262  15.399  1.1703  1.5896 -0.5811
16396TIP3   OH270602   4.422   5.099  11.330 -0.4616 -0.2737 -0.1931
16396TIP3    H170603   4.353   5.074  11.391 -0.3376  1.2885  0.5907
16396TIP3    H270604   4.491   5.034  11.345 -0.4335  0.0854  1.3198
16397TIP3   OH270605   5.919   1.174  13.121 -0.2723  0.1815 -0.3347
16397TIP3    H170606   5.993   1.170  13.062 -1.2859 -0.6092 -1.5707
16397TIP3    H270607   5.901   1.267  13.132  1.2729  0.4029  0.4746
16398TIP3   OH270608   1.886   4.033   0.751 -0.2619 -0.1500  0.3911
16398TIP3    H170609   1.827   3.997   0.818  1.0527 -1.8100  0.7016
16398TIP3    H270610   1.965   3.980   0.759  1.2176  1.9544 -0.1090
16399TIP3   OH270611   6.505   3.069  11.697 -0.1093 -0.1424 -0.2642
16399TIP3    H170612   6.418   3.109  11.702 -0.4545 -0.7578 -1.1690
16399TIP3    H270613   6.501   2.995  11.759 -0.1946 -0.1100 -0.2302
16400TIP3   OH270614   1.899   2.472   2.861 -0.3209 -0.5088 -0.3566
16400TIP3    H170615   1.919   2.380   2.873  1.1797 -0.3370 -1.3589
16400TIP3    H270616   1.889   2.482   2.766  2.0597  0.8252 -0.5030
16401TIP3   OH270617   5.291   3.909   1.011 -0.1204  0.4342  0.1230
16401TIP3    H170618   5.312   3.932   1.102 -1.0775  3.4357 -0.3580
16401TIP3    H270619   5.218   3.966   0.988 -0.8342 -1.3064 -2.1033
16402TIP3   OH270620   3.612   2.112   3.947  0.2844 -0.1357 -0.3009
16402TIP3    H170621   3.560   2.191   3.964  1.1435  0.5566 -0.8214
16402TIP3    H270622   3.600   2.095   3.853  2.2216  0.9437 -0.7671
16403TIP3   OH270623   1.103   3.981  14.273 -0.2262 -0.1570  0.1335
16403TIP3    H170624   1.050   4.030  14.336 -0.0047 -0.7305  0.7713
16403TIP3    H270625   1.099   3.890  14.304 -1.5744 -0.7356 -1.6778
16404TIP3   OH270626   2.173   2.025   0.921  0.2960 -0.0113 -0.1309
16404TIP3    H170627   2.187   1.944   0.872 -0.0383 -0.6275  0.7774
16404TIP3    H270628   2.153   1.996   1.010  1.5756  1.1102  0.5426
16405TIP3   OH270629   2.421   2.785   2.289  0.2618  0.1795  0.0768
16405TIP3    H170630   2.510   2.756   2.266 -0.0208 -0.6955  0.0678
16405TIP3    H270631   2.424   2.880   2.278  1.6706  0.3490  1.7038
16406TIP3   OH270632   1.553   4.983  12.951  0.4627 -0.4820  0.4963
16406TIP3    H170633   1.624   4.996  12.889  1.6783 -3.1601  1.2734
16406TIP3    H270634   1.575   5.038  13.026  0.6451  0.2402 -0.0794
16407TIP3   OH270635   0.311   0.808   3.650 -0.1275 -0.2453  0.3852
16407TIP3    H170636   0.328   0.761   3.568  0.7964 -1.0266  1.0167
16407TIP3    H270637   0.343   0.749   3.719  1.2977  1.3997  1.1703
16408TIP3   OH270638   0.011   2.316  16.556 -0.7014  0.2028  0.2337
16408TIP3    H170639  -0.024   2.255  16.492 -0.8269  1.4282 -0.8789
16408TIP3    H270640  -0.001   2.272  16.640 -2.7708 -0.3850 -0.3435
16409TIP3   OH270641   6.165   6.739  12.825  0.2416  0.0449  0.5771
16409TIP3    H170642   6.072   6.750  12.845  0.1163  0.0902 -0.0247
16409TIP3    H270643   6.206   6.819  12.858  0.0529  0.0597  0.7731
16410TIP3   OH270644   1.090   2.749  17.012  0.2925  0.1147 -0.1959
16410TIP3    H170645   1.105   2.655  17.003 -0.1870 -0.2973  2.7250
16410TIP3    H270646   0.997   2.761  16.992  0.0466 -0.2450  0.7096
16411TIP3   OH270647   3.387   2.258  12.759 -0.7059 -0.2762 -0.5430
16411TIP3    H170648   3.301   2.298  12.749 -0.8221 -1.2537 -4.2906
16411TIP3    H270649   3.374   2.166  12.735  1.0185 -0.8510  0.6469
16412TIP3   OH270650   0.259   2.967  16.689  0.1150 -0.1896 -0.3319
16412TIP3    H170651   0.277   3.002  16.776  1.8081 -2.0569  0.1148
16412TIP3    H270652   0.339   2.986  16.639 -0.4899  0.0713 -1.1952
16413TIP3   OH270653   1.754   1.572  14.474 -0.0719 -0.4267  0.2670
16413TIP3    H170654   1.674   1.543  14.431 -0.3272 -0.4901  0.7937
16413TIP3    H270655   1.797   1.628  14.409 -0.1065 -1.1008 -0.3474
16414TIP3   OH270656   3.487   6.578   3.874 -0.3258 -0.1149  0.1412
16414TIP3    H170657   3.442   6.662   3.876  0.0868  0.1202 -0.1852
16414TIP3    H270658   3.578   6.600   3.855 -0.0252 -0.5647  1.0561
16415TIP3   OH270659   5.084   6.118  13.533  0.1337  0.1256  0.1178
16415TIP3    H170660   5.054   6.159  13.452  0.2747  2.6774  1.3001
16415TIP3    H270661   5.091   6.190  13.595  1.4910 -1.5493  1.9863
16416TIP3   OH270662   1.520   4.433  15.330  0.3992  0.0302 -0.0436
16416TIP3    H170663   1.562   4.347  15.331  1.6555  0.6099 -1.2827
16416TIP3    H270664   1.463   4.432  15.406  1.4605 -1.3867  0.7739
16417TIP3   OH270665   3.972   3.610   5.872 -0.6955  0.5879 -0.4863
16417TIP3    H170666   3.908   3.650   5.931 -0.9776  0.2937 -0.5887
16417TIP3    H270667   3.979   3.672   5.800 -1.4839  0.2378 -0.8728
16418TIP3   OH270668   3.111   0.334   5.328 -0.4347 -0.5401 -0.1958
16418TIP3    H170669   3.065   0.371   5.253 -0.6106  1.8203  1.0048
16418TIP3    H270670   3.196   0.377   5.328 -0.4114 -0.5624  0.9042
16419TIP3   OH270671   4.857   3.465   5.283 -0.8028  0.4051 -0.3104
16419TIP3    H170672   4.800   3.519   5.338 -1.6137 -0.8821  0.1532
16419TIP3    H270673   4.819   3.471   5.195 -0.7086  0.8321 -0.3220
16420TIP3   OH270674   4.754   3.689   4.138  0.1551 -0.1178  0.2073
16420TIP3    H170675   4.684   3.640   4.094  0.7223 -0.4315 -0.3503
16420TIP3    H270676   4.708   3.744   4.202 -0.4780 -1.3238  0.7928
16421TIP3   OH270677   4.307   3.319  14.709  0.4117  0.3601 -0.1152
16421TIP3    H170678   4.230   3.261  14.712  0.7251 -0.0483  0.0677
16421TIP3    H270679   4.366   3.277  14.646  1.3574 -0.4228  1.2555
16422TIP3   OH270680   3.173   5.239   4.086 -0.4619 -0.5044  0.4726
16422TIP3    H170681   3.162   5.161   4.140 -1.5410 -0.3937  0.4293
16422TIP3    H270682   3.099   5.295   4.110 -0.0802  0.2103  0.0061
16423TIP3   OH270683   3.248   4.256  14.717 -0.2128  0.7101 -0.4141
16423TIP3    H170684   3.328   4.205  14.702 -0.7824 -0.0619 -0.9194
16423TIP3    H270685   3.222   4.285  14.629 -1.3339 -0.3620 -0.4532
16424TIP3   OH270686   5.617   1.234   1.779  0.0073  0.1522 -0.2376
16424TIP3    H170687   5.706   1.217   1.748  0.9872 -0.5946  2.8525
16424TIP3    H270688   5.627   1.307   1.840 -1.5487  0.2547 -0.0891
16425TIP3   OH270689   4.694   3.977  15.661  0.0119  0.4306  0.6633
16425TIP3    H170690   4.760   3.926  15.709 -1.0512 -1.0194  0.6203
16425TIP3    H270691   4.659   3.916  15.596 -1.4586  1.1375  0.7688
16426TIP3   OH270692   6.411   3.172  12.715 -0.2965 -0.5934 -0.4468
16426TIP3    H170693   6.363   3.118  12.652 -0.0777 -0.5067 -0.6863
16426TIP3    H270694   6.498   3.132  12.720 -0.1829 -0.3558 -0.5063
16427TIP3   OH270695   1.846   1.688   0.575  0.0923 -0.5743  0.3550
16427TIP3    H170696   1.756   1.708   0.598  0.9352  0.0154  3.3684
16427TIP3    H270697   1.897   1.762   0.610  1.8618 -1.4756 -0.2428
16428TIP3   OH270698   1.687   5.660   4.931  0.9484 -0.1014 -0.2386
16428TIP3    H170699   1.639   5.636   4.852 -0.0393 -0.4118  0.4322
16428TIP3    H270700   1.691   5.579   4.982  1.3865  0.1444  0.1159
16429TIP3   OH270701   4.598   0.361  10.586 -0.1141  0.1626 -0.1889
16429TIP3    H170702   4.568   0.271  10.595  0.1316  0.1566  0.5886
16429TIP3    H270703   4.604   0.394  10.675  0.7970  0.6187 -0.4110
16430TIP3   OH270704   5.506   2.740   1.957  0.3990  0.3644  0.1907
16430TIP3    H170705   5.447   2.697   1.896  1.9739 -1.1030 -0.3356
16430TIP3    H270706   5.578   2.772   1.903  1.3550 -0.1487  1.1269
16431TIP3   OH270707   2.698   4.606  12.857 -0.1301 -0.3514  0.5078
16431TIP3    H170708   2.604   4.613  12.840 -0.2536 -1.2721  0.7772
16431TIP3    H270709   2.736   4.681  12.811 -1.0929  0.5849  1.1953
16432TIP3   OH270710   6.083   4.466   0.819  0.3725  0.4827  0.1410
16432TIP3    H170711   6.177   4.448   0.827  0.1117 -0.2812  1.6584
16432TIP3    H270712   6.043   4.379   0.815 -0.2310  0.8114 -1.0753
16433TIP3   OH270713   0.250   0.447  12.402  0.9887 -0.1308  0.0850
16433TIP3    H170714   0.193   0.467  12.328  1.8741  2.1539 -0.0246
16433TIP3    H270715   0.220   0.362  12.434 -0.7395 -0.1742 -1.6056
16434TIP3   OH270716   5.579   2.385  11.506 -0.3000 -0.3865 -0.7024
16434TIP3    H170717   5.671   2.404  11.489 -0.1132 -1.9816 -1.6772
16434TIP3    H270718   5.537   2.470  11.512  1.4522  0.3709  0.9870
16435TIP3   OH270719   0.911   3.543   5.019 -0.4778  0.4213  0.5507
16435TIP3    H170720   0.916   3.549   5.115 -0.5300 -0.0185  0.5810
16435TIP3    H270721   0.975   3.607   4.988  0.1736 -0.0588  0.8887
16436TIP3   OH270722   4.507   0.349   3.050  0.7327 -0.0852 -0.0783
16436TIP3    H170723   4.594   0.384   3.070  0.9579 -0.6845 -0.0064
16436TIP3    H270724   4.482   0.301   3.129 -0.1548  1.0384  0.3460
16437TIP3   OH270725   1.447   4.155   5.301  0.4181 -0.0293  0.1438
16437TIP3    H170726   1.487   4.176   5.386  0.7039  0.6958 -0.1688
16437TIP3    H270727   1.520   4.129   5.246  0.2062 -0.7166  0.1712
16438TIP3   OH270728   4.392   5.939   4.003  0.9034  0.0942  0.0074
16438TIP3    H170729   4.405   6.023   3.959 -0.4026  1.9972  3.0967
16438TIP3    H270730   4.470   5.929   4.058  1.2142 -0.9258 -0.5977
16439TIP3   OH270731   4.568   3.900  10.912  0.0210  0.1794 -0.4294
16439TIP3    H170732   4.634   3.904  10.843  0.3818 -1.7836 -0.2278
16439TIP3    H270733   4.572   3.986  10.954  0.2640  1.1567 -2.4075
16440TIP3   OH270734   3.992   0.688   0.320  0.6675  0.1891 -0.0091
16440TIP3    H170735   4.021   0.776   0.345  0.2854  0.2379  0.2696
16440TIP3    H270736   4.044   0.666   0.243  1.2989  0.3599  0.3617
16441TIP3   OH270737   5.167   6.304  12.591  0.0246  0.2244 -0.4195
16441TIP3    H170738   5.173   6.299  12.495 -0.3378  0.0918 -0.4343
16441TIP3    H270739   5.095   6.365  12.607  2.8294  3.6646 -0.2485
16442TIP3   OH270740   5.031   3.769  15.143 -0.0605 -0.2334 -0.0014
16442TIP3    H170741   4.986   3.760  15.060  0.2942 -0.4035 -0.1772
16442TIP3    H270742   5.011   3.858  15.172 -2.1066 -0.9561  0.8780
16443TIP3   OH270743   4.531   0.895   1.135  0.7838 -0.1133  0.6744
16443TIP3    H170744   4.596   0.880   1.066  1.2085 -0.2931  1.1096
16443TIP3    H270745   4.545   0.986   1.161  0.1329  0.1794  0.0212
16444TIP3   OH270746   1.577   1.050   0.856 -0.2893  0.3985  0.1670
16444TIP3    H170747   1.595   1.057   0.763 -0.8600  0.5824  0.0653
16444TIP3    H270748   1.571   0.956   0.873  1.3653  0.3166  0.3278
16445TIP3   OH270749   6.127   6.263  15.002  0.1411 -0.2831  0.1179
16445TIP3    H170750   6.186   6.188  15.009  0.5208  0.0994  1.0201
16445TIP3    H270751   6.149   6.319  15.076 -1.5091 -0.2493  0.6158
16446TIP3   OH270752   5.505   1.122  16.533 -0.2010  0.1568 -0.2403
16446TIP3    H170753   5.545   1.198  16.576 -2.0215  0.9485  0.1090
16446TIP3    H270754   5.502   1.146  16.440 -0.7604  0.5364 -0.1316
16447TIP3   OH270755   3.807   4.719  15.999 -0.1561  0.6733  0.0753
16447TIP3    H170756   3.888   4.719  16.050 -0.4591 -1.1635  0.5761
16447TIP3    H270757   3.832   4.753  15.913  1.3483 -0.8118 -0.0838
16448TIP3   OH270758   3.682   6.237   0.583  0.0752 -0.0302 -0.0140
16448TIP3    H170759   3.726   6.176   0.524 -0.0150  0.1966 -0.3222
16448TIP3    H270760   3.681   6.320   0.534 -2.6191 -0.5457 -0.9141
16449TIP3   OH270761   4.636   0.562  14.924 -0.0066 -0.1242  0.2172
16449TIP3    H170762   4.558   0.535  14.876  0.1506 -1.1319  0.5130
16449TIP3    H270763   4.604   0.581  15.013  0.1893 -1.2672  0.5453
16450TIP3   OH270764   6.218   5.897   3.706  0.0765 -0.1108 -0.1769
16450TIP3    H170765   6.212   5.833   3.635  1.1677  0.9499 -1.2443
16450TIP3    H270766   6.227   5.981   3.662  1.7471  0.4801  1.2108
16451TIP3   OH270767   2.262   4.521  13.993  0.7926  0.5814 -0.1513
16451TIP3    H170768   2.213   4.588  13.945  1.5718  0.5540 -0.9927
16451TIP3    H270769   2.223   4.522  14.081  0.2089  1.5170 -0.4084
16452TIP3   OH270770   4.306   3.277  15.029 -0.4218 -0.1871  0.5858
16452TIP3    H170771   4.291   3.359  15.076 -0.2576 -1.0142  2.1199
16452TIP3    H270772   4.326   3.304  14.939 -0.7734  1.4216  0.9729
16453TIP3   OH270773   1.222   4.398  11.030 -0.6968  0.5918 -0.1095
16453TIP3    H170774   1.212   4.450  10.950 -0.7937 -1.8704 -1.7780
16453TIP3    H270775   1.133   4.386  11.063 -0.5789  2.3240  0.8520
16454TIP3   OH270776   1.452   0.059   4.281  0.0630 -0.6339 -0.3499
16454TIP3    H170777   1.369   0.039   4.324  0.9997 -1.6107  1.0223
16454TIP3    H270778   1.427   0.109   4.204 -1.5981  1.7257  1.6617
16455TIP3   OH270779   3.930   3.661  11.475 -0.3344  0.4123 -0.0677
16455TIP3    H170780   3.964   3.728  11.535 -0.1895 -0.7592  1.1971
16455TIP3    H270781   3.988   3.586  11.488  1.1593  0.8872 -3.4092
16456TIP3   OH270782   4.410   3.562   0.204 -0.5442  0.0411  0.4661
16456TIP3    H170783   4.451   3.568   0.118  1.1724  1.0676  1.3179
16456TIP3    H270784   4.479   3.527   0.261 -2.1170 -2.0744  1.1399
16457TIP3   OH270785   2.262   3.613  15.129  0.3004  0.6095 -0.5065
16457TIP3    H170786   2.326   3.566  15.182  1.8483  0.5246 -2.4296
16457TIP3    H270787   2.243   3.693  15.179  1.7012  0.5091  0.1921
16458TIP3   OH270788   5.969   0.342  14.747 -0.0893  0.1443 -0.1820
16458TIP3    H170789   5.954   0.430  14.781 -0.2342 -0.3945  1.1845
16458TIP3    H270790   5.886   0.317  14.707  0.1395  0.8563 -1.1244
16459TIP3   OH270791   0.103   0.154  14.705 -0.1506  0.0185  0.1943
16459TIP3    H170792   0.145   0.231  14.665  1.0501 -0.8105 -0.1597
16459TIP3    H270793   0.094   0.178  14.798 -0.8699  1.0504 -0.1292
16460TIP3   OH270794   1.113   2.892   4.220  0.3264 -0.0189 -0.4219
16460TIP3    H170795   1.179   2.925   4.159  2.1000 -2.8679 -0.1656
16460TIP3    H270796   1.107   2.958   4.288  2.6399  0.4958 -0.6819
16461TIP3   OH270797   5.182   4.259   0.413 -0.3455  0.5453  0.7138
16461TIP3    H170798   5.187   4.196   0.485  0.4603  1.6399  1.6290
16461TIP3    H270799   5.156   4.206   0.337  1.5933 -1.1167  1.1657
16462TIP3   OH270800   4.409   3.066   5.104  0.1330 -0.1010  0.1645
16462TIP3    H170801   4.402   3.139   5.166 -0.0818 -0.0814  0.1184
16462TIP3    H270802   4.453   3.103   5.028  1.0619 -0.3068  0.5890
16463TIP3   OH270803   0.005   0.772  11.044 -0.1603  0.3287 -0.0751
16463TIP3    H170804  -0.040   0.736  10.967  3.6691 -1.8750 -1.4075
16463TIP3    H270805  -0.047   0.741  11.118 -2.3196  0.1313 -1.6104
16464TIP3   OH270806   3.700   2.560   4.069  0.1696 -0.4797  0.3183
16464TIP3    H170807   3.769   2.496   4.052 -0.1244 -0.5614 -0.5907
16464TIP3    H270808   3.619   2.513   4.052 -0.0695 -0.0462  0.2473
16465TIP3   OH270809   2.663   4.246  13.969 -0.2182  0.0299  0.0009
16465TIP3    H170810   2.640   4.257  13.877  1.0711 -1.1643 -0.4656
16465TIP3    H270811   2.754   4.217  13.969  0.3380  1.6356  1.7158
16466TIP3   OH270812   4.137   6.500  13.311 -0.0911  0.0075  0.1409
16466TIP3    H170813   4.071   6.563  13.281  0.6912  0.3613 -0.8575
16466TIP3    H270814   4.187   6.548  13.377 -0.5422 -0.1068  0.5636
16467TIP3   OH270815   5.334   6.273   5.713 -0.5917 -0.1203  0.8573
16467TIP3    H170816   5.253   6.261   5.663 -0.7442 -0.4083  1.1681
16467TIP3    H270817   5.376   6.349   5.673  0.6956 -2.0464 -1.5393
16468TIP3   OH270818   1.920   1.508   6.696 -0.1581  0.6491  0.5070
16468TIP3    H170819   1.888   1.493   6.607 -1.0176  0.2100  0.8831
16468TIP3    H270820   1.918   1.603   6.707  0.2931  0.7282 -0.0687
16469TIP3   OH270821   4.287   6.086  13.225  0.4377 -0.2495 -0.5759
16469TIP3    H170822   4.211   6.133  13.192  0.6470  0.0931 -0.5644
16469TIP3    H270823   4.280   6.093  13.320 -0.2014 -1.2947 -0.5407
16470TIP3   OH270824   4.248   1.357  13.953 -0.5915  0.0213  0.1815
16470TIP3    H170825   4.333   1.400  13.947 -0.7039  0.1783 -0.3115
16470TIP3    H270826   4.185   1.424  13.926 -0.7115 -0.6381 -1.2231
16471TIP3   OH270827   3.022   1.320   2.997  0.4181 -0.0684  0.2884
16471TIP3    H170828   2.930   1.294   2.998  0.1591  0.7837 -0.2422
16471TIP3    H270829   3.070   1.238   2.992 -0.4607 -0.4782 -4.5617
16472TIP3   OH270830   1.446   4.245  14.064  0.2824 -0.0834 -0.3640
16472TIP3    H170831   1.437   4.150  14.069 -1.2979  0.0455 -0.3843
16472TIP3    H270832   1.500   4.269  14.139 -1.4427 -0.7544  1.1006
16473TIP3   OH270833   0.596   1.033  15.501 -0.4822 -0.2828  0.0261
16473TIP3    H170834   0.555   0.967  15.445  1.4153 -1.2958 -0.2325
16473TIP3    H270835   0.556   1.021  15.587 -1.5161 -0.4911 -0.4831
16474TIP3   OH270836   4.695   0.152   2.167 -0.0773 -0.2213  0.2909
16474TIP3    H170837   4.628   0.191   2.222 -0.9526  0.3079 -1.1038
16474TIP3    H270838   4.768   0.213   2.170 -0.6970  0.5622 -0.3145
16475TIP3   OH270839   3.779   4.836  16.877  0.3249  0.5150 -0.4312
16475TIP3    H170840   3.748   4.825  16.967 -0.5892 -0.5443 -0.8624
16475TIP3    H270841   3.835   4.760  16.861  1.4583  1.3253 -0.3580
16476TIP3   OH270842   1.263   0.098   4.976  1.0062  0.0450  0.3089
16476TIP3    H170843   1.308   0.065   5.053  2.5249  0.4394 -0.3938
16476TIP3    H270844   1.301   0.048   4.903  0.4012  0.4656 -0.3068
16477TIP3   OH270845   0.779   5.529  16.974 -0.3428 -0.4377  0.0077
16477TIP3    H170846   0.794   5.624  16.982  0.7218 -0.4969 -1.1314
16477TIP3    H270847   0.700   5.522  16.921 -1.0924 -0.1850  1.0679
16478TIP3   OH270848   4.672   0.176   4.289 -0.3787 -0.0803 -0.5269
16478TIP3    H170849   4.753   0.209   4.249 -1.4900  0.0769 -2.6913
16478TIP3    H270850   4.645   0.244   4.350  2.1987 -1.0122  1.7736
16479TIP3   OH270851   3.617   3.983   5.602 -0.0499 -0.2901 -0.1694
16479TIP3    H170852   3.545   4.011   5.658  0.7489  1.3090  0.0795
16479TIP3    H270853   3.587   4.002   5.513  0.0796  0.4093 -0.0635
16480TIP3   OH270854   4.740   2.167   2.681  0.0632  0.7759 -0.4838
16480TIP3    H170855   4.781   2.209   2.757 -1.7330  2.1506 -0.2398
16480TIP3    H270856   4.675   2.107   2.719 -1.3698  2.0213 -0.9248
16481TIP3   OH270857   5.523   5.917  17.036  0.1635  0.2961  0.2917
16481TIP3    H170858   5.565   5.990  17.081 -0.7811  0.3555  1.0914
16481TIP3    H270859   5.518   5.848  17.102 -0.2572  0.0083 -0.0366
16482TIP3   OH270860   2.291   1.554  12.938  0.0736  0.4510  0.0561
16482TIP3    H170861   2.220   1.604  12.977  0.3641  0.2507  0.8592
16482TIP3    H270862   2.311   1.600  12.857 -0.6411  0.7914  0.0719
16483TIP3   OH270863   3.268   4.519   2.555  0.0489  0.5002 -0.2382
16483TIP3    H170864   3.258   4.452   2.488  1.7901  0.0913 -0.1097
16483TIP3    H270865   3.244   4.601   2.511 -0.7259 -0.0108 -0.7828
16484TIP3   OH270866   0.645   0.372  16.037 -0.0889 -0.1425 -0.2541
16484TIP3    H170867   0.689   0.434  16.097  1.5698  1.1066 -2.6692
16484TIP3    H270868   0.677   0.286  16.065  0.0272  0.3415  1.1698
16485TIP3   OH270869   3.832   3.548  12.312 -0.2732 -0.3465  0.2557
16485TIP3    H170870   3.761   3.489  12.287 -1.2123  1.7026 -2.0586
16485TIP3    H270871   3.872   3.506  12.388 -2.8704 -2.4004  0.5610
16486TIP3   OH270872   1.691   6.579   4.767 -0.8484  0.0319 -0.4653
16486TIP3    H170873   1.669   6.487   4.778  0.6036 -0.2538  0.1895
16486TIP3    H270874   1.733   6.584   4.682  1.1954 -0.3476  0.4871
16487TIP3   OH270875   4.366   0.748   3.874 -0.1315  0.0361  0.0177
16487TIP3    H170876   4.382   0.807   3.948 -0.4266  0.6551 -0.4025
16487TIP3    H270877   4.450   0.707   3.857  0.3112  1.0698 -0.3115
16488TIP3   OH270878   6.086   0.985   5.792  0.0866  0.6854  0.2421
16488TIP3    H170879   6.169   1.033   5.793  0.2146  0.4561  2.7377
16488TIP3    H270880   6.064   0.972   5.884 -2.1000 -0.3596 -0.3895
16489TIP3   OH270881   6.081   2.678   1.413 -0.0643 -0.2522  0.1810
16489TIP3    H170882   6.029   2.735   1.470  0.4751  1.3770 -0.9273
16489TIP3    H270883   6.168   2.677   1.453  0.3799  1.0872 -0.7150
16490TIP3   OH270884   4.272   3.908  16.368 -0.2626 -0.0442  0.6071
16490TIP3    H170885   4.325   3.982  16.339 -1.9739  0.7484 -0.5892
16490TIP3    H270886   4.220   3.884  16.291 -0.8621 -1.4776  1.4392
16491TIP3   OH270887   1.576   0.308   3.587  0.6252  0.3150 -0.0741
16491TIP3    H170888   1.582   0.274   3.498 -1.0813  0.8827 -0.4219
16491TIP3    H270889   1.485   0.337   3.596  0.8155  0.4053  1.7983
16492TIP3   OH270890   2.615   1.439   2.431  0.3354 -0.1194 -0.2093
16492TIP3    H170891   2.666   1.505   2.478  1.0636 -1.1504  0.4847
16492TIP3    H270892   2.528   1.444   2.470 -0.2033  1.8425 -1.5863
16493TIP3   OH270893   5.482   5.659   0.970 -0.8634 -0.0473  0.6251
16493TIP3    H170894   5.407   5.645   1.027  0.0203  0.0755  1.8602
16493TIP3    H270895   5.534   5.579   0.979  0.5237  0.9782  1.9614
16494TIP3   OH270896   0.529   0.508   4.024  0.1477  0.4192 -0.6000
16494TIP3    H170897   0.600   0.523   4.086 -0.2996  2.1452 -0.4759
16494TIP3    H270898   0.523   0.590   3.974 -0.9889 -0.1224 -1.3761
16495TIP3   OH270899   1.962   4.354   6.478  0.1740 -0.3461  0.2033
16495TIP3    H170900   1.908   4.402   6.542 -0.2207  0.7389 -0.9087
16495TIP3    H270901   1.898   4.306   6.425  0.2506  1.0268 -1.1863
16496TIP3   OH270902   2.647   0.241   6.130  0.1923  0.0967 -0.1280
16496TIP3    H170903   2.733   0.209   6.100  0.1929 -0.1838  0.1770
16496TIP3    H270904   2.657   0.251   6.224 -0.7771 -2.0292  0.2264
16497TIP3   OH270905   3.396   6.669   4.209 -0.2569 -0.5615 -0.3832
16497TIP3    H170906   3.359   6.587   4.241  0.5130 -0.4898  0.7434
16497TIP3    H270907   3.340   6.695   4.136 -1.0093 -1.6490 -0.1930
16498TIP3   OH270908   6.301   4.101  13.870 -0.4207  0.0589  0.2443
16498TIP3    H170909   6.338   4.190  13.864  0.8081 -0.3674  1.2691
16498TIP3    H270910   6.256   4.088  13.786  0.9904  0.9388 -0.6671
16499TIP3   OH270911   2.130   2.445  12.851 -0.3826  0.2993 -0.1991
16499TIP3    H170912   2.096   2.524  12.893 -2.8859 -0.3319 -0.9597
16499TIP3    H270913   2.118   2.376  12.916  1.5128  0.4445  0.3464
16500TIP3   OH270914   6.384   3.522   1.594  1.0011  0.2670  0.6326
16500TIP3    H170915   6.354   3.469   1.520 -1.6028  1.1494  1.0087
16500TIP3    H270916   6.372   3.465   1.670 -1.9054  1.3777  1.0503
16501TIP3   OH270917   6.204   3.025   2.221  0.1048  0.6749 -0.1335
16501TIP3    H170918   6.187   3.038   2.128 -1.0478  3.4255  0.4063
16501TIP3    H270919   6.216   3.114   2.255  0.9829 -0.3305  2.2528
16502TIP3   OH270920   6.048   0.774  13.120 -0.0108  0.0317 -0.4386
16502TIP3    H170921   5.991   0.764  13.044 -1.9869 -0.0625  0.9900
16502TIP3    H270922   6.113   0.839  13.094  0.8248 -1.7331 -2.9907
16503TIP3   OH270923   3.869   1.062  11.985  0.1914  0.2466  0.1626
16503TIP3    H170924   3.793   1.013  11.956  0.2489  0.4639 -0.3442
16503TIP3    H270925   3.879   1.037  12.077 -0.7168  0.5203  0.3363
16504TIP3   OH270926   6.290   1.735  14.722  0.4946 -0.3042  0.0027
16504TIP3    H170927   6.291   1.640  14.713 -1.2619 -0.2345 -1.1166
16504TIP3    H270928   6.279   1.750  14.816 -0.4358 -1.2194  0.0467
16505TIP3   OH270929   3.691   5.865   2.428  0.3736 -0.5799 -0.1549
16505TIP3    H170930   3.706   5.959   2.438  2.4772 -0.8096 -0.9507
16505TIP3    H270931   3.646   5.839   2.509 -0.1667  1.0923  0.0922
16506TIP3   OH270932   3.160   5.354  13.160  0.3413 -0.6254 -0.4002
16506TIP3    H170933   3.201   5.268  13.148  1.6455 -0.3651  1.8194
16506TIP3    H270934   3.068   5.341  13.135  0.9192 -2.1978 -1.7754
16507TIP3   OH270935   2.792   4.901  11.146 -0.5100 -0.1156 -0.6927
16507TIP3    H170936   2.740   4.860  11.214 -2.3544  0.8213 -1.5047
16507TIP3    H270937   2.763   4.860  11.064  1.1928 -0.7484 -1.0049
16508TIP3   OH270938   1.705   4.301  15.841 -0.3036 -0.2126  0.6169
16508TIP3    H170939   1.689   4.389  15.875 -0.1277 -1.1025  3.1236
16508TIP3    H270940   1.773   4.266  15.898 -1.1679 -2.3699  0.3516
16509TIP3   OH270941   4.737   1.132   0.736  0.1949 -0.1190 -0.2172
16509TIP3    H170942   4.705   1.222   0.739 -2.5146 -1.0687  1.1636
16509TIP3    H270943   4.708   1.099   0.651 -2.0641 -0.7782  0.7696
16510TIP3   OH270944   0.100   5.019  11.306  0.2458  0.2638 -0.0652
16510TIP3    H170945   0.108   4.979  11.220 -0.4582  0.1717 -0.0919
16510TIP3    H270946   0.185   5.060  11.321  0.2960  0.4839 -0.9065
16511TIP3   OH270947   2.036   0.270  16.501  1.0537  0.1056 -0.0554
16511TIP3    H170948   2.076   0.341  16.552  1.6737 -0.1710 -0.1605
16511TIP3    H270949   2.058   0.190  16.549  1.4919 -0.1407 -0.6571
16512TIP3   OH270950   6.118   1.516  12.773  0.0794 -0.0887 -0.2451
16512TIP3    H170951   6.061   1.574  12.823  1.2197  2.1357 -1.4272
16512TIP3    H270952   6.079   1.513  12.686 -0.1412 -1.3668 -0.1091
16513TIP3   OH270953   5.939   4.751   3.914 -0.4820 -0.4124 -0.1442
16513TIP3    H170954   5.870   4.815   3.930  0.5604  0.1538  2.2490
16513TIP3    H270955   5.911   4.673   3.962 -0.1162 -0.6610 -0.3324
16514TIP3   OH270956   0.675   5.586   1.235 -0.3398  0.0300  0.3037
16514TIP3    H170957   0.707   5.500   1.263  2.2116  1.0950  0.8568
16514TIP3    H270958   0.659   5.633   1.317  0.6068  0.8794  0.0120
16515TIP3   OH270959   3.479   6.277  13.215 -0.1896  0.2849  0.2979
16515TIP3    H170960   3.483   6.328  13.296 -0.7495 -0.5653  0.8730
16515TIP3    H270961   3.397   6.306  13.174 -0.0390  0.5248  0.1681
16516TIP3   OH270962   2.667   3.981  12.404  0.2487  0.0238 -0.0037
16516TIP3    H170963   2.717   3.992  12.323  1.1134  1.5203  0.7205
16516TIP3    H270964   2.576   3.982  12.377  0.4392  3.1715 -0.6865
16517TIP3   OH270965   4.237   5.736   3.681 -0.2055 -0.0102 -0.2748
16517TIP3    H170966   4.237   5.830   3.663 -0.7915 -0.3257 -1.9675
16517TIP3    H270967   4.231   5.695   3.595 -3.2643 -1.5549  0.6121
16518TIP3   OH270968   5.284   3.810  17.035 -0.4338 -0.3428 -0.1123
16518TIP3    H170969   5.332   3.809  16.952  0.7580 -0.5727  0.5681
16518TIP3    H270970   5.324   3.881  17.086 -1.2570 -0.1042  0.2014
16519TIP3   OH270971   0.609   6.732  13.364 -0.7132 -0.4943  0.1363
16519TIP3    H170972   0.600   6.774  13.450 -0.3936 -0.6368  0.2413
16519TIP3    H270973   0.564   6.791  13.304  1.1347  0.8648  0.0257
16520TIP3   OH270974   6.782   4.224  15.741  0.1302 -0.7640 -0.0627
16520TIP3    H170975   6.728   4.150  15.770 -0.8556 -0.0639 -0.0744
16520TIP3    H270976   6.801   4.205  15.649 -0.3567 -0.8680 -0.1432
16521TIP3   OH270977   4.871   0.668   1.908  0.0570 -0.0410 -0.3330
16521TIP3    H170978   4.859   0.640   1.817  0.4719  1.3158 -0.8172
16521TIP3    H270979   4.959   0.638   1.931  0.7470  1.3685 -1.0588
16522TIP3   OH270980   5.869   6.209   2.040 -0.5951  0.0182 -0.2876
16522TIP3    H170981   5.853   6.294   1.999 -1.7778  0.5314  1.1861
16522TIP3    H270982   5.834   6.145   1.977 -2.8263  0.8212  0.0946
16523TIP3   OH270983   5.357   2.180   2.046 -0.2183  0.1547 -0.7103
16523TIP3    H170984   5.346   2.197   1.952  0.0427 -2.5325 -1.2760
16523TIP3    H270985   5.318   2.094   2.059  0.1644  0.3038  1.5803
16524TIP3   OH270986   3.844   0.203   4.775 -0.2419 -0.5032  0.2136
16524TIP3    H170987   3.913   0.186   4.710 -1.4720 -0.2558 -1.1792
16524TIP3    H270988   3.819   0.294   4.760 -2.4172 -1.2328 -0.8156
16525TIP3   OH270989   2.404   3.362  15.227 -0.1087  0.5846  0.5033
16525TIP3    H170990   2.400   3.341  15.320 -1.5401 -0.1502  0.3031
16525TIP3    H270991   2.497   3.366  15.206  0.2166  0.8636  1.9859
16526TIP3   OH270992   1.504   5.623   4.712 -1.0431 -0.3020  0.5624
16526TIP3    H170993   1.543   5.657   4.631 -1.5613  0.5660  0.6664
16526TIP3    H270994   1.410   5.637   4.701 -1.1462 -0.5016  1.1700
16527TIP3   OH270995   4.030   0.475   5.969  0.0332 -0.2956  0.0697
16527TIP3    H170996   3.964   0.429   6.020  0.5763 -0.8401  0.2783
16527TIP3    H270997   4.004   0.567   5.975 -1.8018 -0.6852 -1.4337
16528TIP3   OH270998   0.513   0.636  16.837 -0.0875 -0.0716 -0.9604
16528TIP3    H170999   0.423   0.661  16.857  0.4490  0.9260  0.3303
16528TIP3    H271000   0.559   0.719  16.828  1.1674 -0.5729  0.6307
16529TIP3   OH271001   0.071   5.246   4.885  0.6326 -0.4332 -1.1526
16529TIP3    H171002   0.003   5.189   4.919  0.3917 -0.3318 -1.4631
16529TIP3    H271003   0.027   5.329   4.868  0.2885 -1.0649 -3.5814
16530TIP3   OH271004   3.796   1.415  12.323  0.0203 -0.3926  0.0436
16530TIP3    H171005   3.854   1.340  12.335  1.6703  0.2649 -3.1874
16530TIP3    H271006   3.752   1.397  12.240 -2.8485  0.1531  1.4187
16531TIP3   OH271007   4.608   3.351   0.293  0.2490 -0.6728  0.7694
16531TIP3    H171008   4.672   3.391   0.235 -1.5480  0.5139 -0.4528
16531TIP3    H271009   4.647   3.267   0.318  1.2560 -1.0326 -1.8450
16532TIP3   OH271010   1.259   6.680  14.707  0.4473  0.3377  0.0277
16532TIP3    H171011   1.320   6.737  14.753  0.4371  0.0072  0.4458
16532TIP3    H271012   1.175   6.725  14.712  0.5159  0.4653  0.0312
16533TIP3   OH271013   4.859   0.788  15.166  0.0815  0.1270 -1.0536
16533TIP3    H171014   4.908   0.765  15.245  0.4507 -0.3682 -1.4253
16533TIP3    H271015   4.790   0.722  15.160  1.3264 -1.0973 -2.2867
16534TIP3   OH271016   3.297   2.419  13.810 -0.4199 -0.8046 -0.1838
16534TIP3    H171017   3.382   2.450  13.779  0.6137 -0.1773  3.0786
16534TIP3    H271018   3.243   2.497  13.812 -0.4324 -0.8127 -0.2021
16535TIP3   OH271019   4.273   5.983  15.402  0.7455 -0.1218 -0.5948
16535TIP3    H171020   4.262   6.056  15.341  0.5505 -0.0937 -0.5270
16535TIP3    H271021   4.311   5.913  15.350 -1.5322 -0.8719 -1.3199
16536TIP3   OH271022   2.506   3.519   4.582  0.3076 -0.9377 -0.0978
16536TIP3    H171023   2.440   3.585   4.602 -0.8351 -1.7514 -1.1083
16536TIP3    H271024   2.588   3.568   4.578 -0.2744  0.1362  0.8587
16537TIP3   OH271025   2.533   3.513   2.606 -0.4222 -0.1941  0.7420
16537TIP3    H171026   2.451   3.557   2.630 -1.1945  0.0284 -2.1056
16537TIP3    H271027   2.505   3.426   2.577  0.1627  0.3673 -1.5860
16538TIP3   OH271028   2.698   0.050   3.991  0.1095  0.1485  0.6126
16538TIP3    H171029   2.758  -0.007   3.943 -1.1943  1.0584 -2.1451
16538TIP3    H271030   2.660  -0.008   4.058  1.6695 -1.2120  0.3756
16539TIP3   OH271031   1.057   1.138   3.476 -0.9360  0.1903 -0.1539
16539TIP3    H171032   1.024   1.141   3.386  0.1975 -0.6232 -0.6055
16539TIP3    H271033   1.090   1.227   3.492  0.1534 -0.0390 -1.0451
16540TIP3   OH271034   3.885   3.565  13.086  0.3011 -0.0428 -0.0204
16540TIP3    H171035   3.813   3.517  13.127  2.1218 -1.6789  1.4448
16540TIP3    H271036   3.881   3.541  12.994 -0.7773 -0.4873  0.1373
16541TIP3   OH271037   0.852   5.146  12.725 -0.3708  0.6747 -0.7570
16541TIP3    H171038   0.821   5.059  12.698 -0.2909  1.0983 -2.2785
16541TIP3    H271039   0.947   5.141  12.714 -0.3780  0.9845 -0.9604
16542TIP3   OH271040   2.989   1.534  12.246  0.2925  0.7041 -0.5243
16542TIP3    H171041   2.958   1.546  12.157  0.4244  2.1365 -0.3931
16542TIP3    H271042   3.082   1.512  12.237 -0.2622 -1.6266 -0.8304
16543TIP3   OH271043   5.527   2.860  14.066 -0.2772  0.1330  0.1363
16543TIP3    H171044   5.597   2.796  14.082 -0.3851 -0.4999 -1.7515
16543TIP3    H271045   5.531   2.919  14.141  0.2372 -1.7158  1.6108
16544TIP3   OH271046   5.830   4.841   5.051 -0.0612 -0.3234 -0.4955
16544TIP3    H171047   5.809   4.848   5.144 -0.2245  0.4973 -0.5931
16544TIP3    H271048   5.754   4.799   5.011 -0.5432  0.4990 -0.4630
16545TIP3   OH271049   1.433   2.300   1.251  0.4782 -0.2335  0.0137
16545TIP3    H171050   1.494   2.227   1.260  1.0236  0.2543  0.3392
16545TIP3    H271051   1.470   2.353   1.180  0.6478  0.2716  0.4777
16546TIP3   OH271052   0.050   3.687   2.361  0.0125  0.4436  0.1851
16546TIP3    H171053  -0.021   3.729   2.314 -0.1346  0.5553  0.5023
16546TIP3    H271054   0.015   3.673   2.449 -0.5056 -1.7909 -0.3462
16547TIP3   OH271055   5.105   2.297   5.847  0.2277  0.3687 -0.3139
16547TIP3    H171056   5.017   2.273   5.817 -0.0421 -0.1043  0.8144
16547TIP3    H271057   5.158   2.298   5.768 -0.1326 -2.2943 -0.6414
16548TIP3   OH271058   2.085   1.963   2.079 -0.0190  0.8236  0.4094
16548TIP3    H171059   2.076   1.882   2.029  0.4516  0.8183  0.3308
16548TIP3    H271060   2.165   2.003   2.045 -0.1021  1.1834  0.6410
16549TIP3   OH271061   5.144   2.105   2.444  0.3058 -0.3470 -0.4030
16549TIP3    H171062   5.075   2.156   2.401  0.2481 -0.3625 -0.3283
16549TIP3    H271063   5.098   2.053   2.509  0.5775  0.8450  0.7702
16550TIP3   OH271064   5.848   4.978   5.730  0.2504 -0.2394  0.0770
16550TIP3    H171065   5.905   5.050   5.705 -0.0362  0.4579  1.3845
16550TIP3    H271066   5.768   4.991   5.680 -0.0531  0.7386  0.8028
16551TIP3   OH271067   4.669   0.311  12.511  0.4347  0.2711  0.6186
16551TIP3    H171068   4.743   0.274  12.464  0.7687  0.8006  0.7279
16551TIP3    H271069   4.605   0.333  12.442  0.9154  1.0274  0.4037
16552TIP3   OH271070   6.139   0.829   1.039  0.1783 -0.1405 -0.0721
16552TIP3    H171071   6.114   0.760   1.101 -0.9485 -0.0656 -0.4323
16552TIP3    H271072   6.220   0.865   1.075  0.6270 -1.4545  0.2703
16553TIP3   OH271073   5.797   5.411  10.915 -0.1584  0.7022 -0.2152
16553TIP3    H171074   5.892   5.399  10.910 -0.3317 -0.7434 -0.2752
16553TIP3    H271075   5.761   5.324  10.897 -1.4405  0.8506  1.5319
16554TIP3   OH271076   4.679   5.479  13.872  0.4362  0.0089 -0.2135
16554TIP3    H171077   4.682   5.409  13.937  1.4110 -0.3813 -0.6667
16554TIP3    H271078   4.607   5.536  13.901  0.1228 -0.7711  0.5677
16555TIP3   OH271079   4.546   1.326   0.071  0.3354 -0.0736  0.0331
16555TIP3    H171080   4.489   1.330   0.148 -0.7781  1.1683 -0.8336
16555TIP3    H271081   4.631   1.358   0.101  0.3545 -1.1455  1.1358
16556TIP3   OH271082   1.653   5.515   1.536  0.2727 -0.4990 -0.2612
16556TIP3    H171083   1.580   5.460   1.507 -1.0311  0.9176  0.2627
16556TIP3    H271084   1.697   5.463   1.603 -0.0532 -1.4843 -0.7922
16557TIP3   OH271085   2.225   6.577  16.768 -0.3002  0.3835 -0.0753
16557TIP3    H171086   2.253   6.667  16.751 -0.9012  0.6599  0.4033
16557TIP3    H271087   2.251   6.529  16.690 -0.1737  1.0172 -0.4256
16558TIP3   OH271088   6.080   3.436   4.829 -0.2690  0.1507 -0.3565
16558TIP3    H171089   6.029   3.360   4.856  1.6758 -0.7470  0.9588
16558TIP3    H271090   6.123   3.466   4.909  1.1496  0.9431 -1.3792
16559TIP3   OH271091   0.590   2.557   3.644  0.3304 -0.1687  0.0633
16559TIP3    H171092   0.680   2.543   3.675  0.0080 -2.8647 -0.1550
16559TIP3    H271093   0.535   2.513   3.709 -0.8398  1.0835 -0.0474
16560TIP3   OH271094   3.419   3.924   0.402  0.0314  0.0202  0.2851
16560TIP3    H171095   3.402   4.017   0.388  0.7106  0.1129  0.0746
16560TIP3    H271096   3.426   3.887   0.314  3.5975  0.4734  0.3109
16561TIP3   OH271097   3.424   4.860   4.997  0.2843  0.6423  0.6598
16561TIP3    H171098   3.342   4.811   4.995  0.8022 -0.2352  0.4616
16561TIP3    H271099   3.398   4.952   4.991 -0.7708  0.4577  2.2345
16562TIP3   OH271100   1.759   2.990   1.583 -0.0361 -0.0054  0.0878
16562TIP3    H171101   1.801   2.906   1.565  0.0625  0.0095  0.2429
16562TIP3    H271102   1.799   3.019   1.665  0.1014  0.3026 -0.0852
16563TIP3   OH271103   5.014   2.657  13.487  0.4636 -0.3422 -0.5025
16563TIP3    H171104   4.954   2.601  13.439  0.2533  0.1226 -0.7786
16563TIP3    H271105   4.989   2.746  13.464  0.0291 -0.0920  0.8576
16564TIP3   OH271106   2.662   4.444   2.556 -0.1726  0.9957  0.3220
16564TIP3    H171107   2.745   4.423   2.513  0.2420 -1.3688  2.1183
16564TIP3    H271108   2.599   4.450   2.485  0.7544 -1.4311 -0.7674
16565TIP3   OH271109   6.765   3.441  10.591 -0.6925 -0.4203 -0.1145
16565TIP3    H171110   6.765   3.346  10.591  0.0955 -0.4209  0.1821
16565TIP3    H271111   6.735   3.465  10.679  0.8862 -0.4037  0.4362
16566TIP3   OH271112   5.202   2.229  12.263  0.1324 -0.2143  0.3167
16566TIP3    H171113   5.147   2.154  12.286  0.1750 -0.4444 -0.3181
16566TIP3    H271114   5.278   2.190  12.218  0.0722  0.2196 -0.1661
16567TIP3   OH271115   3.881   3.987   0.978  0.1573 -0.5482 -0.6473
16567TIP3    H171116   3.967   4.006   0.941 -0.0469  0.6784 -0.5230
16567TIP3    H271117   3.887   3.897   1.008  0.7727 -1.1218 -2.4239
16568TIP3   OH271118   4.460   5.667   3.869  0.3770 -0.3204  0.0157
16568TIP3    H171119   4.381   5.685   3.817  2.2095  2.0696 -2.1355
16568TIP3    H271120   4.470   5.745   3.923  1.3899 -0.5109  0.1019
16569TIP3   OH271121   5.770   1.551   5.425 -0.0318  0.2514 -0.3404
16569TIP3    H171122   5.807   1.636   5.400  0.3555 -0.0721 -0.8604
16569TIP3    H271123   5.682   1.551   5.387 -0.0893  0.4832 -0.2085
16570TIP3   OH271124   6.301   0.155  12.969  0.1419 -0.0812 -0.4293
16570TIP3    H171125   6.275   0.126  13.057  0.4662 -0.5748 -0.4949
16570TIP3    H271126   6.385   0.200  12.983 -1.2874  2.6052 -0.0295
16571TIP3   OH271127   5.776   4.807   0.051 -0.6253  0.3330  0.1659
16571TIP3    H171128   5.699   4.806  -0.006 -1.5807  1.2211  1.4000
16571TIP3    H271129   5.779   4.719   0.088 -1.0900  0.3017  0.1408
16572TIP3   OH271130   3.058   0.238  12.383 -0.4064 -0.2235 -0.0819
16572TIP3    H171131   3.041   0.165  12.442 -0.0143  1.2822  1.9548
16572TIP3    H271132   3.115   0.203  12.315 -1.0670 -2.0498  0.2998
16573TIP3   OH271133   6.585   5.224   2.843  0.9071 -0.5437 -0.3205
16573TIP3    H171134   6.649   5.220   2.771  2.0602  0.0596  0.6383
16573TIP3    H271135   6.629   5.276   2.911 -0.0680 -1.3063  0.9192
16574TIP3   OH271136   2.715   2.458   2.166  0.9030  0.0968 -0.1726
16574TIP3    H171137   2.809   2.448   2.150  0.7084 -0.0694 -1.2813
16574TIP3    H271138   2.704   2.551   2.186  0.9283  0.7471 -2.9324
16575TIP3   OH271139   0.015   2.474   1.593  0.1864 -0.0688  0.2041
16575TIP3    H171140   0.034   2.396   1.542 -3.8510 -1.2869  0.3855
16575TIP3    H271141   0.043   2.453   1.682  0.7092 -0.6293 -0.0916
16576TIP3   OH271142   4.036   4.048   1.991  0.2239  0.3342 -0.3662
16576TIP3    H171143   4.122   4.011   2.011  0.2415 -0.1118 -1.2662
16576TIP3    H271144   4.026   4.036   1.896 -1.2648 -0.5320 -0.1118
16577TIP3   OH271145   4.943   3.908  13.715  0.2839 -0.2723 -0.1851
16577TIP3    H171146   4.878   3.899  13.784 -0.2349  1.6685 -0.3771
16577TIP3    H271147   5.001   3.979  13.745  1.9206 -1.5292 -0.3210
16578TIP3   OH271148   6.053   1.496   1.517  0.6321 -0.3010  0.3357
16578TIP3    H171149   6.096   1.491   1.432 -1.8040  2.5591 -1.1472
16578TIP3    H271150   5.965   1.462   1.502 -0.9016  3.1889  0.8229
16579TIP3   OH271151   1.674   0.656   3.200 -0.1192 -0.0646  0.2737
16579TIP3    H171152   1.746   0.719   3.193 -0.7772  0.6575  0.0614
16579TIP3    H271153   1.711   0.585   3.253  1.0395 -0.1060 -0.5643
16580TIP3   OH271154   1.974   3.202   3.342  0.0663 -0.1789  0.8889
16580TIP3    H171155   2.032   3.224   3.415  1.8018 -0.7810 -0.2743
16580TIP3    H271156   1.921   3.280   3.329  0.6696  0.4118  1.9333
16581TIP3   OH271157   1.115   1.601   2.225 -0.3307  0.1136  0.3548
16581TIP3    H171158   1.058   1.674   2.201 -0.5218 -0.4767 -1.0457
16581TIP3    H271159   1.084   1.528   2.172  1.4256 -0.3365 -0.1079
16582TIP3   OH271160   0.214   3.870  16.156 -0.3204  0.5011 -0.6376
16582TIP3    H171161   0.287   3.865  16.217 -0.5016 -1.0451 -0.5235
16582TIP3    H271162   0.246   3.926  16.085  0.9046  0.0182 -0.4790
16583TIP3   OH271163   5.196   2.508  13.102  0.1473  0.0685 -0.2991
16583TIP3    H171164   5.108   2.496  13.136  0.5126 -1.9908 -0.0297
16583TIP3    H271165   5.239   2.565  13.166 -0.6795  0.2483  0.0958
16584TIP3   OH271166   2.905   4.674  13.422 -0.4115 -0.1564 -0.3151
16584TIP3    H171167   2.975   4.610  13.429 -0.1475 -0.0050 -1.4245
16584TIP3    H271168   2.930   4.744  13.481  1.4901  0.8993 -2.2827
16585TIP3   OH271169   2.946   2.169  12.135  0.2067 -0.0460  0.5376
16585TIP3    H171170   3.013   2.221  12.181  0.5495  0.9257 -1.0271
16585TIP3    H271171   2.984   2.081  12.131 -0.0055 -0.2636  2.4435
16586TIP3   OH271172   1.786   0.290  10.646 -0.4469  0.3913 -0.1596
16586TIP3    H171173   1.816   0.202  10.623 -0.6968  0.6482 -1.5411
16586TIP3    H271174   1.714   0.308  10.585  0.0513  1.8134 -0.3595
16587TIP3   OH271175   6.196   2.639   3.369  0.1549 -0.3112  0.2647
16587TIP3    H171176   6.187   2.544   3.356  0.8588 -0.3164 -0.1874
16587TIP3    H271177   6.279   2.661   3.328 -0.4594  0.6681 -0.4624
16588TIP3   OH271178   5.290   0.252   5.065 -0.3211 -0.0794  0.5643
16588TIP3    H171179   5.256   0.217   4.983  1.8117 -0.4347 -0.1892
16588TIP3    H271180   5.297   0.346   5.051 -0.5255 -0.0640  0.5611
16589TIP3   OH271181   5.615   1.599   0.299 -0.0332  0.1957 -0.1045
16589TIP3    H171182   5.527   1.636   0.293  0.3308  0.8210 -1.7371
16589TIP3    H271183   5.606   1.525   0.359 -0.9727  2.3477  2.5215
16590TIP3   OH271184   4.947   1.691  12.087 -0.4770  0.8945 -0.2536
16590TIP3    H171185   4.948   1.783  12.060 -2.0420  0.6720 -1.1165
16590TIP3    H271186   4.904   1.691  12.172 -2.5644  0.7277 -1.2726
16591TIP3   OH271187   0.389   1.419  16.416  0.2515  0.6557 -0.1245
16591TIP3    H171188   0.420   1.375  16.496 -0.0188  0.2464 -0.2469
16591TIP3    H271189   0.439   1.378  16.345  2.5067  2.9004  0.0853
16592TIP3   OH271190   5.179   5.359   6.622  0.0936  0.0497  0.1966
16592TIP3    H171191   5.190   5.447   6.657 -0.8302  0.3698 -0.3058
16592TIP3    H271192   5.193   5.301   6.697  1.6609  0.5683  0.3210
16593TIP3   OH271193   4.414   5.062  16.626 -0.3806  0.1881  0.1384
16593TIP3    H171194   4.361   5.125  16.674 -1.7873 -1.2286  0.5049
16593TIP3    H271195   4.384   5.071  16.535  0.5143  1.1202 -0.0682
16594TIP3   OH271196   4.546   1.192  14.469  0.2530  0.0450  0.1530
16594TIP3    H171197   4.590   1.269  14.433 -1.4457  0.7360 -0.4932
16594TIP3    H271198   4.522   1.217  14.558  0.4345 -0.0414  0.2268
16595TIP3   OH271199   3.026   6.388   1.770 -0.2433  0.1649  0.0692
16595TIP3    H171200   2.955   6.425   1.821 -0.2626  0.2302 -0.0056
16595TIP3    H271201   3.072   6.463   1.733  1.5057  0.2415  2.2956
16596TIP3   OH271202   1.559   3.953  16.148  0.6283 -0.4341  0.6116
16596TIP3    H171203   1.593   3.942  16.237 -1.8816  3.3240  2.1400
16596TIP3    H271204   1.625   4.006  16.104  0.3317  0.4808  1.2581
16597TIP3   OH271205   6.113   4.094   0.721 -0.5334 -0.1351 -0.1811
16597TIP3    H171206   6.066   4.013   0.702 -0.3989 -0.1095 -0.6174
16597TIP3    H271207   6.054   4.142   0.780 -1.1207 -0.0426 -0.8339
16598TIP3   OH271208   4.985   2.365  10.665  0.2834  0.2095 -0.2260
16598TIP3    H171209   4.919   2.351  10.597 -0.4218  1.7089  0.1083
16598TIP3    H271210   5.065   2.327  10.630 -0.7271 -1.4917 -0.7141
16599TIP3   OH271211   5.747   5.386  15.247  0.5093 -0.2157  0.1563
16599TIP3    H171212   5.713   5.411  15.333 -0.8642  0.0788 -0.4630
16599TIP3    H271213   5.821   5.444  15.232 -1.0146  1.6840 -0.1037
16600TIP3   OH271214   0.569   6.120  14.305  0.0007 -0.1973  0.4007
16600TIP3    H171215   0.490   6.137  14.357 -0.1068  1.0312 -0.1379
16600TIP3    H271216   0.555   6.169  14.224  0.5304 -1.4305 -0.4539
16601TIP3   OH271217   5.207   3.167   0.599 -0.2001  0.4825 -0.2885
16601TIP3    H171218   5.178   3.251   0.565  0.6218  0.5895 -0.7557
16601TIP3    H271219   5.219   3.112   0.522  1.7972  0.7655 -0.2172
16602TIP3   OH271220   2.527   2.697  11.958  0.0693 -0.7550 -0.5043
16602TIP3    H171221   2.533   2.618  11.905 -1.0321 -0.9668 -0.3110
16602TIP3    H271222   2.605   2.694  12.014 -0.2212 -1.9425 -0.1602
16603TIP3   OH271223   0.693   3.172   5.809 -0.2462 -0.3398  0.2927
16603TIP3    H171224   0.648   3.183   5.892  0.6927  1.1292  0.6334
16603TIP3    H271225   0.725   3.259   5.787  3.0517 -1.3968  0.4645
16604TIP3   OH271226   2.567   4.265  15.811  0.4537  0.3592  0.2853
16604TIP3    H171227   2.516   4.339  15.780  0.9534 -0.1526 -1.8366
16604TIP3    H271228   2.551   4.263  15.906 -1.3553  1.7700  0.0392
16605TIP3   OH271229   6.190   3.817  12.778 -0.1599  0.4224  0.9006
16605TIP3    H171230   6.131   3.801  12.704  0.5519  0.1305  0.3894
16605TIP3    H271231   6.150   3.768  12.851 -0.5708  0.2588  0.5719
16606TIP3   OH271232   1.364   0.568   4.322  0.7760 -0.3717 -0.4438
16606TIP3    H171233   1.348   0.583   4.415 -0.2044 -0.4768 -0.5918
16606TIP3    H271234   1.277   0.559   4.284  1.1014  1.3032 -1.6487
16607TIP3   OH271235   1.633   5.194  16.114 -0.3545  0.1917  0.1788
16607TIP3    H171236   1.549   5.230  16.086 -1.5041 -2.3552  0.1942
16607TIP3    H271237   1.613   5.106  16.144  2.4064 -0.6936 -0.3688
16608TIP3   OH271238   4.492   3.472  13.571  0.0446  0.1744  0.9022
16608TIP3    H171239   4.407   3.435  13.594 -0.4735  0.7785 -0.0595
16608TIP3    H271240   4.555   3.406  13.602 -0.6824  0.3982  2.9512
16609TIP3   OH271241   4.998   2.349   6.113  0.1801 -0.2235 -0.1824
16609TIP3    H171242   5.040   2.292   6.177 -0.2098 -0.5017 -0.1765
16609TIP3    H271243   5.042   2.327   6.030  2.0201  1.4827  0.3063
16610TIP3   OH271244   2.707   5.572   0.703 -0.1916 -0.1391 -0.5391
16610TIP3    H171245   2.735   5.632   0.634 -0.9301  1.0693  0.1971
16610TIP3    H271246   2.703   5.625   0.782  0.6559 -1.5134  0.4571
16611TIP3   OH271247   5.505   6.430   6.656 -0.1657  0.0592 -0.1928
16611TIP3    H171248   5.412   6.429   6.633 -0.3393  1.1541  0.4587
16611TIP3    H271249   5.509   6.470   6.743  0.8191 -0.9461  0.2410
16612TIP3   OH271250   2.296   1.185  15.471 -0.1855  0.4655 -0.3020
16612TIP3    H171251   2.263   1.240  15.542 -0.0328  0.4137 -0.1897
16612TIP3    H271252   2.225   1.123  15.453 -0.2597  0.5385 -0.2579
16613TIP3   OH271253   1.050   4.324  10.789 -0.3485 -0.4868  0.2944
16613TIP3    H171254   1.100   4.405  10.787  0.4980 -1.0016  0.3808
16613TIP3    H271255   0.964   4.347  10.752  0.3462  0.1293 -0.9425
16614TIP3   OH271256   6.284   6.530  11.438  0.1124  0.0027 -0.3736
16614TIP3    H171257   6.353   6.531  11.372  1.3964 -1.4812  0.8940
16614TIP3    H271258   6.273   6.438  11.460 -0.3371  0.4496  1.4054
16615TIP3   OH271259   0.897   3.479  10.661 -0.1728 -0.3512 -0.4603
16615TIP3    H171260   0.863   3.563  10.629  0.7761 -0.3467 -1.4906
16615TIP3    H271261   0.877   3.417  10.590  0.7535 -0.6189 -0.4884
16616TIP3   OH271262   2.172   1.396  16.452  0.1496 -0.0823 -0.5037
16616TIP3    H171263   2.193   1.319  16.505  0.7943  0.6333  0.2943
16616TIP3    H271264   2.249   1.408  16.397  0.5491  0.6735  0.2030
16617TIP3   OH271265   3.503   1.819   6.384 -0.7261  0.5203  0.4401
16617TIP3    H171266   3.417   1.832   6.344 -1.1389 -1.4795  0.6399
16617TIP3    H271267   3.519   1.900   6.432 -3.2084  0.3226  1.6955
16618TIP3   OH271268   4.158   2.435  15.244  0.0719 -0.2834  0.3696
16618TIP3    H171269   4.071   2.414  15.278 -0.5453 -1.3350 -1.7883
16618TIP3    H271270   4.173   2.370  15.174  1.1673  1.9681 -1.5449
16619TIP3   OH271271   2.113   2.228  15.085  0.1635  0.4277  0.2815
16619TIP3    H171272   2.185   2.291  15.079 -0.3240  0.9754  0.0928
16619TIP3    H271273   2.146   2.149  15.042  0.5979  0.7231  0.0661
16620TIP3   OH271274   3.377   3.423   4.739  0.0663  0.0774  0.2532
16620TIP3    H171275   3.458   3.384   4.705  0.1113  0.0587  0.3841
16620TIP3    H271276   3.316   3.349   4.746 -0.0057  0.1134  0.0266
16621TIP3   OH271277   4.872   4.121   5.039 -0.1506 -0.1234 -0.4579
16621TIP3    H171278   4.822   4.095   5.117  1.3227 -1.5995  0.0134
16621TIP3    H271279   4.903   4.209   5.060  0.1082 -0.4475  0.5815
16622TIP3   OH271280   0.208   1.778  14.635 -0.2184  0.3873 -0.5520
16622TIP3    H171281   0.239   1.788  14.725 -1.1947 -2.1576  0.1152
16622TIP3    H271282   0.287   1.767  14.583  0.2490 -0.5590  0.3426
16623TIP3   OH271283   4.730   3.571   1.469  0.0150 -0.3743 -0.0403
16623TIP3    H171284   4.672   3.571   1.545 -1.2072  1.4423 -0.9343
16623TIP3    H271285   4.726   3.482   1.435 -0.5129 -0.8378  1.1999
16624TIP3   OH271286   5.075   2.108  14.732  0.4482 -0.0376 -0.3575
16624TIP3    H171287   5.156   2.100  14.783 -0.1127 -1.3104  0.3710
16624TIP3    H271288   5.095   2.068  14.648  0.7836  0.2670 -0.4209
16625TIP3   OH271289   4.122   2.904   4.137  0.0021 -0.1910  0.1627
16625TIP3    H171290   4.033   2.875   4.161 -0.4823  2.3365  1.6162
16625TIP3    H271291   4.179   2.843   4.184 -0.9543 -1.3365 -0.1197
16626TIP3   OH271292   2.093   4.109  13.237 -0.2799  0.0437  0.0864
16626TIP3    H171293   2.167   4.055  13.208 -2.2112 -2.7233  0.0560
16626TIP3    H271294   2.100   4.189  13.185  1.0638 -1.3667 -1.9933
16627TIP3   OH271295   4.527   1.441  12.278  0.0129  0.2208  0.7524
16627TIP3    H171296   4.433   1.454  12.278 -0.2690 -1.6998  0.1534
16627TIP3    H271297   4.557   1.483  12.359 -1.7028 -1.4052  2.2662
16628TIP3   OH271298   2.255   2.407   3.853 -0.1286 -0.5164 -0.4958
16628TIP3    H171299   2.273   2.471   3.785  0.7703  0.1443  0.3443
16628TIP3    H271300   2.341   2.388   3.892 -0.5336 -1.3876  0.0015
16629TIP3   OH271301   2.794   6.568   1.925 -0.0685  0.7984  0.3688
16629TIP3    H171302   2.806   6.591   1.833 -1.0030 -0.4531 -0.0751
16629TIP3    H271303   2.799   6.652   1.971 -2.6039  1.8679 -1.1518
16630TIP3   OH271304   2.401   4.914   4.213 -0.1955 -0.0198 -0.4390
16630TIP3    H171305   2.448   4.900   4.295  1.7588  2.6875 -1.0275
16630TIP3    H271306   2.330   4.974   4.236 -1.7189 -1.8634 -0.1321
16631TIP3   OH271307   6.487   5.309  14.141 -0.4341  0.1633  0.3402
16631TIP3    H171308   6.509   5.402  14.135  1.8836 -0.3523  0.3574
16631TIP3    H271309   6.492   5.289  14.235  1.1857 -0.4467  0.1351
16632TIP3   OH271310   6.100   1.479  14.063  0.0123  0.0835  0.1445
16632TIP3    H171311   6.157   1.495  13.987  1.1846  1.1705  1.2328
16632TIP3    H271312   6.011   1.480  14.027  0.5147  1.2927 -1.1114
16633TIP3   OH271313   6.545   4.435   4.040  0.3082 -0.7933  1.1514
16633TIP3    H171314   6.555   4.360   3.981  0.2197 -1.0239  1.4275
16633TIP3    H271315   6.459   4.472   4.018  0.9571  0.0827  0.0444
16634TIP3   OH271316   0.605   2.765  14.751  0.4356 -0.0854  0.3012
16634TIP3    H171317   0.558   2.778  14.669 -0.2430  2.1224  1.0132
16634TIP3    H271318   0.538   2.769  14.819  1.2149 -0.2145  1.0947
16635TIP3   OH271319   1.133   5.810   3.245  0.4275  0.0328 -0.4458
16635TIP3    H171320   1.145   5.760   3.325  4.2124 -1.1658 -1.6577
16635TIP3    H271321   1.091   5.750   3.184  1.7000 -0.5467 -0.7657
16636TIP3   OH271322   2.141   1.791   1.649  0.1080 -0.2147  0.4513
16636TIP3    H171323   2.097   1.851   1.589  0.4620  0.4937  0.9009
16636TIP3    H271324   2.091   1.798   1.731 -0.3612 -1.1642  0.2549
16637TIP3   OH271325   6.166   5.335  17.169  0.3604 -1.1242  0.3461
16637TIP3    H171326   6.199   5.299  17.087  0.3258 -1.1397  0.3393
16637TIP3    H271327   6.146   5.427  17.149 -1.2563 -1.5635 -0.1328
16638TIP3   OH271328   0.908   1.818  15.650 -0.0463 -0.7364 -0.4520
16638TIP3    H171329   0.871   1.874  15.581  1.1939  0.6380 -0.0297
16638TIP3    H271330   0.833   1.794  15.704 -0.6108  0.4961 -0.6615
16639TIP3   OH271331   6.213   3.306   2.297 -0.3638  0.0404  0.6647
16639TIP3    H171332   6.198   3.277   2.387  0.0475 -0.6173  0.5296
16639TIP3    H271333   6.234   3.399   2.304 -2.2929  0.4629  1.0607
16640TIP3   OH271334   1.192   6.778   2.552  0.0448  0.1830 -0.1345
16640TIP3    H171335   1.218   6.789   2.460 -0.6533  0.8573 -0.2606
16640TIP3    H271336   1.139   6.855   2.571  1.3974  0.7760  1.2942
16641TIP3   OH271337   0.634   4.535  14.711  0.0344  0.0090 -0.2446
16641TIP3    H171338   0.663   4.509  14.624 -0.3125 -0.1693 -0.3052
16641TIP3    H271339   0.668   4.624  14.722  1.5799 -0.6117  0.1324
16642TIP3   OH271340   4.019   2.329   3.578 -0.2598 -0.6896 -0.1982
16642TIP3    H171341   4.052   2.254   3.628 -0.0142 -0.2874  0.2507
16642TIP3    H271342   3.963   2.290   3.511 -3.2033 -1.0675  2.3498
16643TIP3   OH271343   3.077   0.397   4.328  0.0301 -0.5161 -0.9963
16643TIP3    H171344   3.035   0.377   4.411 -0.0185 -1.4909 -1.2510
16643TIP3    H271345   3.167   0.420   4.351 -0.1008 -0.3758 -0.6346
16644TIP3   OH271346   4.809   1.078  11.828 -0.3861 -0.2301 -0.5393
16644TIP3    H171347   4.851   1.130  11.896  0.4405 -0.1127 -1.1276
16644TIP3    H271348   4.786   1.141  11.760  1.3545 -0.7060 -1.6155
16645TIP3   OH271349   6.190   6.560   5.587  0.5658  0.1674  0.8302
16645TIP3    H171350   6.103   6.529   5.563  0.3737  1.7194 -0.5191
16645TIP3    H271351   6.218   6.500   5.657  0.0023 -2.6993 -1.3097
16646TIP3   OH271352   6.113   1.461   5.530  0.4513 -0.0050  0.1704
16646TIP3    H171353   6.123   1.404   5.606  0.2878 -1.1010 -0.6174
16646TIP3    H271354   6.070   1.539   5.565 -3.0856 -2.0122  0.5807
16647TIP3   OH271355   2.262   6.177   2.427  0.2171 -0.0435  0.4931
16647TIP3    H171356   2.170   6.173   2.402  0.4850  0.1566 -0.5733
16647TIP3    H271357   2.301   6.099   2.389  0.8591  0.8457 -0.7359
16648TIP3   OH271358   2.883   6.593  14.470 -0.1437  0.3305  0.0687
16648TIP3    H171359   2.891   6.684  14.498  1.2782  1.0174 -2.4533
16648TIP3    H271360   2.912   6.542  14.546 -1.0016  1.9536  1.5171
16649TIP3   OH271361   0.260   0.741  16.834 -0.2774  0.6486  0.2420
16649TIP3    H171362   0.230   0.795  16.761 -0.4700  0.6180  0.2991
16649TIP3    H271363   0.189   0.746  16.898 -0.6010 -0.2129 -0.0384
16650TIP3   OH271364   0.463   6.501  14.445 -0.6797 -0.5247 -0.3183
16650TIP3    H171365   0.389   6.443  14.464 -0.5252 -0.3806  0.7796
16650TIP3    H271366   0.540   6.446  14.461 -0.5177  0.2231  1.6297
16651TIP3   OH271367   0.894   5.216   3.669  0.5697 -0.0261  0.1615
16651TIP3    H171368   0.988   5.227   3.679  1.2165 -2.7054 -2.4456
16651TIP3    H271369   0.876   5.127   3.700 -0.6795 -0.4492 -1.6471
16652TIP3   OH271370   4.914   6.159   4.524 -0.1126 -0.1946  0.2981
16652TIP3    H171371   4.958   6.228   4.474 -0.9200  0.9579  1.1628
16652TIP3    H271372   4.971   6.143   4.599 -0.2262 -0.0479  0.4147
16653TIP3   OH271373   1.504   6.022  13.395  0.0394 -0.2359  0.5018
16653TIP3    H171374   1.426   5.980  13.358  0.4122  1.6296 -2.5344
16653TIP3    H271375   1.473   6.108  13.423  1.1854  0.9247 -1.6895
16654TIP3   OH271376   2.818   2.876  14.795  0.0491  0.3724 -0.4513
16654TIP3    H171377   2.822   2.907  14.885 -1.7927  0.3705 -0.3632
16654TIP3    H271378   2.770   2.794  14.799  2.0895 -0.9007 -1.1339
16655TIP3   OH271379   6.278   6.097   2.731 -0.1809 -0.1388  0.4591
16655TIP3    H171380   6.281   6.160   2.659 -0.0564 -2.6077 -1.7652
16655TIP3    H271381   6.193   6.053   2.720  0.1392 -0.9962  1.4193
16656TIP3   OH271382   5.530   3.979  12.901  0.1941  0.1798  0.0623
16656TIP3    H171383   5.456   3.919  12.887 -0.8680  1.4847 -0.0412
16656TIP3    H271384   5.503   4.032  12.976  1.2633  0.3248  0.3468
16657TIP3   OH271385   1.430   4.642   2.022 -0.6040  0.3722  0.4121
16657TIP3    H171386   1.486   4.692   2.081 -1.6305  1.4561  0.4800
16657TIP3    H271387   1.346   4.637   2.067  0.3143 -4.2636  1.9484
16658TIP3   OH271388   3.950   6.524   5.498 -0.0644  0.0478 -0.0607
16658TIP3    H171389   3.969   6.515   5.592 -1.1774  1.2725  0.2962
16658TIP3    H271390   4.036   6.518   5.456  0.1276 -3.7597  0.7305
16659TIP3   OH271391   0.263   2.670  12.373 -0.4577  0.5387  0.3284
16659TIP3    H171392   0.269   2.666  12.278  3.4743 -1.1903  0.5469
16659TIP3    H271393   0.194   2.607  12.395  1.1286 -1.8709 -1.2595
16660TIP3   OH271394   3.257   0.682  11.938 -0.1172 -0.6085  0.0424
16660TIP3    H171395   3.259   0.595  11.898  2.0868 -0.1317 -0.9870
16660TIP3    H271396   3.189   0.676  12.005 -0.5701 -2.8748 -0.5724
16661TIP3   OH271397   2.386   1.904   2.288 -0.3880  0.6108 -0.4850
16661TIP3    H171398   2.428   1.982   2.324 -0.0142  0.1641  0.0607
16661TIP3    H271399   2.387   1.917   2.193 -0.1485  1.1738 -0.4052
16662TIP3   OH271400   1.036   4.688  14.241  0.5668 -0.2079 -0.5041
16662TIP3    H171401   1.091   4.762  14.267  0.7410 -1.1452  1.9905
16662TIP3    H271402   1.085   4.646  14.170  1.5013  0.8265 -0.4952
16663TIP3   OH271403   6.125   2.947  14.732  0.2553 -0.0565 -0.1298
16663TIP3    H171404   6.088   2.945  14.820 -0.6596 -3.7134 -0.5273
16663TIP3    H271405   6.220   2.947  14.746  0.1180 -1.1755  0.8734
16664TIP3   OH271406   2.623   1.968   5.972 -0.2018  0.0075 -0.2055
16664TIP3    H171407   2.715   1.947   5.957 -0.6789 -1.5262 -1.1173
16664TIP3    H271408   2.616   1.984   6.066  1.1640  1.0141 -0.2678
16665TIP3   OH271409   5.171   0.504  10.578  0.1774  0.4107  0.1777
16665TIP3    H171410   5.209   0.581  10.535  0.8756 -0.5469 -0.9702
16665TIP3    H271411   5.144   0.447  10.506 -3.1893  0.8950  0.9759
16666TIP3   OH271412   6.075   3.131  13.025  0.1747 -0.4260 -0.0003
16666TIP3    H171413   6.105   3.208  13.073 -0.4727  0.4217 -0.9615
16666TIP3    H271414   6.148   3.069  13.031  0.1713 -0.2723  1.9300
16667TIP3   OH271415   6.273   4.256  11.974 -0.1236  0.1629  0.0327
16667TIP3    H171416   6.179   4.240  11.968 -0.7219  3.3851 -0.2682
16667TIP3    H271417   6.313   4.171  11.959 -2.9595 -1.0104 -1.2719
16668TIP3   OH271418   0.435   0.468   2.140  0.3902  0.0695  0.2554
16668TIP3    H171419   0.521   0.429   2.125 -0.0023 -0.8831  0.4051
16668TIP3    H271420   0.429   0.540   2.078  1.1381 -0.1224 -0.0366
16669TIP3   OH271421   4.340   3.260   0.272  0.1257 -0.2685  0.0038
16669TIP3    H171422   4.426   3.297   0.256  0.2251  0.0464  1.1699
16669TIP3    H271423   4.278   3.328   0.246  0.2832  0.3027  1.0856
16670TIP3   OH271424   4.541   0.184   5.348 -0.2832 -0.1468 -0.9969
16670TIP3    H171425   4.498   0.160   5.430  0.9932 -1.1570 -0.6113
16670TIP3    H271426   4.478   0.159   5.280 -0.3796 -1.4992 -0.4381
16671TIP3   OH271427   2.779   1.201   3.932 -0.0046  0.0977  0.1922
16671TIP3    H171428   2.685   1.184   3.935  0.0483 -0.3372 -0.5235
16671TIP3    H271429   2.786   1.296   3.932 -0.3852  0.1467  1.7449
16672TIP3   OH271430   2.689   0.727  16.689 -0.5637 -0.3005  0.1281
16672TIP3    H171431   2.690   0.823  16.694 -0.0192 -0.3353  0.8224
16672TIP3    H271432   2.781   0.702  16.700 -0.7481 -0.9146  0.2689
16673TIP3   OH271433   0.439   2.645   0.603  0.0308  0.1941  0.7538
16673TIP3    H171434   0.435   2.691   0.519  3.8568 -0.2130  0.2895
16673TIP3    H271435   0.374   2.575   0.594 -0.3601  0.7939 -1.4738
16674TIP3   OH271436   1.510   6.680   5.835 -0.8248  0.5425 -0.1205
16674TIP3    H171437   1.574   6.608   5.841 -0.4644  0.8531 -0.1975
16674TIP3    H271438   1.439   6.645   5.782 -0.2140  0.5529 -0.9620
16675TIP3   OH271439   4.887   5.349   1.439 -0.0705  0.5064 -0.1899
16675TIP3    H171440   4.816   5.411   1.422 -0.2111 -0.1554 -2.0840
16675TIP3    H271441   4.848   5.283   1.496 -0.1267  1.7269  1.2224
16676TIP3   OH271442   4.005   2.771   0.896  0.5312  0.2754  0.2871
16676TIP3    H171443   4.045   2.858   0.896  5.3274 -1.7695  1.1778
16676TIP3    H271444   4.040   2.729   0.817 -0.6208 -1.3323  0.6108
16677TIP3   OH271445   6.376   1.921  16.996 -0.8922  0.5916 -0.4861
16677TIP3    H171446   6.303   1.922  17.057 -0.9162  0.8854 -0.5202
16677TIP3    H271447   6.443   1.867  17.038 -0.9329  0.7439 -0.2322
16678TIP3   OH271448   4.710   6.612  14.682 -0.6267 -0.5533 -0.4338
16678TIP3    H171449   4.793   6.577  14.715 -0.0942 -0.7623 -1.9104
16678TIP3    H271450   4.704   6.700  14.720 -0.4734 -1.1085  0.8824
16679TIP3   OH271451   4.757   2.906   5.739  0.7038  0.0226 -0.0528
16679TIP3    H171452   4.688   2.843   5.759 -0.2104  0.6350 -1.2124
16679TIP3    H271453   4.740   2.980   5.797 -0.2451  0.6069 -1.0622
16680TIP3   OH271454   3.191   4.356   6.416  0.0669  0.0521  0.2213
16680TIP3    H171455   3.102   4.323   6.409 -0.0081 -0.0568  1.4476
16680TIP3    H271456   3.190   4.411   6.495  0.8918  0.6539 -0.1785
16681TIP3   OH271457   1.298   5.872  13.278 -0.0783  0.0151 -0.7789
16681TIP3    H171458   1.221   5.890  13.332  1.2666 -0.0800  1.2239
16681TIP3    H271459   1.262   5.842  13.195 -2.2099  0.6336 -0.1203
16682TIP3   OH271460   5.664   5.725   2.102  0.3801 -0.0052 -0.3439
16682TIP3    H171461   5.704   5.717   2.188  1.0175 -0.1332 -0.6494
16682TIP3    H271462   5.601   5.797   2.111 -0.4443 -0.8291  0.5530
16683TIP3   OH271463   1.219   1.905   4.045 -0.0490 -0.1741 -0.0257
16683TIP3    H171464   1.134   1.945   4.029 -0.6226 -1.1898  0.4076
16683TIP3    H271465   1.229   1.841   3.975  1.1100  1.0948 -1.0411
16684TIP3   OH271466   3.444   2.051   2.119  0.1205  0.4317 -0.3274
16684TIP3    H171467   3.416   2.012   2.037 -1.5793 -0.1421  0.4883
16684TIP3    H271468   3.374   2.030   2.181  2.5920 -1.4870  1.9550
16685TIP3   OH271469   2.359   3.597  12.895  0.4417 -0.1508 -0.3017
16685TIP3    H171470   2.387   3.513  12.932  0.5589 -0.0219 -0.0946
16685TIP3    H271471   2.322   3.575  12.810 -1.7163 -0.7064  0.7352
16686TIP3   OH271472   6.560   4.997  11.783 -0.0478  0.4801 -0.1575
16686TIP3    H171473   6.550   5.049  11.703 -0.2056  1.7367  0.6780
16686TIP3    H271474   6.605   4.917  11.754 -1.6999  0.1191 -1.8222
16687TIP3   OH271475   4.188   5.290   2.137 -0.3899  1.2861 -0.1797
16687TIP3    H171476   4.263   5.233   2.126 -1.6334 -0.4540  0.1615
16687TIP3    H271477   4.224   5.379   2.131  1.6341  0.4846 -0.2104
16688TIP3   OH271478   6.370   4.792   4.730 -0.2981 -0.1126  0.0643
16688TIP3    H171479   6.287   4.841   4.724 -0.8989 -0.9099  1.6536
16688TIP3    H271480   6.349   4.705   4.697  0.0330 -0.1878  0.0501
16689TIP3   OH271481   6.522   6.078   3.073 -0.1841  0.4716  0.0665
16689TIP3    H171482   6.506   6.158   3.125 -1.0614  0.4014 -0.0828
16689TIP3    H271483   6.540   6.110   2.985 -1.3664  0.4764 -0.1817
16690TIP3   OH271484   0.962   2.105   4.635 -0.2614  0.0543  0.2634
16690TIP3    H171485   0.946   2.086   4.543  1.9641 -0.8225  0.0244
16690TIP3    H271486   0.874   2.111   4.674 -1.1988 -2.9147 -1.2382
16691TIP3   OH271487   4.754   0.133   0.800 -0.5834  0.8058 -0.0190
16691TIP3    H171488   4.783   0.112   0.889 -1.7437  1.0560  0.4247
16691TIP3    H271489   4.661   0.153   0.809  0.0152  4.2105 -0.7352
16692TIP3   OH271490   2.132   4.120  11.067  0.1636  0.0089  0.3030
16692TIP3    H171491   2.155   4.041  11.018  0.1086 -0.2449  0.6794
16692TIP3    H271492   2.111   4.185  11.000  2.4003  0.3835 -0.0674
16693TIP3   OH271493   3.991   1.420   1.578  0.3001  0.3096  0.4825
16693TIP3    H171494   4.023   1.396   1.665 -0.1059 -2.2250 -0.0373
16693TIP3    H271495   3.908   1.464   1.595  0.5523  0.4560  1.4080
16694TIP3   OH271496   0.668   0.610   4.276 -0.6805  0.3307  0.6971
16694TIP3    H171497   0.672   0.682   4.213 -1.5728 -1.2654 -1.2399
16694TIP3    H271498   0.760   0.590   4.296 -0.3871  0.4028 -0.5901
16695TIP3   OH271499   2.234   3.386  14.213 -0.4085  0.2444  0.1935
16695TIP3    H171500   2.207   3.446  14.143 -1.8099 -0.8494 -0.2127
16695TIP3    H271501   2.328   3.401  14.222 -0.7052  2.3895 -0.0122
16696TIP3   OH271502   5.985   5.234   2.054 -0.2132 -0.8735  0.1336
16696TIP3    H171503   5.925   5.203   2.122 -1.2268 -0.6149 -0.6259
16696TIP3    H271504   6.070   5.200   2.080 -0.1377  1.2641  2.8222
16697TIP3   OH271505   2.475   4.330   6.771 -0.1819 -0.0828 -0.0609
16697TIP3    H171506   2.468   4.408   6.827 -0.6563  0.5850 -1.0251
16697TIP3    H271507   2.392   4.327   6.724  0.1852 -0.6540 -0.6854
16698TIP3   OH271508   6.385   1.428  11.837 -0.0974 -0.3247  0.0096
16698TIP3    H171509   6.468   1.389  11.811 -0.3716 -1.3531  0.6494
16698TIP3    H271510   6.358   1.480  11.761 -0.0004 -1.8115 -1.0640
16699TIP3   OH271511   4.787   6.020   3.339 -0.1981 -0.7801  0.1453
16699TIP3    H171512   4.831   6.101   3.315  0.9911 -1.1495  0.9841
16699TIP3    H271513   4.859   5.961   3.362 -1.0363 -2.1492 -0.7044
16700TIP3   OH271514   2.356   6.699   2.422 -0.2907  0.3943 -0.2958
16700TIP3    H171515   2.307   6.751   2.359 -0.3227 -0.5149 -1.0164
16700TIP3    H271516   2.321   6.611   2.413  0.7596 -0.0440 -0.0793
16701TIP3   OH271517   4.735   6.337  13.270  0.2761 -0.4277  0.5378
16701TIP3    H171518   4.659   6.319  13.325  0.5450 -1.5174  0.5645
16701TIP3    H271519   4.764   6.424  13.298 -0.1144 -0.5965  1.5049
16702TIP3   OH271520   5.297   0.557  14.649  0.2794 -0.3128 -0.3597
16702TIP3    H171521   5.210   0.520  14.662 -0.1757  0.8038 -0.1014
16702TIP3    H271522   5.337   0.553  14.736  0.2434 -0.2440 -0.3401
16703TIP3   OH271523   3.135   3.214   6.133 -0.1506 -0.0773 -0.0652
16703TIP3    H171524   3.136   3.308   6.115 -1.9970 -0.1827 -0.8122
16703TIP3    H271525   3.145   3.173   6.047 -1.6322 -0.5656 -0.0073
16704TIP3   OH271526   6.565   5.780   4.370 -0.0736  0.0871  0.1285
16704TIP3    H171527   6.530   5.752   4.285 -0.3964 -1.6149  0.8062
16704TIP3    H271528   6.498   5.755   4.433  1.0808 -0.5954  1.1124
16705TIP3   OH271529   3.793   2.580  15.323  0.2196  0.2608  0.3067
16705TIP3    H171530   3.810   2.665  15.282  0.7998  0.5530  1.1455
16705TIP3    H271531   3.698   2.569  15.316  0.1416  0.9834  0.2116
16706TIP3   OH271532   4.111   3.559   1.222 -0.5484 -0.4484 -0.0333
16706TIP3    H171533   4.051   3.486   1.208 -0.8289 -0.3149  0.4824
16706TIP3    H271534   4.103   3.580   1.315  0.3203 -0.4510  0.0445
16707TIP3   OH271535   5.436   2.263   0.851 -0.0312 -0.2147 -0.2893
16707TIP3    H171536   5.504   2.307   0.801 -0.3345  1.0203  0.3684
16707TIP3    H271537   5.381   2.334   0.884 -1.6334 -1.1971 -0.8078
16708TIP3   OH271538   3.926   4.030  12.496 -0.0055 -0.4084 -0.2104
16708TIP3    H171539   3.914   4.036  12.402 -0.8846 -1.4073 -0.1612
16708TIP3    H271540   3.841   4.054  12.533 -0.3970 -2.4261  0.2509
16709TIP3   OH271541   2.985   3.272  14.713 -0.3626 -0.3847  0.7518
16709TIP3    H171542   3.027   3.228  14.786 -1.3786 -0.0754  1.5394
16709TIP3    H271543   3.043   3.258  14.639  0.5521 -0.9094  1.5687
16710TIP3   OH271544   3.471   2.778  12.469  0.1321 -0.3092  0.1752
16710TIP3    H171545   3.406   2.844  12.493  1.1016  0.1517  1.6554
16710TIP3    H271546   3.547   2.798  12.525  1.8352 -0.3578 -2.0652
16711TIP3   OH271547   1.786   1.414  11.925  0.4383  0.1376  0.3975
16711TIP3    H171548   1.695   1.428  11.897  0.6302 -0.2922 -0.4530
16711TIP3    H271549   1.783   1.420  12.021 -0.3600  0.8525  0.3358
16712TIP3   OH271550   6.171   2.152   4.594 -0.8292 -0.3524  0.1862
16712TIP3    H171551   6.111   2.183   4.527 -0.7105  1.8530  1.0825
16712TIP3    H271552   6.147   2.200   4.673  1.4691 -0.1322  0.7996
16713TIP3   OH271553   2.896   2.891  12.130  1.0012  0.0811  0.0736
16713TIP3    H171554   2.922   2.962  12.072  1.6033 -0.5280 -0.4151
16713TIP3    H271555   2.891   2.814  12.073  0.8752 -0.3721  0.6872
16714TIP3   OH271556   2.749   5.678  15.961 -0.8136 -0.3391 -0.5090
16714TIP3    H171557   2.655   5.665  15.973 -0.5838 -0.9113  0.7912
16714TIP3    H271558   2.761   5.678  15.866 -2.3178  1.2590 -0.7149
16715TIP3   OH271559   4.646   4.796   6.584  0.3392  0.0779 -0.5915
16715TIP3    H171560   4.696   4.835   6.656 -2.1204  4.8601 -1.2401
16715TIP3    H271561   4.603   4.720   6.622  2.1522  0.2546  1.9383
16716TIP3   OH271562   1.605   0.914   1.463 -0.3570  0.0051 -0.1228
16716TIP3    H171563   1.607   0.845   1.397 -0.1252  0.0901 -0.2082
16716TIP3    H271564   1.594   0.869   1.546 -0.5622 -0.1093 -0.2131
16717TIP3   OH271565   1.466   5.627   5.387 -0.1245  0.2664  0.4498
16717TIP3    H171566   1.478   5.540   5.426 -0.8562 -0.0496 -0.0260
16717TIP3    H271567   1.435   5.681   5.459 -2.4591 -0.5590  0.0983
16718TIP3   OH271568   6.560   4.596   0.660  0.2978 -0.4247  0.3789
16718TIP3    H171569   6.618   4.592   0.584  0.3587 -0.7556  0.4452
16718TIP3    H271570   6.599   4.664   0.716 -1.2429  1.7807 -1.1336
16719TIP3   OH271571   0.334   0.874   3.157  0.0186 -0.3899 -0.2377
16719TIP3    H171572   0.264   0.827   3.201 -0.1354 -2.3167 -2.4173
16719TIP3    H271573   0.298   0.961   3.139 -1.9155 -1.4291 -1.5170
16720TIP3   OH271574   4.167   3.085  10.864  0.5549 -0.1137 -0.2364
16720TIP3    H171575   4.113   3.129  10.799  2.0924  1.4238 -0.5111
16720TIP3    H271576   4.252   3.073  10.820  1.3015  0.0213  1.1283
16721TIP3   OH271577   5.482   3.586  16.537  0.5582 -0.3459  0.3435
16721TIP3    H171578   5.560   3.577  16.483  0.1112 -2.3672 -0.0181
16721TIP3    H271579   5.515   3.611  16.623  1.5764 -0.8490  0.1059
16722TIP3   OH271580   1.038   3.375  12.593  0.7299  0.3377  0.4847
16722TIP3    H171581   1.097   3.311  12.553 -1.1473 -0.7633 -0.5736
16722TIP3    H271582   1.048   3.361  12.687  0.2937 -1.5667  0.2618
16723TIP3   OH271583   3.750   2.829  13.525 -0.4015 -0.0334  0.2976
16723TIP3    H171584   3.676   2.804  13.581 -0.0887  0.4444  0.9436
16723TIP3    H271585   3.752   2.763  13.457 -2.1340  0.5770 -0.3888
16724TIP3   OH271586   6.601   2.714   2.075  0.0922 -0.2206 -0.6325
16724TIP3    H171587   6.597   2.809   2.086 -0.8602 -0.4184  0.7090
16724TIP3    H271588   6.512   2.688   2.052 -0.0655 -1.0023  0.8029
16725TIP3   OH271589   5.968   0.996   2.925 -0.2488 -0.4055  0.1976
16725TIP3    H171590   5.952   0.952   3.009  3.3261  1.1104  1.7922
16725TIP3    H271591   5.933   1.084   2.937  0.0227 -0.2703  0.0029
16726TIP3   OH271592   2.314   2.808   3.179  0.4959  0.4113  0.4125
16726TIP3    H171593   2.252   2.828   3.249  0.2387 -1.5152  0.7600
16726TIP3    H271594   2.280   2.856   3.103 -2.3167 -1.8114  0.1861
16727TIP3   OH271595   4.468   5.735  16.168 -0.3077 -0.0957 -0.1250
16727TIP3    H171596   4.491   5.822  16.134  0.9420  0.3379  1.7852
16727TIP3    H271597   4.462   5.680  16.090 -0.6467  1.5929 -1.3170
16728TIP3   OH271598   5.751   1.070  16.975 -0.1539 -0.7869 -0.4152
16728TIP3    H171599   5.785   0.987  16.943 -1.0682 -1.0417 -0.7326
16728TIP3    H271600   5.666   1.079  16.933 -0.2567  0.0976 -0.0279
16729TIP3   OH271601   2.040   5.118   2.566  0.1517  0.2721 -0.1646
16729TIP3    H171602   2.040   5.050   2.499 -0.4167 -0.8197  0.9132
16729TIP3    H271603   2.020   5.071   2.647  0.0343  1.6899  0.6399
16730TIP3   OH271604   6.509   3.879  13.321  0.1468  0.5981 -0.3189
16730TIP3    H171605   6.532   3.972  13.329 -0.1282  0.6239  0.1864
16730TIP3    H271606   6.431   3.879  13.266 -0.0898  0.7006  0.0125
16731TIP3   OH271607   5.931   5.821  13.609  0.0519 -0.0841 -0.4545
16731TIP3    H171608   5.944   5.807  13.516 -1.2634 -1.1199 -0.4922
16731TIP3    H271609   5.837   5.812  13.622 -0.2349  3.2522  0.4564
16732TIP3   OH271610   4.301   1.571   5.198 -0.4261 -0.3175 -0.8458
16732TIP3    H171611   4.288   1.558   5.291  3.1108 -0.1585 -0.2554
16732TIP3    H271612   4.282   1.664   5.184 -0.5185 -0.2402 -0.2005
16733TIP3   OH271613   6.063   4.659   1.952 -0.2819 -0.6104 -0.0792
16733TIP3    H171614   6.072   4.708   2.034  0.1916  1.9619 -1.6191
16733TIP3    H271615   5.979   4.687   1.917  1.0097  0.9516 -2.0926
16734TIP3   OH271616   2.442   4.348  14.102  0.3685 -0.2632 -0.1791
16734TIP3    H171617   2.514   4.308  14.053  0.2314  0.2754 -0.8237
16734TIP3    H271618   2.392   4.396  14.036  0.3244  0.6826  0.5406
16735TIP3   OH271619   1.205   2.624  11.396 -0.1690 -0.2932  0.0873
16735TIP3    H171620   1.262   2.700  11.382  0.5207 -0.4577  1.8895
16735TIP3    H271621   1.139   2.631  11.327  3.5172 -1.6092 -3.8814
16736TIP3   OH271622   0.644   5.832   0.418  0.0048 -0.2122 -0.0543
16736TIP3    H171623   0.672   5.853   0.508 -1.3383  1.8262 -0.0783
16736TIP3    H271624   0.662   5.739   0.409  2.3684  0.0510  1.5254
16737TIP3   OH271625   1.793   0.357   2.156  0.3558  0.2785  0.0296
16737TIP3    H171626   1.861   0.312   2.206  0.5498  1.1185  0.5268
16737TIP3    H271627   1.837   0.434   2.119 -0.9134  2.2916  2.5297
16738TIP3   OH271628   5.516   4.862  16.771  0.5798  0.5174 -0.4037
16738TIP3    H171629   5.588   4.916  16.802  1.8889 -0.2450 -2.0382
16738TIP3    H271630   5.534   4.775  16.807  1.7018 -0.1926 -2.5796
16739TIP3   OH271631   3.290   0.280  13.952 -0.0040  0.6757  0.3203
16739TIP3    H171632   3.271   0.194  13.914 -0.1631  1.5228 -1.5999
16739TIP3    H271633   3.222   0.293  14.018  0.1087 -0.7263  0.7231
16740TIP3   OH271634   4.050   1.266   1.358 -0.1717  0.4064  0.2327
16740TIP3    H171635   4.026   1.335   1.420 -2.7390  0.3414 -0.6365
16740TIP3    H271636   4.059   1.188   1.412 -1.4645  0.5506  0.6745
16741TIP3   OH271637   4.622   1.550   2.899  0.2551 -0.2700  0.1221
16741TIP3    H171638   4.626   1.645   2.911 -0.9897 -0.1859 -0.0949
16741TIP3    H271639   4.671   1.535   2.817  0.9198  0.1192  0.4436
16742TIP3   OH271640   2.469   0.916   5.159 -0.0795 -0.2278  0.3233
16742TIP3    H171641   2.561   0.905   5.182  0.1121 -1.1101 -0.8053
16742TIP3    H271642   2.470   0.960   5.074 -0.7039 -0.3101  0.2686
16743TIP3   OH271643   0.959   5.914   2.622 -0.1686  0.4912  0.1623
16743TIP3    H171644   0.956   5.979   2.551  0.6517  0.9409  0.5356
16743TIP3    H271645   0.897   5.947   2.687  0.1755  0.8427  0.3087
16744TIP3   OH271646   5.299   1.410  15.813  0.5301  0.1178 -0.3907
16744TIP3    H171647   5.315   1.504  15.825 -0.6518  0.6116 -2.4709
16744TIP3    H271648   5.204   1.402  15.809  0.6238 -1.1806 -0.1497
16745TIP3   OH271649   2.954   0.183   3.821  0.0519 -0.1967  0.4500
16745TIP3    H171650   2.922   0.266   3.785  0.9023 -0.1794 -0.2917
16745TIP3    H271651   2.943   0.192   3.916 -0.1630  0.6409  0.3474
16746TIP3   OH271652   6.675   3.709  12.870  0.4079 -0.0495 -0.4164
16746TIP3    H171653   6.749   3.708  12.809 -0.4211 -0.9334 -1.4101
16746TIP3    H271654   6.606   3.755  12.823  0.3292  0.8112  0.5308
16747TIP3   OH271655   0.471   0.894   6.091  0.0934  0.1668 -0.3242
16747TIP3    H171656   0.489   0.800   6.086 -1.8584 -0.2265 -0.4331
16747TIP3    H271657   0.469   0.922   5.999  1.8130  0.5760 -0.2636
16748TIP3   OH271658   6.187   2.235   3.907 -0.0070 -0.3423 -0.4162
16748TIP3    H171659   6.204   2.277   3.822  2.3789  0.3087  0.3346
16748TIP3    H271660   6.184   2.308   3.969 -0.7975 -0.8912  0.1893
16749TIP3   OH271661   2.137   3.231   3.560  0.3070  0.3217 -0.4189
16749TIP3    H171662   2.205   3.231   3.628  0.8157 -0.4771 -0.9149
16749TIP3    H271663   2.109   3.140   3.556 -0.4867  0.5741 -0.5266
16750TIP3   OH271664   0.910   5.493  14.342  0.1305 -0.5096 -0.2697
16750TIP3    H171665   0.986   5.490  14.283 -1.4185 -2.0908 -2.2599
16750TIP3    H271666   0.920   5.415  14.396 -0.8197 -1.5453 -1.5457
16751TIP3   OH271667   1.922   5.312   4.633 -0.3934  0.4437  0.2690
16751TIP3    H171668   1.879   5.275   4.556  1.1243  1.7936 -1.2631
16751TIP3    H271669   1.949   5.236   4.685  0.7955 -0.5406 -1.7711
16752TIP3   OH271670   0.477   1.536   1.587  0.4315 -0.0017  0.4149
16752TIP3    H171671   0.408   1.470   1.576 -0.5778  1.0741  0.1275
16752TIP3    H271672   0.544   1.512   1.524  0.2150 -0.9475  0.5422
16753TIP3   OH271673   1.368   4.124  16.661  0.3705 -0.5639  0.0308
16753TIP3    H171674   1.315   4.052  16.697  1.0214  0.1588  2.5014
16753TIP3    H271675   1.449   4.081  16.632 -1.1593 -1.5442 -3.0241
16754TIP3   OH271676   1.304   6.768  13.130  0.0499  0.0703 -0.1533
16754TIP3    H171677   1.226   6.817  13.156  1.6167  2.3246  0.3779
16754TIP3    H271678   1.363   6.833  13.094  1.2813 -1.7872 -1.5979
16755TIP3   OH271679   1.931   3.244  15.461 -0.2804 -0.2437 -0.5427
16755TIP3    H171680   1.919   3.327  15.416  0.3863 -0.3340 -0.9063
16755TIP3    H271681   1.930   3.267  15.554 -1.1230  0.0201 -0.6179
16756TIP3   OH271682   0.236   0.191  15.978  0.1672  0.2467  0.4959
16756TIP3    H171683   0.263   0.202  16.069  1.5348  0.4193  0.0903
16756TIP3    H271684   0.249   0.278  15.939 -2.2627  0.6709  0.5911
16757TIP3   OH271685   0.517   4.216   0.266 -0.3285 -0.0685 -0.3595
16757TIP3    H171686   0.484   4.196   0.353 -1.5632 -0.7581 -0.9677
16757TIP3    H271687   0.567   4.296   0.277  0.7145 -0.9132  1.2440
16758TIP3   OH271688   5.605   1.596   1.727  0.0156 -0.3518 -0.6767
16758TIP3    H171689   5.526   1.574   1.777 -0.2411 -0.7037 -1.2257
16758TIP3    H271690   5.630   1.513   1.686  1.1721 -0.4491  0.1788
16759TIP3   OH271691   5.946   0.515  14.089  0.2886 -0.1219 -0.2502
16759TIP3    H171692   5.975   0.491  14.001 -0.5513 -1.4288 -0.1694
16759TIP3    H271693   5.999   0.461  14.147 -0.4008 -0.5402 -0.0113
16760TIP3   OH271694   1.175   4.354   1.620 -0.4423  0.0134  0.4222
16760TIP3    H171695   1.134   4.344   1.706  0.2525 -1.0041  0.6471
16760TIP3    H271696   1.125   4.296   1.562 -0.4517  0.1346  0.3096
16761TIP3   OH271697   4.116   0.772   2.415 -0.4603  0.4607 -0.0100
16761TIP3    H171698   4.097   0.767   2.322 -1.2758  0.2905  0.1611
16761TIP3    H271699   4.037   0.810   2.454 -0.2321  0.2762  0.6429
16762TIP3   OH271700   3.033   4.494  11.715 -0.1882  0.3347 -0.6291
16762TIP3    H171701   3.034   4.577  11.762 -0.0590 -0.1080  0.1567
16762TIP3    H271702   3.122   4.484  11.681 -0.0125  0.1816 -0.1262
16763TIP3   OH271703   0.001   3.784   4.148 -0.0628  0.2229 -0.0248
16763TIP3    H171704   0.037   3.739   4.224 -0.5384  1.7453  1.1303
16763TIP3    H271705  -0.056   3.719   4.106 -0.8629 -0.2155  1.6982
16764TIP3   OH271706   3.493   5.406   0.568  0.8589  0.4916 -0.8075
16764TIP3    H171707   3.492   5.324   0.618 -0.7107  1.1077  0.2037
16764TIP3    H271708   3.541   5.467   0.624  2.0620  0.2793 -1.5785
16765TIP3   OH271709   1.257   4.330  12.191  0.6534 -0.5321 -0.1433
16765TIP3    H171710   1.320   4.399  12.211 -1.6238  1.7023 -0.4599
16765TIP3    H271711   1.210   4.362  12.114 -0.9558 -2.0927  0.1560
16766TIP3   OH271712   3.255   6.120  14.760  0.2155  0.4699 -0.0582
16766TIP3    H171713   3.289   6.202  14.723  0.6034 -1.1483 -3.3921
16766TIP3    H271714   3.333   6.072  14.788  0.0491  0.7529  0.9229
16767TIP3   OH271715   1.988   2.388  16.094 -0.6946  0.3794 -0.2763
16767TIP3    H171716   2.001   2.390  15.999  1.7772  0.6107  0.0280
16767TIP3    H271717   1.961   2.299  16.113 -2.5379  0.6975 -1.3487
16768TIP3   OH271718   0.006   5.596  13.041  0.0136 -0.1657  0.7636
16768TIP3    H171719  -0.040   5.577  13.123  0.4511 -1.6604  0.6749
16768TIP3    H271720   0.095   5.562  13.055  1.0816  2.5448  0.8797
16769TIP3   OH271721   0.658   2.048   3.909  0.3891  0.0145  0.1438
16769TIP3    H171722   0.667   2.124   3.966  1.4991  0.0605 -0.0842
16769TIP3    H271723   0.565   2.028   3.911 -0.3214  2.8915 -1.8041
16770TIP3   OH271724   1.446   1.281   0.137  0.5706 -0.1625  0.6605
16770TIP3    H171725   1.533   1.299   0.172  1.4545 -2.2567 -0.3358
16770TIP3    H271726   1.460   1.268   0.043 -1.1820  1.7178  0.1134
16771TIP3   OH271727   4.755   3.825  12.506  0.5365  0.0161  0.2115
16771TIP3    H171728   4.731   3.736  12.533 -0.0110  0.2203  0.4204
16771TIP3    H271729   4.773   3.870  12.588  0.0375  0.3123  0.1612
16772TIP3   OH271730   6.212   4.455   1.833  0.2042 -0.4952 -0.0913
16772TIP3    H171731   6.144   4.496   1.887  0.5813  0.9543 -0.7075
16772TIP3    H271732   6.191   4.362   1.835 -1.7223 -0.0798 -0.1658
16773TIP3   OH271733   4.522   0.674  12.142  0.1903  0.0702 -0.1449
16773TIP3    H171734   4.591   0.713  12.088  1.3979  0.1244  1.4241
16773TIP3    H271735   4.451   0.657  12.080  0.4566  2.7186 -1.2639
16774TIP3   OH271736   3.154   4.974  10.701 -0.5937 -0.1553  0.4357
16774TIP3    H171737   3.114   4.910  10.760 -0.0661 -1.1002 -0.2035
16774TIP3    H271738   3.233   5.002  10.748 -0.1373 -0.9551  0.1609
16775TIP3   OH271739   4.606   6.101   4.727  0.6889 -0.2678 -0.3801
16775TIP3    H171740   4.540   6.148   4.677  0.8651  0.4749  0.0862
16775TIP3    H271741   4.562   6.076   4.808  1.1812  0.8593  0.2475
16776TIP3   OH271742   3.706   6.201   2.249 -0.5767  0.1320 -0.0529
16776TIP3    H171743   3.783   6.148   2.228  1.4685  2.8038  0.4857
16776TIP3    H271744   3.719   6.282   2.200 -3.4746  0.2930 -0.6019
16777TIP3   OH271745   6.636   6.624   5.223 -0.3815 -0.0547 -0.0068
16777TIP3    H171746   6.661   6.595   5.136  1.6569  0.1198  0.4926
16777TIP3    H271747   6.628   6.719   5.216  1.3527  0.1251  0.3618
16778TIP3   OH271748   5.971   1.788  12.968  0.0166 -0.2923 -0.5458
16778TIP3    H171749   5.940   1.847  13.037  0.7755 -0.7789  0.2213
16778TIP3    H271750   6.066   1.791  12.974  0.0647 -1.4013 -0.6675
16779TIP3   OH271751   1.631   4.709   4.311  0.1889 -0.3378  0.6215
16779TIP3    H171752   1.544   4.697   4.274 -0.0990 -1.4586  1.6467
16779TIP3    H271753   1.619   4.698   4.405  1.2552  0.5639  0.8754
16780TIP3   OH271754   2.525   4.963   5.364 -0.7530 -0.0417 -0.4956
16780TIP3    H171755   2.566   4.937   5.282 -0.9665 -1.2725 -0.2099
16780TIP3    H271756   2.593   4.953   5.430 -0.9406 -0.2049 -0.3264
16781TIP3   OH271757   4.842   5.735  12.509 -0.0894 -0.0034 -0.3818
16781TIP3    H171758   4.801   5.696  12.586 -0.0993 -0.8361 -0.7978
16781TIP3    H271759   4.912   5.789  12.544 -1.8229  1.8163  0.3703
16782TIP3   OH271760   5.502   2.575  13.216 -0.1830 -0.1740 -0.5224
16782TIP3    H171761   5.546   2.654  13.183 -1.1428 -0.3179 -2.1959
16782TIP3    H271762   5.426   2.609  13.264  0.7302  0.0034  0.8134
16783TIP3   OH271763   5.352   1.660  14.386  0.4444  0.7068 -0.2955
16783TIP3    H171764   5.288   1.688  14.451  1.9187  0.3452  1.3527
16783TIP3    H271765   5.308   1.672  14.302 -0.8094  3.0200  0.6545
16784TIP3   OH271766   2.751   6.421   2.990  0.2906  0.5282 -0.0843
16784TIP3    H171767   2.764   6.378   2.905  1.1651  2.9273 -1.2260
16784TIP3    H271768   2.826   6.480   2.998 -0.9819  2.0089  1.3035
16785TIP3   OH271769   2.253   4.294   1.882 -0.0614  0.3193 -0.1242
16785TIP3    H171770   2.313   4.368   1.875 -0.6160  0.6165 -2.1516
16785TIP3    H271771   2.309   4.216   1.874  0.0750  0.5914 -2.0312
16786TIP3   OH271772   2.736   5.307  12.725 -0.0717  0.5329  0.2372
16786TIP3    H171773   2.660   5.323  12.669  0.0012 -0.1968 -0.0737
16786TIP3    H271774   2.741   5.385  12.781 -0.6110  0.9107 -0.2341
16787TIP3   OH271775   5.722   4.118   5.094  0.0681  0.4303 -0.2395
16787TIP3    H171776   5.637   4.102   5.054 -0.5778  0.8140  0.9515
16787TIP3    H271777   5.743   4.038   5.141  0.0337  0.5822  0.0409
16788TIP3   OH271778   6.455   0.061   2.787 -0.0242  0.5822 -0.7266
16788TIP3    H171779   6.503   0.141   2.768  1.6700 -0.3783 -0.5904
16788TIP3    H271780   6.469   0.005   2.710  0.9087 -0.5427  0.2388
16789TIP3   OH271781   2.357   0.571  13.666  0.0908 -0.0464  0.7327
16789TIP3    H171782   2.320   0.484  13.652  1.9457 -0.5308 -1.4078
16789TIP3    H271783   2.391   0.597  13.581 -0.0945  2.6362  1.4207
16790TIP3   OH271784   4.726   1.286   2.637  0.1609 -0.0574  0.4256
16790TIP3    H171785   4.773   1.275   2.554 -0.1041  1.4346  0.0623
16790TIP3    H271786   4.790   1.263   2.704  0.8973  0.3591 -0.1317
16791TIP3   OH271787   0.477   1.645   2.998  0.6335 -0.0190  0.0412
16791TIP3    H171788   0.558   1.623   3.043  2.1132 -1.0865 -2.9957
16791TIP3    H271789   0.432   1.562   2.987 -0.8686  0.5526  1.5923
16792TIP3   OH271790   2.408   3.909  11.455 -0.6155  0.0504  0.3346
16792TIP3    H171791   2.365   3.982  11.410 -0.2537  0.7970  1.1872
16792TIP3    H271792   2.340   3.873  11.511 -0.5198  0.3601  0.6517
16793TIP3   OH271793   2.153   0.939  15.388 -0.2854 -0.4857  0.1581
16793TIP3    H171794   2.195   0.864  15.344  1.1656  0.5482 -0.2494
16793TIP3    H271795   2.079   0.961  15.331  0.0001 -0.8378 -0.3597
16794TIP3   OH271796   5.117   1.173  12.249  0.8302  0.6916 -0.5306
16794TIP3    H171797   5.139   1.264  12.230  1.0505  0.6039 -0.6947
16794TIP3    H271798   5.025   1.165  12.224  0.5876  1.0780  0.2239
16795TIP3   OH271799   0.885   4.281   3.081  0.1973  0.1421 -0.1132
16795TIP3    H171800   0.953   4.340   3.112  0.2745 -0.5429  1.0266
16795TIP3    H271801   0.814   4.339   3.053  1.1366  0.8505 -1.0781
16796TIP3   OH271802   4.022   4.376   5.545  0.1836  0.3031 -0.5615
16796TIP3    H171803   3.935   4.336   5.547  0.0520  0.5776  2.1079
16796TIP3    H271804   4.005   4.470   5.551  0.6065  0.5187 -2.5481
16797TIP3   OH271805   6.635   3.015   3.561 -0.8644 -0.4856  0.4692
16797TIP3    H171806   6.677   2.977   3.484 -0.6223  0.1782  0.2758
16797TIP3    H271807   6.682   2.975   3.635 -0.0454  0.0767  0.2592
16798TIP3   OH271808   2.401   3.236   4.692  0.0581  0.2081 -0.4829
16798TIP3    H171809   2.400   3.327   4.721 -1.0880  0.6701 -1.9203
16798TIP3    H271810   2.490   3.222   4.659 -0.2856  1.3525 -1.9132
16799TIP3   OH271811   1.499   5.899  16.717  0.3030  0.2656 -0.6750
16799TIP3    H171812   1.519   5.959  16.789 -0.0603  0.2516 -0.5589
16799TIP3    H271813   1.404   5.906  16.707  0.2740 -0.2208 -0.7240
16800TIP3   OH271814   4.392   4.826   2.014  0.1503  0.3970  0.2931
16800TIP3    H171815   4.350   4.745   2.042 -0.3275 -0.1311 -1.8496
16800TIP3    H271816   4.477   4.799   1.978  0.3414  0.9370  0.3290
16801TIP3   OH271817   2.372   1.981   2.005 -0.9262  0.0114  0.6003
16801TIP3    H171818   2.393   1.921   1.934 -0.2072 -0.1488  0.9440
16801TIP3    H271819   2.455   1.994   2.051 -1.0157  1.4399  0.4023
16802TIP3   OH271820   6.412   0.456  16.137 -0.6769 -0.3945 -0.6211
16802TIP3    H171821   6.378   0.471  16.048 -0.3073  0.4546 -0.6265
16802TIP3    H271822   6.438   0.543  16.167 -2.6947 -0.3658  1.1042
16803TIP3   OH271823   0.028   1.428  15.034 -0.4012 -0.1504  0.3569
16803TIP3    H171824  -0.012   1.513  15.016 -0.2391 -0.0984  0.2372
16803TIP3    H271825   0.082   1.410  14.957  1.1315  0.5700  1.2471
16804TIP3   OH271826   3.903   5.082   1.147 -0.5016 -0.1725  0.7019
16804TIP3    H171827   3.871   5.129   1.070 -1.7569  2.2737  2.6844
16804TIP3    H271828   3.825   5.048   1.189  0.1206 -0.8208  1.3505
16805TIP3   OH271829   3.525   2.708   3.212 -0.5443 -0.6603 -0.0338
16805TIP3    H171830   3.583   2.632   3.220  0.3715 -0.0593 -0.8304
16805TIP3    H271831   3.456   2.680   3.153 -0.1834 -0.8578 -0.3632
16806TIP3   OH271832   1.183   1.171  11.825 -0.3334  0.1242 -0.3951
16806TIP3    H171833   1.123   1.111  11.782 -2.5069  0.9437  1.4028
16806TIP3    H271834   1.136   1.201  11.902  2.4550  0.6900  1.1544
16807TIP3   OH271835   2.178   0.709   5.908 -0.2696  0.1685 -0.5075
16807TIP3    H171836   2.115   0.673   5.970 -0.3455  0.6312 -0.3166
16807TIP3    H271837   2.185   0.802   5.931 -1.0433  0.5713 -1.8157
16808TIP3   OH271838   5.711   2.968  13.315  0.4156 -0.1618  0.0964
16808TIP3    H171839   5.651   2.976  13.241  0.6814 -1.5470 -0.2860
16808TIP3    H271840   5.662   2.918  13.381 -0.0303  1.5547  1.1117
16809TIP3   OH271841   4.765   1.084  14.096  0.0017  0.1897 -0.1884
16809TIP3    H171842   4.800   1.148  14.158 -1.5131 -0.4482  1.3783
16809TIP3    H271843   4.678   1.118  14.074 -0.9272 -1.4323  0.8772
16810TIP3   OH271844   3.371   0.841   2.142  0.3459 -0.2522 -0.1446
16810TIP3    H171845   3.405   0.816   2.227 -0.2583 -1.6623 -0.3152
16810TIP3    H271846   3.279   0.864   2.159  0.5936  0.7984 -0.1823
16811TIP3   OH271847   1.185   2.398   3.939  0.7062 -0.1702  0.2736
16811TIP3    H171848   1.145   2.483   3.918 -0.9806 -1.3806 -1.5125
16811TIP3    H271849   1.240   2.378   3.863  3.1297  0.4773  1.7916
16812TIP3   OH271850   1.830   4.686   2.188  0.1536 -0.9497  0.0835
16812TIP3    H171851   1.756   4.683   2.248  0.1426 -1.9983  0.0296
16812TIP3    H271852   1.796   4.655   2.105  0.2337  0.2521 -0.4105
16813TIP3   OH271853   6.129   0.794   2.240 -0.0537  0.4670 -0.0214
16813TIP3    H171854   6.061   0.732   2.267 -1.0740  1.2942 -0.6359
16813TIP3    H271855   6.097   0.879   2.271  0.2492  0.9922 -1.1277
16814TIP3   OH271856   5.469   1.839   4.094  0.3871  0.1109  0.0639
16814TIP3    H171857   5.474   1.761   4.040 -0.3199  0.0657  0.0553
16814TIP3    H271858   5.404   1.894   4.051 -1.3603 -0.6028  1.6812
16815TIP3   OH271859   5.604   5.190  14.041  0.3626 -0.0141 -0.0326
16815TIP3    H171860   5.668   5.162  14.106 -1.4500 -1.0912  1.3252
16815TIP3    H271861   5.519   5.171  14.081 -0.7943  0.0457 -2.3827
16816TIP3   OH271862   1.205   0.333  11.973 -0.3675  0.3237 -0.0683
16816TIP3    H171863   1.172   0.372  12.054  1.0808  0.2959  0.5443
16816TIP3    H271864   1.173   0.392  11.904  0.6136  1.8388  0.7366
16817TIP3   OH271865   1.892   6.377  11.570  1.1123  0.3788 -0.4813
16817TIP3    H171866   1.861   6.301  11.522 -0.0729  0.5817 -0.0548
16817TIP3    H271867   1.969   6.346  11.617  1.4510 -0.1870 -1.4060
16818TIP3   OH271868   5.776   6.613   0.589  0.0643  0.8271 -0.4400
16818TIP3    H171869   5.840   6.640   0.523  1.2813  0.2423  0.4867
16818TIP3    H271870   5.774   6.517   0.582 -1.8703  0.9267 -1.5295
16819TIP3   OH271871   5.727   3.095   3.203 -0.5911 -0.1358  0.5162
16819TIP3    H171872   5.685   3.129   3.124 -1.2487 -1.1680  0.4207
16819TIP3    H271873   5.698   3.004   3.209  2.8699 -1.3941 -0.4390
16820TIP3   OH271874   5.001   0.696   0.297  0.0815 -0.4555  0.4192
16820TIP3    H171875   4.931   0.682   0.233  2.3152  2.0938 -2.7917
16820TIP3    H271876   4.957   0.735   0.373 -2.0869  0.6537 -1.3445
16821TIP3   OH271877   4.709   4.162   4.636 -0.0052 -0.5917 -0.1843
16821TIP3    H171878   4.780   4.216   4.669  0.2135  1.0774 -3.1564
16821TIP3    H271879   4.753   4.100   4.577 -0.6875 -1.5748  0.3314
16822TIP3   OH271880   0.038   0.697  13.063  0.1701 -0.1208  0.5026
16822TIP3    H171881   0.102   0.642  13.018  0.5409 -0.0628  0.9613
16822TIP3    H271882   0.090   0.761  13.112 -0.2119 -0.5758  1.5179
16823TIP3   OH271883   2.713   4.054   5.461  0.1099  0.1584  0.0957
16823TIP3    H171884   2.754   4.129   5.418 -0.4813 -0.2686 -1.2503
16823TIP3    H271885   2.775   3.982   5.450 -0.3307 -0.1206 -0.6693
16824TIP3   OH271886   4.076   4.723  16.122  0.1448  0.5611  0.0354
16824TIP3    H171887   4.037   4.642  16.155  0.6995  0.6465  0.9273
16824TIP3    H271888   4.151   4.693  16.070  0.2235  0.4952  0.1851
16825TIP3   OH271889   6.097   2.360  15.948 -0.0916 -0.5364 -0.4637
16825TIP3    H171890   6.136   2.433  15.901 -0.2513 -0.7681 -0.9590
16825TIP3    H271891   6.130   2.368  16.037  0.4050 -0.2374 -0.6763
16826TIP3   OH271892   4.067   5.072   1.367  0.6247  0.1490 -0.0294
16826TIP3    H171893   4.079   5.163   1.395 -0.8953  0.2866  0.2527
16826TIP3    H271894   3.994   5.076   1.305 -0.9622 -1.1754  1.6969
16827TIP3   OH271895   2.699   0.423   5.548  0.3025 -0.0042 -0.2524
16827TIP3    H171896   2.648   0.406   5.469 -1.6134 -2.0064  1.3584
16827TIP3    H271897   2.778   0.370   5.537 -0.0690 -0.4674 -0.7347
16828TIP3   OH271898   6.131   2.598  13.575 -0.0623 -0.5439 -0.1230
16828TIP3    H171899   6.174   2.623  13.493 -1.0738 -1.6928 -1.0168
16828TIP3    H271900   6.199   2.552  13.624  0.2299 -0.8463 -0.7997
16829TIP3   OH271901   3.497   2.019  14.950 -0.1572 -0.0874 -0.1898
16829TIP3    H171902   3.514   1.968  15.030 -1.6404 -0.4416 -0.0736
16829TIP3    H271903   3.456   2.099  14.982  1.5527  0.8962 -0.4270
16830TIP3   OH271904   5.439   5.734   0.230  0.6455  0.4188 -0.2332
16830TIP3    H171905   5.386   5.780   0.295 -0.2963 -0.8479 -0.1006
16830TIP3    H271906   5.522   5.718   0.275 -0.6707 -2.2065  1.3918
16831TIP3   OH271907   3.358   6.459  11.897 -0.1818 -0.5467  0.3261
16831TIP3    H171908   3.443   6.474  11.939 -0.8413 -1.6405  2.1434
16831TIP3    H271909   3.368   6.374  11.854  0.2297  0.1927 -1.0524
16832TIP3   OH271910   0.363   2.364   2.889  0.1486  0.0733  0.4424
16832TIP3    H171911   0.442   2.322   2.925  0.8058  1.9095  1.1936
16832TIP3    H271912   0.391   2.396   2.803  0.6264  1.9101  1.2692
16833TIP3   OH271913   4.597   4.329  13.549 -0.6760 -0.0948 -0.1782
16833TIP3    H171914   4.608   4.277  13.469 -0.0067  0.9458 -0.7864
16833TIP3    H271915   4.619   4.269  13.620 -1.2984 -1.0415 -0.7806
16834TIP3   OH271916   6.328   1.414  14.207 -0.4382  0.4957  0.1440
16834TIP3    H171917   6.293   1.351  14.270 -1.0080 -0.8765 -1.5344
16834TIP3    H271918   6.251   1.459  14.172 -0.3999 -1.0407 -1.9783
16835TIP3   OH271919   4.432   0.737   4.480 -0.0447 -0.6511  0.2127
16835TIP3    H171920   4.473   0.679   4.544 -1.3850 -0.9579  0.8075
16835TIP3    H271921   4.340   0.712   4.481 -0.0544 -0.7578 -1.9530
16836TIP3   OH271922   4.977   3.727   0.456 -0.1848  0.1741  0.5235
16836TIP3    H171923   4.899   3.714   0.401 -0.3324  1.4883  0.4082
16836TIP3    H271924   5.024   3.643   0.451 -1.5774 -0.6350  0.5904
16837TIP3   OH271925   5.930   3.971   1.613 -0.3371  0.1169 -0.2546
16837TIP3    H171926   5.932   3.963   1.518 -3.2460  0.2731 -0.3782
16837TIP3    H271927   5.904   4.062   1.629  0.1419  0.0909  0.6900
16838TIP3   OH271928   0.428   1.698  13.259 -0.4230  0.0500  0.0496
16838TIP3    H171929   0.424   1.682  13.165 -1.8742 -0.2274  0.1371
16838TIP3    H271930   0.514   1.736  13.274  0.6841 -1.9219 -1.0867
16839TIP3   OH271931   1.522   1.907   4.933  0.6862  0.0115  0.3443
16839TIP3    H171932   1.465   1.834   4.907  0.6639  0.3706 -0.6162
16839TIP3    H271933   1.461   1.979   4.952  0.7300 -0.1062  0.9624
16840TIP3   OH271934   4.517   2.797   2.430  0.1584  0.3402 -0.3729
16840TIP3    H171935   4.433   2.790   2.385  0.3976  2.2564 -1.1927
16840TIP3    H271936   4.497   2.780   2.522 -0.7024 -1.5883 -0.9083
16841TIP3   OH271937   6.085   4.301  14.578  0.4661 -0.0035 -0.3310
16841TIP3    H171938   6.057   4.255  14.499  1.2729 -3.2450  1.1748
16841TIP3    H271939   6.172   4.335  14.556 -0.1629  0.9154 -1.4822
16842TIP3   OH271940   6.009   5.879  14.425 -0.3990 -0.2696 -0.2281
16842TIP3    H171941   6.073   5.950  14.422  0.0776 -0.6818  0.0993
16842TIP3    H271942   5.939   5.911  14.482 -0.7717  0.4192 -1.0720
16843TIP3   OH271943   4.752   0.409  11.582 -0.5656 -0.1234  0.0024
16843TIP3    H171944   4.672   0.430  11.534 -0.4663 -0.3661 -0.2692
16843TIP3    H271945   4.823   0.443  11.527 -0.4078 -1.0809 -0.3997
16844TIP3   OH271946   0.027   0.325  13.293 -0.2733  0.1459 -0.2592
16844TIP3    H171947  -0.022   0.245  13.313  1.1755 -0.6062  0.3708
16844TIP3    H271948   0.000   0.387  13.360 -0.9200 -0.0140 -0.3650
16845TIP3   OH271949   0.654   0.123   5.818  0.0786  0.1262 -0.3855
16845TIP3    H171950   0.714   0.098   5.888  0.0733 -0.2396 -0.5106
16845TIP3    H271951   0.585   0.172   5.862 -1.4362 -2.5072  0.3132
16846TIP3   OH271952   5.485   4.779   2.386  0.0804  0.9940  0.7107
16846TIP3    H171953   5.407   4.732   2.356  0.6591  1.2242 -1.2232
16846TIP3    H271954   5.516   4.728   2.460 -0.8371 -0.1797  0.3084
16847TIP3   OH271955   3.143   6.388   5.259  0.1582  0.3800 -0.3323
16847TIP3    H171956   3.107   6.410   5.173  0.3891 -0.3783 -0.6249
16847TIP3    H271957   3.086   6.318   5.292  0.0925  0.6413  0.1150
16848TIP3   OH271958   0.985   0.607   4.295 -0.1144 -0.5477 -0.3817
16848TIP3    H171959   1.001   0.595   4.388 -1.9724 -0.2155  0.0080
16848TIP3    H271960   0.983   0.701   4.282  1.6011 -0.5868 -1.0440
16849TIP3   OH271961   1.907   3.244   4.038  0.4663  0.2170 -0.3153
16849TIP3    H171962   1.913   3.331   4.076 -0.8946  0.0528  0.3063
16849TIP3    H271963   1.937   3.185   4.108  1.8625  0.2132 -0.9032
16850TIP3   OH271964   5.935   0.207  11.467  0.1782 -0.1192  0.6111
16850TIP3    H171965   5.953   0.254  11.549 -2.7827  2.4633 -0.1063
16850TIP3    H271966   5.983   0.257  11.401 -0.1501 -0.2010  0.3111
16851TIP3   OH271967   2.509   3.080  15.195  0.7179  0.1396 -0.0566
16851TIP3    H171968   2.472   3.097  15.108 -0.5373  1.4487  0.6965
16851TIP3    H271969   2.477   3.153  15.249  1.6003 -0.5697  1.4692
16852TIP3   OH271970   2.313   0.464  15.502  0.1711  0.5089 -0.2223
16852TIP3    H171971   2.235   0.484  15.451 -0.8887 -0.5117  0.9869
16852TIP3    H271972   2.383   0.513  15.458 -0.8867  0.3895 -2.0850
16853TIP3   OH271973   5.572   5.424   5.394 -0.0285  0.2742  0.1319
16853TIP3    H171974   5.625   5.423   5.474 -0.3999  1.8916  0.4129
16853TIP3    H271975   5.604   5.500   5.345  0.5097 -0.9675 -1.4916
16854TIP3   OH271976   2.194   4.946   1.889  0.1567  0.3463 -0.3582
16854TIP3    H171977   2.236   4.871   1.847 -0.3153  0.2728 -0.7030
16854TIP3    H271978   2.212   5.019   1.830  1.1522  0.6408  0.2893
16855TIP3   OH271979   0.812   0.715  13.699 -0.1751 -0.0747  0.0304
16855TIP3    H171980   0.866   0.644  13.736 -0.5554 -0.2716  0.2102
16855TIP3    H271981   0.750   0.670  13.641  0.3069  0.2192 -0.7202
16856TIP3   OH271982   2.604   0.147  13.622 -0.3149  0.0743  0.4259
16856TIP3    H171983   2.516   0.159  13.586  0.2980  0.2869 -1.0470
16856TIP3    H271984   2.622   0.229  13.667 -1.9133 -0.9771  3.0986
16857TIP3   OH271985   0.983   0.958   4.321 -0.8782 -0.9994 -0.2564
16857TIP3    H171986   0.910   0.913   4.277 -0.7234 -0.5940 -0.9475
16857TIP3    H271987   1.058   0.942   4.264 -0.0684 -2.7690  1.2984
16858TIP3   OH271988   6.120   4.398   6.516  0.4254  0.2072 -0.2269
16858TIP3    H171989   6.088   4.344   6.442 -0.1498  0.2941 -0.0440
16858TIP3    H271990   6.148   4.334   6.581 -1.1124  0.1107  0.3617
16859TIP3   OH271991   1.738   5.905   4.293 -0.7774 -0.6747  0.0174
16859TIP3    H171992   1.802   5.901   4.223  0.5094 -0.2185  1.1501
16859TIP3    H271993   1.694   5.989   4.280  0.7604  0.2717  0.8688
16860TIP3   OH271994   0.503   4.301   1.401  0.5831 -0.1025  0.2109
16860TIP3    H171995   0.530   4.288   1.492 -0.7389  0.0772  0.6395
16860TIP3    H271996   0.408   4.309   1.406  0.3058 -2.1741 -1.4304
16861TIP3   OH271997   3.256   5.561  12.985 -0.0263 -0.0827  0.8915
16861TIP3    H171998   3.308   5.631  13.024  3.5973 -1.7944 -0.5939
16861TIP3    H271999   3.229   5.506  13.059  0.7638  0.5410  1.6410
16862TIP3   OH272000   0.967   5.363   3.170 -0.0119  0.1204 -0.0820
16862TIP3    H172001   1.027   5.330   3.237 -0.7645  1.3310  1.2139
16862TIP3    H272002   0.917   5.285   3.143 -1.0522 -0.0359  2.1987
16863TIP3   OH272003   6.011   3.681   2.583 -0.3393 -0.2503  0.2574
16863TIP3    H172004   5.921   3.700   2.554  0.0228 -0.7871 -1.2674
16863TIP3    H272005   6.057   3.763   2.573 -0.3125 -0.3360 -0.3396
16864TIP3   OH272006   3.283   1.757   2.187 -0.5676  0.0724 -0.0137
16864TIP3    H172007   3.249   1.841   2.217  1.2063  1.0046 -0.5238
16864TIP3    H272008   3.297   1.706   2.267  1.8752  1.6527  0.6109
16865TIP3   OH272009   5.554   5.883  16.399 -0.1772  0.6944  0.2347
16865TIP3    H172010   5.535   5.791  16.379  1.2385  0.0589  1.6245
16865TIP3    H272011   5.650   5.887  16.403 -0.1703  2.4880 -0.8742
16866TIP3   OH272012   1.518   3.103   3.441  0.2291  0.0142  0.5344
16866TIP3    H172013   1.480   3.146   3.517  0.7966  1.5578 -0.0297
16866TIP3    H272014   1.460   3.127   3.369  0.5338 -0.1937  0.2220
16867TIP3   OH272015   4.177   4.603  13.972  0.2829 -0.0644 -0.0774
16867TIP3    H172016   4.152   4.618  13.881 -1.4437  2.3820  0.7240
16867TIP3    H272017   4.108   4.546  14.007 -1.0859  1.9478  0.6059
16868TIP3   OH272018   5.409   4.822  13.809  0.2288 -0.0320 -0.1667
16868TIP3    H172019   5.468   4.877  13.757 -0.8041  0.1512 -1.1534
16868TIP3    H272020   5.328   4.874  13.816 -0.1778 -0.7235  0.3003
16869TIP3   OH272021   4.307   4.732   5.459  0.5844 -0.5300 -0.8588
16869TIP3    H172022   4.398   4.733   5.488  0.5745 -1.4394 -0.7608
16869TIP3    H272023   4.261   4.679   5.525 -0.1230  0.3999 -0.6024
16870TIP3   OH272024   0.020   2.172  10.826 -0.3151 -0.0866  0.4643
16870TIP3    H172025  -0.067   2.134  10.836 -0.6151  0.9721  2.1326
16870TIP3    H272026   0.078   2.097  10.814 -1.4675 -0.7829 -0.9078
16871TIP3   OH272027   0.958   1.119   3.171 -0.0569  0.4874 -0.0691
16871TIP3    H172028   0.988   1.036   3.208 -0.1964  0.4653 -0.0038
16871TIP3    H272029   0.988   1.117   3.080  1.9587  1.3893  0.5692
16872TIP3   OH272030   1.034   2.334   1.500 -0.0698  0.3318 -0.1360
16872TIP3    H172031   1.054   2.313   1.592  0.3111  2.8249  0.3736
16872TIP3    H272032   0.938   2.336   1.497 -0.1133 -0.8628 -0.0822
16873TIP3   OH272033   0.220   6.543  11.097 -0.3409 -0.3310  0.2472
16873TIP3    H172034   0.269   6.614  11.055 -0.0394 -1.1003 -0.7077
16873TIP3    H272035   0.286   6.492  11.143 -0.4887 -0.3082  0.4874
16874TIP3   OH272036   1.396   0.195  15.765 -0.3450 -0.3247 -0.2507
16874TIP3    H172037   1.355   0.225  15.684 -1.7737 -1.8083 -0.1012
16874TIP3    H272038   1.330   0.208  15.833  0.5994  0.2877  0.5776
16875TIP3   OH272039   3.509   0.404   6.010 -0.2234  0.3241 -0.0949
16875TIP3    H172040   3.513   0.489   6.055  0.5877  0.7590 -0.9582
16875TIP3    H272041   3.500   0.426   5.917  0.6116 -0.5111 -0.3897
16876TIP3   OH272042   5.912   6.619   5.242 -0.0680  0.2880 -0.0236
16876TIP3    H172043   5.848   6.689   5.224  0.3987  0.3711 -1.4112
16876TIP3    H272044   5.980   6.662   5.294  0.8317  1.2028 -1.8967
16877TIP3   OH272045   4.847   5.401   3.355  0.2074 -0.1064 -0.1422
16877TIP3    H172046   4.761   5.398   3.312  0.4851 -1.1903 -0.6329
16877TIP3    H272047   4.858   5.313   3.392  1.7783 -0.4571 -1.3979
16878TIP3   OH272048   3.548   4.944   3.834 -0.0736 -0.4860 -0.3338
16878TIP3    H172049   3.563   5.025   3.785  0.3812  0.9951  2.1615
16878TIP3    H272050   3.635   4.916   3.862 -0.2072 -1.9790 -1.3368
16879TIP3   OH272051   1.505   1.526   6.082  0.4712  0.3731 -0.2681
16879TIP3    H172052   1.489   1.434   6.064  1.2883  0.1084  0.3310
16879TIP3    H272053   1.460   1.542   6.165 -0.0348  0.6303 -0.5857
16880TIP3   OH272054   2.162   6.182  13.943 -0.4066 -0.0428  0.3991
16880TIP3    H172055   2.080   6.134  13.957  0.3549 -0.9265  1.9323
16880TIP3    H272056   2.230   6.125  13.980  0.9260  0.6231 -0.9644
16881TIP3   OH272057   4.120   5.928   4.804  0.0252 -0.0498 -0.2984
16881TIP3    H172058   4.197   5.882   4.771  0.3749  0.2066  0.1529
16881TIP3    H272059   4.150   5.970   4.885 -0.8349 -0.7421  0.3933
16882TIP3   OH272060   3.524   6.568  12.603 -0.0299 -0.8016 -0.5221
16882TIP3    H172061   3.446   6.522  12.572 -1.4313  1.3680 -0.3495
16882TIP3    H272062   3.539   6.533  12.690 -1.5447 -0.4165 -0.0797
16883TIP3   OH272063   5.375   5.141   5.488 -0.2610 -0.4596 -0.0464
16883TIP3    H172064   5.287   5.104   5.474 -0.1727 -1.5460  2.1387
16883TIP3    H272065   5.433   5.083   5.438 -0.5767 -0.9065  0.1026
16884TIP3   OH272066   4.034   0.337  12.265 -0.8887  0.3955 -0.0753
16884TIP3    H172067   4.052   0.430  12.280 -1.4204  0.3769  0.7034
16884TIP3    H272068   4.118   0.294  12.276 -0.6496  0.7782 -0.3887
16885TIP3   OH272069   5.748   2.723   4.218  0.2981  0.6694 -0.6055
16885TIP3    H172070   5.692   2.800   4.224  0.2331  0.7271 -1.7712
16885TIP3    H272071   5.757   2.707   4.124  2.9827  1.2122 -0.4954
16886TIP3   OH272072   1.639   5.878  14.524 -0.8297  0.3789 -0.5196
16886TIP3    H172073   1.623   5.803  14.581  0.6723 -0.1852 -0.8025
16886TIP3    H272074   1.671   5.947  14.583  1.1527 -0.3468 -0.7041
16887TIP3   OH272075   6.336   5.411   5.708 -0.3371 -0.2262  0.2784
16887TIP3    H172076   6.271   5.477   5.683  0.0368 -0.2096 -0.6657
16887TIP3    H272077   6.343   5.354   5.632  0.5326 -0.4056  0.4873
16888TIP3   OH272078   3.689   1.103   4.575  0.4780  0.0480  0.6042
16888TIP3    H172079   3.633   1.145   4.511  2.0196 -0.5946 -1.2149
16888TIP3    H272080   3.646   1.020   4.595  0.6911 -0.3862 -0.6868
16889TIP3   OH272081   3.983   6.204   6.169  0.1548  0.3277 -0.1800
16889TIP3    H172082   4.031   6.201   6.086 -0.9988  0.2860 -0.8609
16889TIP3    H272083   3.907   6.148   6.154  2.1959 -3.3535  2.3997
16890TIP3   OH272084   5.690   0.781   3.034 -0.2197  0.6821  0.4268
16890TIP3    H172085   5.596   0.775   3.043 -0.3784 -0.8064 -1.7371
16890TIP3    H272086   5.723   0.696   3.062  0.4959  1.2094  1.2145
16891TIP3   OH272087   0.564   4.458   5.817  0.1118  0.0255  0.0923
16891TIP3    H172088   0.531   4.456   5.727 -0.1437  0.0933  0.1837
16891TIP3    H272089   0.615   4.378   5.826  0.8588  0.4371 -0.3885
16892TIP3   OH272090   6.371   6.728  11.584  0.0833 -0.1482 -0.2438
16892TIP3    H172091   6.335   6.650  11.542 -0.2612  0.9610 -2.0556
16892TIP3    H272092   6.463   6.731  11.555 -0.2929  0.9027 -1.3971
16893TIP3   OH272093   1.590   0.072   3.821 -0.3192 -0.1086  0.5122
16893TIP3    H172094   1.577   0.109   3.734  0.6383 -0.2855  0.2832
16893TIP3    H272095   1.543  -0.012   3.818 -2.2535  0.9267  0.9458
16894TIP3   OH272096   4.822   3.644  13.233 -0.3333 -0.0039 -0.1963
16894TIP3    H172097   4.823   3.680  13.144 -0.2793 -1.6051 -0.8590
16894TIP3    H272098   4.817   3.721  13.290  1.6093  1.1408 -1.5156
16895TIP3   OH272099   6.716   4.735   0.828  0.1555  0.2429 -0.4388
16895TIP3    H172100   6.801   4.774   0.813  0.5875 -0.1950  0.8279
16895TIP3    H272101   6.696   4.754   0.919  0.1116 -1.9452  0.0391
16896TIP3   OH272102   5.099   4.464   4.145  0.2762  0.6850  0.5153
16896TIP3    H172103   5.075   4.553   4.118  0.0157  0.9144  1.5057
16896TIP3    H272104   5.031   4.439   4.207  0.1211 -0.3683 -0.0700
16897TIP3   OH272105   4.507   6.019  13.053 -0.0466  0.9813  0.2138
16897TIP3    H172106   4.453   6.029  13.132 -0.5713 -1.8424  0.2797
16897TIP3    H272107   4.590   5.983  13.086  0.6603  2.1470 -0.2646
16898TIP3   OH272108   0.922   0.410   0.927  0.1838 -0.0301 -0.8186
16898TIP3    H172109   0.918   0.449   1.014  0.2249 -0.3456 -0.6725
16898TIP3    H272110   0.868   0.331   0.935  1.5388 -0.9430 -0.6096
16899TIP3   OH272111   2.588   1.820   3.639 -0.2197 -0.2913 -0.1902
16899TIP3    H172112   2.658   1.766   3.603  0.8012  0.0902  1.2003
16899TIP3    H272113   2.619   1.910   3.631 -0.3790 -0.1418  0.7802
16900TIP3   OH272114   6.630   6.336  10.767 -0.2120  0.1832 -0.1074
16900TIP3    H172115   6.639   6.245  10.794 -0.9572  0.3180  0.6337
16900TIP3    H272116   6.680   6.343  10.686  3.3846  0.1102  1.9818
16901TIP3   OH272117   3.550   3.003   2.662 -0.1005 -0.0782  0.2128
16901TIP3    H172118   3.636   2.968   2.687  0.4846  1.3233  0.2003
16901TIP3    H272119   3.567   3.056   2.584 -0.8201  0.9076  0.7120
16902TIP3   OH272120   1.278   0.367  13.827 -0.3130 -0.6228 -0.3336
16902TIP3    H172121   1.335   0.398  13.756 -0.8626  0.1868 -0.4328
16902TIP3    H272122   1.228   0.295  13.787  0.3095 -1.0421 -0.3757
16903TIP3   OH272123   4.739   6.628  16.447  0.0292  0.7509  0.0004
16903TIP3    H172124   4.760   6.700  16.387 -2.9001  0.2473 -1.7240
16903TIP3    H272125   4.807   6.563  16.430 -0.3952  0.8794 -2.4060
16904TIP3   OH272126   1.750   1.452   1.160  0.1739 -0.6219 -0.5447
16904TIP3    H172127   1.803   1.494   1.093  1.7471 -1.3641  0.2116
16904TIP3    H272128   1.721   1.370   1.120  2.2608 -1.7286  0.1150
16905TIP3   OH272129   2.869   2.967  11.210  0.4933 -0.5691  0.3272
16905TIP3    H172130   2.860   2.968  11.115  1.3834  1.6215  0.2495
16905TIP3    H272131   2.784   2.936  11.242 -0.4212  0.3937 -1.1174
16906TIP3   OH272132   1.344   4.881  12.287 -0.5463 -0.1020  0.2482
16906TIP3    H172133   1.285   4.938  12.337 -0.7673 -0.1179  0.0082
16906TIP3    H272134   1.306   4.880  12.199  0.3374  0.6374 -0.1517
16907TIP3   OH272135   4.590   3.749  13.563 -0.3299  0.7410 -0.2598
16907TIP3    H172136   4.541   3.668  13.567  0.2224  0.4262  0.2399
16907TIP3    H272137   4.568   3.795  13.644 -0.5405  1.0353 -0.4807
16908TIP3   OH272138   3.603   1.622   0.018  0.3808  0.3807 -0.3196
16908TIP3    H172139   3.644   1.629   0.104 -0.1443 -0.2806 -0.0139
16908TIP3    H272140   3.653   1.683  -0.037 -0.3029  1.9734  0.8130
16909TIP3   OH272141   1.782   2.180   2.399  0.0913 -0.2867 -0.2541
16909TIP3    H172142   1.805   2.146   2.312  1.1879 -1.4928  0.4889
16909TIP3    H272143   1.821   2.117   2.460 -1.1675  0.2342  1.1038
16910TIP3   OH272144   1.178   6.024  13.766  0.3162 -0.0635 -0.6949
16910TIP3    H172145   1.085   6.008  13.752  0.0730 -0.8382  1.5750
16910TIP3    H272146   1.211   5.942  13.801  1.9165  0.1467 -1.6635
16911TIP3   OH272147   3.455   4.758   6.243  0.3298 -0.3051 -0.4945
16911TIP3    H172148   3.507   4.839   6.236  1.5316 -1.0981 -0.7839
16911TIP3    H272149   3.497   4.709   6.313 -2.1152  0.5598  1.6219
16912TIP3   OH272150   0.016   3.317   2.143 -0.1101 -0.1279  0.5361
16912TIP3    H172151   0.083   3.249   2.152  0.4759  0.4263  0.3963
16912TIP3    H272152  -0.051   3.278   2.088  1.3191  0.2208 -1.5064
16913TIP3   OH272153   3.927   6.200   3.988 -0.4417 -0.4139 -0.2744
16913TIP3    H172154   3.854   6.262   3.981  0.0366  0.0499 -1.1729
16913TIP3    H272155   3.991   6.245   4.043  0.5132  0.5010 -2.0813
16914TIP3   OH272156   4.272   3.298  13.323  0.0627  0.1430  0.4360
16914TIP3    H172157   4.337   3.256  13.268 -1.0519 -0.9336 -0.0979
16914TIP3    H272158   4.228   3.361  13.265  0.3752  0.5880  0.6865
16915TIP3   OH272159   6.198   6.075  11.693  0.1359  0.1082 -0.0013
16915TIP3    H172160   6.290   6.066  11.718 -0.2433  1.9658  2.1826
16915TIP3    H272161   6.164   5.985  11.695  1.9687 -0.6504 -1.2243
16916TIP3   OH272162   0.908   0.066   5.497 -0.4410  0.0447  0.2861
16916TIP3    H172163   0.977   0.010   5.535  0.2744 -0.0213 -1.0872
16916TIP3    H272164   0.827   0.026   5.528  0.0572 -1.8471 -0.7531
16917TIP3   OH272165   0.347   1.379  12.453  0.0379 -0.2950  0.0433
16917TIP3    H172166   0.275   1.412  12.505 -0.5492 -0.5469 -0.5961
16917TIP3    H272167   0.309   1.306  12.403  0.3761  0.4759 -1.3595
16918TIP3   OH272168   0.747   2.770   1.288  0.3703 -0.4092 -0.1408
16918TIP3    H172169   0.755   2.678   1.315  1.1129 -0.2230  0.2926
16918TIP3    H272170   0.757   2.768   1.193 -1.1484 -0.9497 -0.3038
16919TIP3   OH272171   4.245   3.012   3.911  0.0431 -0.4508  0.1791
16919TIP3    H172172   4.183   3.058   3.856 -0.4241 -0.4872  0.6711
16919TIP3    H272173   4.195   2.987   3.989  0.9133  0.4061  1.0275
16920TIP3   OH272174   3.635   5.526   3.886 -0.1218 -0.4253 -0.0088
16920TIP3    H172175   3.588   5.491   3.962  0.1182  1.0983  0.8438
16920TIP3    H272176   3.599   5.476   3.812 -1.2627 -1.0459  0.9290
16921TIP3   OH272177   5.862   1.855  15.692  0.2049 -0.0852 -0.7785
16921TIP3    H172178   5.812   1.781  15.726 -0.5809  0.3339 -1.0369
16921TIP3    H272179   5.854   1.923  15.759  1.5219 -0.4727 -0.2036
16922TIP3   OH272180   5.587   6.769   0.236 -0.1508  0.8633 -0.3559
16922TIP3    H172181   5.494   6.769   0.211  0.1970 -1.9026 -1.7945
16922TIP3    H272182   5.634   6.773   0.152  1.0383  0.6506  0.3005
16923TIP3   OH272183   5.490   5.787   2.955 -0.5443  0.7895 -0.0254
16923TIP3    H172184   5.464   5.867   2.999 -0.3434  1.0877 -0.4505
16923TIP3    H272185   5.408   5.749   2.923 -0.9503 -0.5388  2.4532
16924TIP3   OH272186   3.891   3.420  15.854 -0.0079  0.1641 -0.3305
16924TIP3    H172187   3.827   3.373  15.908  0.0863 -0.1618 -0.5004
16924TIP3    H272188   3.974   3.376  15.872 -0.2229 -0.8934 -1.8457
16925TIP3   OH272189   6.441   0.964  16.595  0.0995  0.1692 -0.3637
16925TIP3    H172190   6.419   1.057  16.597 -1.6684 -0.2381 -0.2285
16925TIP3    H272191   6.491   0.953  16.514 -1.9321  0.7900 -1.7579
16926TIP3   OH272192   6.133   3.256   0.941 -0.7422  0.3002 -0.3857
16926TIP3    H172193   6.197   3.244   0.871  0.0141 -0.4280  0.4291
16926TIP3    H272194   6.184   3.256   1.022 -1.6753  0.5661  0.2170
16927TIP3   OH272195   3.818   4.915   3.946  0.3029 -0.5282 -0.2808
16927TIP3    H172196   3.797   4.969   4.022  0.5497 -1.1141  0.2093
16927TIP3    H272197   3.880   4.968   3.896  3.4615 -1.8171  2.0968
16928TIP3   OH272198   5.571   0.361  12.356 -0.3742  0.8145 -0.0394
16928TIP3    H172199   5.490   0.320  12.387 -0.0486 -1.1191 -1.6932
16928TIP3    H272200   5.599   0.308  12.282  2.4992  1.3600  0.5723
16929TIP3   OH272201   0.548   0.103  16.158  0.3895  0.5616 -0.0677
16929TIP3    H172202   0.458   0.136  16.166 -0.2477 -0.7615 -1.4827
16929TIP3    H272203   0.600   0.165  16.208 -1.5448  0.2714  2.4201
16930TIP3   OH272204   4.589   6.221   4.098 -0.0436  0.9695 -0.5768
16930TIP3    H172205   4.679   6.189   4.107 -0.4860 -0.2741 -0.4163
16930TIP3    H272206   4.585   6.298   4.155  1.1552  1.5460 -1.2575
16931TIP3   OH272207   0.675   6.643  12.000 -0.0428  0.0251  0.9684
16931TIP3    H172208   0.613   6.663  12.070 -0.6194 -0.7086  0.6740
16931TIP3    H272209   0.728   6.572  12.034  0.1036  0.1063  0.9099
16932TIP3   OH272210   3.453   0.907  13.743 -0.1404  0.1494  0.3684
16932TIP3    H172211   3.497   0.992  13.734 -0.9338  0.6120  0.8899
16932TIP3    H272212   3.367   0.920  13.703 -0.3131 -0.3760  0.5716
16933TIP3   OH272213   2.508   5.462   5.185  0.0638 -0.3552 -0.4719
16933TIP3    H172214   2.485   5.444   5.276  1.2206 -0.5475 -0.1968
16933TIP3    H272215   2.458   5.540   5.162 -0.6271 -0.6050  0.1712
16934TIP3   OH272216   6.218   4.840   5.103  0.0146 -0.0104 -0.2688
16934TIP3    H172217   6.198   4.764   5.158  1.0616  0.0085  0.1381
16934TIP3    H272218   6.190   4.915   5.156  0.1178 -0.0437 -0.1674
16935TIP3   OH272219   3.640   3.003  13.354 -0.0865 -0.3233 -0.1648
16935TIP3    H172220   3.651   2.964  13.267 -1.1897 -0.2329 -0.3636
16935TIP3    H272221   3.665   2.934  13.415 -2.5492 -1.5861 -0.4931
16936TIP3   OH272222   5.921   4.130  11.195 -0.7377  0.1198 -0.3622
16936TIP3    H172223   5.977   4.103  11.268  0.9274  0.8388 -1.3361
16936TIP3    H272224   5.864   4.198  11.232 -1.8269 -1.4854  0.9474
16937TIP3   OH272225   0.600   1.288  12.174 -0.4145 -0.3000  0.5534
16937TIP3    H172226   0.577   1.198  12.197  1.5642 -0.6276  1.3366
16937TIP3    H272227   0.635   1.326  12.255 -0.3337  0.8717 -0.0102
16938TIP3   OH272228   0.319   1.264   5.008  0.3624 -0.0021  0.8165
16938TIP3    H172229   0.284   1.346   4.973 -0.2286 -0.7632 -0.4076
16938TIP3    H272230   0.247   1.228   5.060 -1.1302 -2.1074 -2.5913
16939TIP3   OH272231   4.810   2.004  14.643  0.5131 -0.2884  0.4410
16939TIP3    H172232   4.821   1.935  14.578 -0.0353  0.0988 -0.0751
16939TIP3    H272233   4.899   2.030  14.667  0.7292  0.1292 -0.7675
16940TIP3   OH272234   3.722   3.079   5.346 -0.4706 -0.1578 -0.1627
16940TIP3    H172235   3.708   3.005   5.405  3.2152 -1.1378 -0.3602
16940TIP3    H272236   3.691   3.048   5.261 -1.1873 -0.5938  0.2566
16941TIP3   OH272237   6.707   6.692  10.308 -0.1471  0.1511 -0.1327
16941TIP3    H172238   6.631   6.668  10.361 -2.2707 -1.5757 -3.7614
16941TIP3    H272239   6.691   6.782  10.282 -0.1326  0.3167  0.4235
16942TIP3   OH272240   1.359   4.172   1.460  0.0907 -0.0700  0.1531
16942TIP3    H172241   1.443   4.175   1.506 -1.1133  0.1686  2.4192
16942TIP3    H272242   1.329   4.262   1.460 -0.4060 -0.2328 -0.2241
16943TIP3   OH272243   6.067   4.164  11.698  0.2605 -0.0993  0.3702
16943TIP3    H172244   5.983   4.140  11.736  0.3085 -0.2948  0.3487
16943TIP3    H272245   6.094   4.088  11.646  0.3654  0.0313  0.2314
16944TIP3   OH272246   6.139   0.875   6.025 -0.3111  0.0847  0.2832
16944TIP3    H172247   6.195   0.885   6.102 -2.0637 -0.3682  1.6608
16944TIP3    H272248   6.186   0.814   5.968  1.3048  0.9282  0.6760
16945TIP3   OH272249   3.487   3.722   5.387 -0.0823 -0.2603 -0.1505
16945TIP3    H172250   3.442   3.795   5.346 -0.1968 -0.9217 -1.2038
16945TIP3    H272251   3.563   3.705   5.331  0.4748 -0.3363  0.6098
16946TIP3   OH272252   2.604   3.064   3.248 -0.4542 -0.0517  0.5505
16946TIP3    H172253   2.612   3.034   3.157  1.5347  1.0247  0.3652
16946TIP3    H272254   2.604   2.983   3.299 -1.0777 -0.6415 -0.3602
16947TIP3   OH272255   4.045   1.959   1.729  0.5989 -0.3491 -0.3309
16947TIP3    H172256   4.129   1.914   1.720  1.0167  0.2872  0.3494
16947TIP3    H272257   4.064   2.051   1.712  0.5427  0.1872  2.2353
16948TIP3   OH272258   5.453   4.929  11.190  0.0721 -0.3134 -0.1331
16948TIP3    H172259   5.504   4.870  11.134 -0.6418 -1.2757  0.2219
16948TIP3    H272260   5.409   4.871  11.251  0.3605  0.6971  1.0436
16949TIP3   OH272261   6.219   1.821   3.712 -0.3638  0.7377 -0.7131
16949TIP3    H172262   6.197   1.898   3.765 -0.2735  0.3232 -0.0598
16949TIP3    H272263   6.234   1.855   3.624 -1.0652  1.3657 -0.5909
16950TIP3   OH272264   3.770   1.967   0.794  0.0483  0.5672 -0.7857
16950TIP3    H172265   3.852   1.921   0.778  0.3055  1.1567 -1.1752
16950TIP3    H272266   3.750   2.009   0.710 -0.9617 -0.0672 -0.8758
16951TIP3   OH272267   0.554   5.042   5.173 -0.0075 -0.0219 -0.0568
16951TIP3    H172268   0.559   5.137   5.181  1.0168  0.0507 -1.4348
16951TIP3    H272269   0.605   5.021   5.095 -0.4816 -1.6802  0.0483
16952TIP3   OH272270   1.352   1.708  11.690  0.4026  0.5428  0.0889
16952TIP3    H172271   1.413   1.781  11.701  1.4745 -0.5473  1.7125
16952TIP3    H272272   1.287   1.721  11.759 -0.1807  0.7066 -0.4891
16953TIP3   OH272273   2.560   5.515   2.897 -0.2105  0.3493  0.1013
16953TIP3    H172274   2.532   5.441   2.843  1.0829 -1.2518  1.5434
16953TIP3    H272275   2.651   5.531   2.871 -0.8274  2.1807 -0.9905
16954TIP3   OH272276   3.427   3.541  11.979 -0.3465  0.1497  0.0331
16954TIP3    H172277   3.496   3.546  11.913 -0.3267  3.3521  0.2009
16954TIP3    H272278   3.469   3.501  12.055  0.9827  0.8081 -0.3273
16955TIP3   OH272279   1.157   5.602  14.236 -0.0652 -0.0282  0.4697
16955TIP3    H172280   1.102   5.607  14.158 -1.1012  1.2446  1.2758
16955TIP3    H272281   1.233   5.551  14.207  0.3225  1.7456 -1.8015
16956TIP3   OH272282   0.546   5.872   5.584 -0.3978  0.1819 -0.5151
16956TIP3    H172283   0.486   5.933   5.542 -1.0251 -1.2966 -1.7913
16956TIP3    H272284   0.511   5.861   5.673 -0.7806  0.9805 -0.5656
16957TIP3   OH272285   6.136   3.615  10.441 -0.0645  0.3333  0.5089
16957TIP3    H172286   6.072   3.593  10.509 -0.7395 -0.5456 -0.3883
16957TIP3    H272287   6.121   3.550  10.372  1.9788 -0.0695  0.3937
16958TIP3   OH272288   2.061   3.451  12.134 -0.2175  0.8445  0.4931
16958TIP3    H172289   2.043   3.381  12.072 -0.7013  1.0249  0.4262
16958TIP3    H272290   1.975   3.488  12.154 -0.1499  0.3026  1.8447
16959TIP3   OH272291   6.191   1.372  12.081 -0.3331 -0.0356  0.0145
16959TIP3    H172292   6.261   1.391  12.018 -0.1943 -0.5151  0.0235
16959TIP3    H272293   6.173   1.279  12.069 -0.6763 -0.0067  0.3102
16960TIP3   OH272294   6.534   4.707  16.229 -0.1443  0.6759 -0.6298
16960TIP3    H172295   6.527   4.681  16.137 -0.4494  1.3623 -0.8031
16960TIP3    H272296   6.518   4.801  16.229 -4.5601  0.0131  0.6414
16961TIP3   OH272297   4.190   6.529   4.288 -0.1381  0.5689  0.0523
16961TIP3    H172298   4.127   6.600   4.303  0.5034  1.1279  0.1541
16961TIP3    H272299   4.247   6.562   4.219 -0.7760 -0.4863 -0.9814
16962TIP3   OH272300   2.409   6.496  13.090  0.0488 -0.1408  0.0985
16962TIP3    H172301   2.413   6.586  13.056  0.3310  0.2953  1.2476
16962TIP3    H272302   2.390   6.442  13.014  0.3366  0.8528 -0.6898
16963TIP3   OH272303   6.627   0.261   1.325  0.2808 -0.2145 -0.0928
16963TIP3    H172304   6.718   0.231   1.318  0.3291 -0.3913  1.1915
16963TIP3    H272305   6.618   0.290   1.415 -0.4482  1.4620 -0.6793
16964TIP3   OH272306   4.101   0.133  17.192  0.5050  0.1653  0.6131
16964TIP3    H172307   4.070   0.224  17.184  0.6106  0.2177  0.7964
16964TIP3    H272308   4.021   0.082  17.206  0.2890  0.0406 -0.9593
16965TIP3   OH272309   3.536   0.721   1.651  0.0105 -0.2320  0.0909
16965TIP3    H172310   3.579   0.697   1.569 -1.3504 -2.2120 -0.0699
16965TIP3    H272311   3.492   0.804   1.632 -1.3612 -1.3114 -1.5762
16966TIP3   OH272312   5.300   4.005   1.278  0.1302  0.1525  0.2988
16966TIP3    H172313   5.343   4.024   1.361 -1.1942  1.1683  0.7731
16966TIP3    H272314   5.215   3.968   1.302  1.3432 -3.3587 -0.6366
16967TIP3   OH272315   5.586   6.169   4.047  0.1958  0.1798  0.4334
16967TIP3    H172316   5.573   6.204   4.135 -0.1252 -0.5783  0.6897
16967TIP3    H272317   5.647   6.230   4.006 -0.1840  0.9220  0.9476
16968TIP3   OH272318   6.303   0.000  12.417  0.0320  0.5319  0.0090
16968TIP3    H172319   6.336  -0.004  12.507  2.0458  1.2498 -0.6643
16968TIP3    H272320   6.247  -0.077  12.409  0.7701 -0.1897  1.5128
16969TIP3   OH272321   2.871   1.083  12.261 -0.2991 -0.3719  0.4433
16969TIP3    H172322   2.939   1.147  12.283  0.0932 -0.6955  0.1730
16969TIP3    H272323   2.831   1.117  12.181 -1.1429  0.3512  1.1616
16970TIP3   OH272324   4.507   4.840  14.509  0.6202 -0.0464 -0.1382
16970TIP3    H172325   4.517   4.932  14.532  0.0860 -0.5508  2.1820
16970TIP3    H272326   4.553   4.792  14.578  3.3108 -1.4649 -2.7849
16971TIP3   OH272327   0.854   1.031  16.593 -0.0051  0.0163 -0.6023
16971TIP3    H172328   0.903   1.076  16.524  2.7910  1.9157  2.4919
16971TIP3    H272329   0.835   1.099  16.657 -0.9998 -2.0554  1.3760
16972TIP3   OH272330   1.522   0.448  16.223  0.0596 -0.2446  0.1451
16972TIP3    H172331   1.470   0.376  16.260 -1.2435  0.1420 -0.9187
16972TIP3    H272332   1.573   0.481  16.298 -1.9860  0.0365  1.4563
16973TIP3   OH272333   2.271   2.521  13.201 -0.1547 -0.0886 -0.1382
16973TIP3    H172334   2.294   2.553  13.288  2.1678 -0.6483 -0.5171
16973TIP3    H272335   2.207   2.584  13.168 -2.3355 -0.7692  2.5856
16974TIP3   OH272336   1.940   1.675   4.894  0.1571 -0.4667 -1.0284
16974TIP3    H172337   1.981   1.747   4.847  0.0398  0.3679  0.1110
16974TIP3    H272338   1.983   1.675   4.980  0.0900 -1.6940 -0.9903
16975TIP3   OH272339   5.760   4.611   0.224  0.0156 -0.0207  0.0039
16975TIP3    H172340   5.738   4.592   0.315  0.2816 -2.2437 -0.3636
16975TIP3    H272341   5.815   4.538   0.197 -2.6306 -1.0724 -2.8721
16976TIP3   OH272342   5.625   2.488   4.924 -0.1154  0.4741  0.1197
16976TIP3    H172343   5.649   2.399   4.899 -1.4912  0.3975 -0.9739
16976TIP3    H272344   5.547   2.477   4.978 -1.0991  1.0999 -1.1565
16977TIP3   OH272345   1.150   3.978  11.991  0.3683  0.2255 -0.3456
16977TIP3    H172346   1.107   4.012  12.069  1.5920 -0.3203  0.5899
16977TIP3    H272347   1.139   3.883  11.996  0.7066  0.1636 -0.6728
16978TIP3   OH272348   3.439   2.454   5.401  0.4698  0.5163 -0.3658
16978TIP3    H172349   3.455   2.449   5.307 -1.8416  1.0723 -0.8352
16978TIP3    H272350   3.517   2.494   5.438  2.1914 -1.4447 -1.8017
16979TIP3   OH272351   1.367   0.726   0.202 -0.6905  0.5749 -0.4732
16979TIP3    H172352   1.330   0.814   0.190 -1.1097  0.7316  1.8006
16979TIP3    H272353   1.310   0.684   0.266 -1.1135 -1.7732 -2.3273
16980TIP3   OH272354   6.398   3.050  14.748  0.0466  0.3398  0.1217
16980TIP3    H172355   6.427   3.120  14.806  0.0236  0.8600 -0.4892
16980TIP3    H272356   6.427   3.076  14.661  0.9563 -0.9199  0.0261
16981TIP3   OH272357   3.955   3.345   5.171 -1.3592 -0.4413 -0.0913
16981TIP3    H172358   3.937   3.424   5.120 -2.7320 -0.5859  0.1585
16981TIP3    H272359   3.934   3.273   5.112 -0.1514 -0.6428 -0.3020
16982TIP3   OH272360   1.033   0.901   3.320 -0.2787 -0.6478  0.1358
16982TIP3    H172361   0.994   0.814   3.327  1.0468 -1.3101 -0.5441
16982TIP3    H272362   1.043   0.930   3.411  1.4106 -2.1769  0.4508
16983TIP3   OH272363   0.563   3.895   3.421 -0.1968 -0.4402  0.2803
16983TIP3    H172364   0.471   3.891   3.393  0.3146 -0.2852 -1.5244
16983TIP3    H272365   0.604   3.952   3.356  1.3455 -1.1845  0.5903
16984TIP3   OH272366   0.137   3.461   3.571 -0.5784 -0.0064 -0.0492
16984TIP3    H172367   0.112   3.541   3.525  1.6440  0.7353 -0.0573
16984TIP3    H272368   0.064   3.400   3.557 -1.4108  1.3441 -1.7057
16985TIP3   OH272369   2.869   6.609   2.753 -0.0398  1.3669 -0.2048
16985TIP3    H172370   2.779   6.639   2.765 -0.4033 -0.1785  1.1385
16985TIP3    H272371   2.910   6.620   2.839  0.5503  0.5068 -0.3652
16986TIP3   OH272372   3.411   5.828  15.239 -0.4042  0.3161 -0.6066
16986TIP3    H172373   3.445   5.915  15.262  2.4095 -0.9044 -0.0626
16986TIP3    H272374   3.484   5.768  15.253 -2.1895 -2.1247 -1.3512
16987TIP3   OH272375   2.986   4.931  10.917  0.4961 -0.2213  0.3500
16987TIP3    H172376   2.929   4.927  10.994  0.7242  1.7892  0.6504
16987TIP3    H272377   3.067   4.972  10.950  0.8210  0.0887 -0.8206
16988TIP3   OH272378   5.234   0.244  13.085  0.6250 -0.3326  0.5584
16988TIP3    H172379   5.275   0.276  13.165  2.5297 -0.6039 -0.2964
16988TIP3    H272380   5.299   0.259  13.016 -1.2239  0.5100 -1.0707
16989TIP3   OH272381   3.514   5.854   5.017  0.0251  0.9156 -0.4856
16989TIP3    H172382   3.531   5.806   4.937 -1.3506  1.5751 -1.1879
16989TIP3    H272383   3.466   5.793   5.073  2.1708 -0.0176  0.4242
16990TIP3   OH272384   2.432   6.366   3.574  0.0864 -0.4664 -0.0895
16990TIP3    H172385   2.380   6.329   3.645 -1.2966 -0.9127 -1.3036
16990TIP3    H272386   2.521   6.367   3.607 -0.6019 -0.2821  1.8040
16991TIP3   OH272387   6.258   3.844  16.657 -0.4984  0.6442  0.3939
16991TIP3    H172388   6.197   3.798  16.714 -0.3191  0.1884  0.2227
16991TIP3    H272389   6.263   3.932  16.694 -1.7709  0.8845  0.0180
16992TIP3   OH272390   1.205   5.858  16.364  0.6332 -0.3479  0.3751
16992TIP3    H172391   1.118   5.824  16.341  0.6255 -1.6128  2.1139
16992TIP3    H272392   1.225   5.921  16.296 -1.3575 -0.5582 -0.4484
16993TIP3   OH272393   4.959   2.723  12.643 -0.2044  0.1271 -0.3370
16993TIP3    H172394   4.878   2.678  12.664 -0.4643  0.0574 -1.4646
16993TIP3    H272395   4.952   2.808  12.687 -0.4316 -0.2881  0.4280
16994TIP3   OH272396   4.251   0.151  12.256  0.0937 -0.2555 -0.0238
16994TIP3    H172397   4.287   0.204  12.328  0.7001 -0.1306 -0.4113
16994TIP3    H272398   4.316   0.082  12.242  0.1604 -0.0590 -0.7020
16995TIP3   OH272399   4.830   2.756   3.972 -0.0528 -0.4834 -0.2293
16995TIP3    H172400   4.796   2.845   3.975  0.2029 -0.3731 -0.4838
16995TIP3    H272401   4.760   2.704   3.934  0.0965 -0.2411 -0.8409
16996TIP3   OH272402   4.333   4.391  12.169 -0.2083 -0.3441 -0.2944
16996TIP3    H172403   4.248   4.359  12.200 -0.3692  0.7767  0.4446
16996TIP3    H272404   4.311   4.443  12.091  0.0439 -1.9489 -1.4520
16997TIP3   OH272405   0.489   0.455   5.848 -0.0220  0.1980  0.1358
16997TIP3    H172406   0.526   0.523   5.904 -0.5341 -0.4676  1.3187
16997TIP3    H272407   0.432   0.405   5.907 -1.6153  0.2922 -1.3153
16998TIP3   OH272408   2.220   3.494  12.352  0.2563 -0.3146 -0.0391
16998TIP3    H172409   2.163   3.472  12.279 -0.0712  0.0633  0.1050
16998TIP3    H272410   2.307   3.465  12.323 -0.2971 -2.5545  0.4852
16999TIP3   OH272411   2.811   1.766  11.157 -0.1248 -0.0957 -0.1952
16999TIP3    H172412   2.806   1.767  11.253  1.7230  2.6633 -0.0489
16999TIP3    H272413   2.851   1.682  11.136  0.5105 -0.2474  1.5489
17000TIP3   OH272414   2.558   2.378   5.614 -0.2905  0.4093  0.5370
17000TIP3    H172415   2.637   2.332   5.643 -0.7390  0.3646  1.7089
17000TIP3    H272416   2.497   2.309   5.589 -0.6696  0.3902  1.5155
17001TIP3   OH272417   4.693   0.222  12.780 -0.4259 -0.4699 -0.1140
17001TIP3    H172418   4.654   0.270  12.707 -3.9207 -0.9021  1.3906
17001TIP3    H272419   4.660   0.133  12.771  1.0181 -1.1020  0.6530
17002TIP3   OH272420   2.952   5.142  15.169 -0.3364 -0.2643 -0.3552
17002TIP3    H172421   2.920   5.159  15.080  0.6356  0.2730 -0.6102
17002TIP3    H272422   3.029   5.086  15.157  0.7242  1.0829  0.0368
17003TIP3   OH272423   3.169   0.824  11.725  0.4635 -0.2363 -0.4975
17003TIP3    H172424   3.221   0.779  11.792 -0.5443 -1.6565 -0.6564
17003TIP3    H272425   3.181   0.917  11.745  0.8852 -0.6150  1.1166
17004TIP3   OH272426   0.811   0.074  16.020  0.1701 -0.3184  0.1538
17004TIP3    H172427   0.863   0.003  16.056 -1.0180 -0.5596  1.4604
17004TIP3    H272428   0.825   0.148  16.080 -0.4707 -0.1955  0.1646
17005TIP3   OH272429   1.377   0.621  15.386  0.4179 -0.6385 -0.2688
17005TIP3    H172430   1.339   0.700  15.348  1.5921 -0.7785 -1.7886
17005TIP3    H272431   1.302   0.565  15.406 -0.4776  1.1770  1.6217
17006TIP3   OH272432   2.284   5.260   5.746 -0.5781  0.2727 -0.6771
17006TIP3    H172433   2.247   5.291   5.829  2.7489 -0.4210  1.2040
17006TIP3    H272434   2.297   5.340   5.694 -0.9260  0.9582  0.2727
17007TIP3   OH272435   3.566   4.219   2.749 -0.3497  1.0405 -0.3664
17007TIP3    H172436   3.518   4.280   2.803 -0.9301  0.1752  0.1097
17007TIP3    H272437   3.622   4.171   2.810 -1.7720 -0.6560 -0.3660
17008TIP3   OH272438   3.539   6.160  15.787  0.4053  0.0033  0.1628
17008TIP3    H172439   3.552   6.071  15.818 -0.8589 -1.0477 -2.2360
17008TIP3    H272440   3.492   6.151  15.704 -3.1255  3.0340  1.6622
17009TIP3   OH272441   1.504   4.994   5.696 -0.1050 -0.6660  0.2170
17009TIP3    H172442   1.419   5.039   5.698 -0.7793 -1.8925  0.3139
17009TIP3    H272443   1.514   4.958   5.784  0.3412 -0.8188  0.1058
17010TIP3   OH272444   6.389   1.865  16.684 -0.0005  0.1560  0.0167
17010TIP3    H172445   6.398   1.899  16.773  0.0301 -1.0256  0.4732
17010TIP3    H272446   6.452   1.916  16.633  0.7252  0.1227  0.8714
17011TIP3   OH272447   0.996   4.536  12.769 -0.5486 -0.1798 -0.3483
17011TIP3    H172448   0.990   4.443  12.750 -0.2492 -0.5428  1.3414
17011TIP3    H272449   0.910   4.560  12.803 -0.7972  0.2914 -1.2709
17012TIP3   OH272450   4.352   4.979   5.950  0.1867  0.3889  0.5847
17012TIP3    H172451   4.430   5.020   5.910 -1.0886  3.4200  1.0221
17012TIP3    H272452   4.329   5.038   6.021 -3.0210  0.0196 -0.0911
17013TIP3   OH272453   5.463   0.298   0.829 -0.1336  0.3095  0.4446
17013TIP3    H172454   5.550   0.334   0.846 -0.3014  0.1674  1.6169
17013TIP3    H272455   5.442   0.247   0.907 -0.6991 -0.7848 -0.4008
17014TIP3   OH272456   1.616   2.214  13.041  0.2170 -0.9232  0.2694
17014TIP3    H172457   1.693   2.266  13.018 -0.7395  0.3255 -0.1730
17014TIP3    H272458   1.584   2.181  12.958  0.0789 -1.1626  0.4200
17015TIP3   OH272459   3.799   4.926   0.082  0.3493  0.4020 -0.9304
17015TIP3    H172460   3.739   4.852   0.094  0.7430  0.2957  0.5319
17015TIP3    H272461   3.801   4.969   0.168  0.9949  1.4520 -1.4591
17016TIP3   OH272462   5.617   0.348  15.929  0.1783  0.1041 -0.6740
17016TIP3    H172463   5.543   0.287  15.925  0.3970 -0.3011  1.1734
17016TIP3    H272464   5.598   0.403  16.006  2.7005 -1.2142  0.9426
17017TIP3   OH272465   1.106   5.477  16.045  0.7153  0.0866  0.3157
17017TIP3    H172466   1.015   5.460  16.072  0.9179  0.8452  1.5246
17017TIP3    H272467   1.101   5.488  15.950 -0.3262 -0.7173  0.2542
17018TIP3   OH272468   5.698   1.698  12.143  0.4263  0.1406 -0.4759
17018TIP3    H172469   5.611   1.667  12.117  0.7504 -0.1451 -1.2091
17018TIP3    H272470   5.750   1.696  12.063  0.8033  1.3802 -0.2774
17019TIP3   OH272471   0.249   2.429   0.989 -0.1425  1.0021  0.0039
17019TIP3    H172472   0.172   2.469   1.030 -0.1390  0.6713  0.3320
17019TIP3    H272473   0.212   2.362   0.931  0.0001 -1.0478  2.2060
17020TIP3   OH272474   0.619   3.060   1.297  0.2586  0.2247  1.0205
17020TIP3    H172475   0.673   2.994   1.340  1.6836 -0.3361 -1.5193
17020TIP3    H272476   0.555   3.010   1.246  0.7607  0.7804 -0.1924
17021TIP3   OH272477   4.937   0.610  14.195  0.4791  0.2059  0.8789
17021TIP3    H172478   4.861   0.589  14.250  0.2078  0.5471  0.6293
17021TIP3    H272479   4.932   0.546  14.123  1.2395 -0.7159  1.6243
17022TIP3   OH272480   6.197   5.887  15.337  0.9048  0.0220  0.2139
17022TIP3    H172481   6.266   5.825  15.315  0.7214 -0.4702  0.9985
17022TIP3    H272482   6.152   5.847  15.412  0.5062  0.8886  0.4445
17023TIP3   OH272483   3.106   2.311  12.287 -0.1190  0.0368  0.2495
17023TIP3    H172484   3.084   2.333  12.378 -0.4000  0.4701  0.0727
17023TIP3    H272485   3.116   2.396  12.243  0.8312 -0.1577  0.0718
17024TIP3   OH272486   3.350   6.666  12.176 -0.3635  0.0030 -0.8777
17024TIP3    H172487   3.319   6.651  12.086  1.8548  1.9062 -2.0003
17024TIP3    H272488   3.443   6.645  12.173 -0.0005  1.3294  0.6877
17025TIP3   OH272489   0.504   3.849   2.757 -0.6196 -0.0167  0.3141
17025TIP3    H172490   0.510   3.771   2.703 -0.6638 -0.4222  0.8935
17025TIP3    H272491   0.467   3.916   2.699  1.4617  0.1932 -0.8242
17026TIP3   OH272492   2.880   0.098   3.499 -0.5184  0.2651  0.3905
17026TIP3    H172493   2.879   0.164   3.429 -1.2150 -0.1870 -0.0430
17026TIP3    H272494   2.950   0.038   3.473  0.1877  0.8839  0.8411
17027TIP3   OH272495   4.066   0.720  13.448 -0.2337  0.1990 -0.1447
17027TIP3    H172496   4.160   0.735  13.460 -0.1085  0.0441 -0.8656
17027TIP3    H272497   4.026   0.742  13.532  0.8269 -3.0222  1.2447
17028TIP3   OH272498   3.408   4.493   1.956 -0.4021 -0.1117 -0.4294
17028TIP3    H172499   3.346   4.448   1.899 -1.2155  0.4666 -0.0126
17028TIP3    H272500   3.493   4.482   1.913 -0.5476 -2.2107 -0.2371
17029TIP3   OH272501   2.300   5.774   2.257  0.4926  0.4110  0.1795
17029TIP3    H172502   2.323   5.867   2.267 -0.1248  0.5064  0.6782
17029TIP3    H272503   2.227   5.760   2.317  1.5600 -0.7613  1.2350
17030TIP3   OH272504   4.870   3.699   3.118 -0.2354 -0.0959  0.4841
17030TIP3    H172505   4.934   3.629   3.129  0.2210  0.3920  0.9586
17030TIP3    H272506   4.863   3.738   3.205  1.1822  1.8927 -0.2537
17031TIP3   OH272507   3.457   0.752   1.347  0.0990 -0.6186 -0.2555
17031TIP3    H172508   3.472   0.692   1.274 -0.4244  0.3314 -1.1663
17031TIP3    H272509   3.370   0.729   1.380  0.4835 -1.2801  0.2881
17032TIP3   OH272510   5.010   4.978  17.088  0.0265 -0.7579 -0.2384
17032TIP3    H172511   5.034   5.058  17.040  0.8401 -0.1123  1.2201
17032TIP3    H272512   5.058   4.908  17.043  1.6548 -0.0084  0.2737
17033TIP3   OH272513   0.536   1.812  12.112 -0.3070  0.0572 -0.3048
17033TIP3    H172514   0.560   1.736  12.059 -0.4937  0.1413 -0.5113
17033TIP3    H272515   0.442   1.804  12.124  0.0915 -1.3124  2.1256
17034TIP3   OH272516   5.873   5.897  13.132  0.1274  0.5933 -0.2979
17034TIP3    H172517   5.795   5.917  13.184 -0.4270 -0.5913 -0.6554
17034TIP3    H272518   5.838   5.867  13.048  1.0006  1.4308 -0.9658
17035TIP3   OH272519   5.937   1.871  14.121  0.2612  0.4226 -0.9339
17035TIP3    H172520   5.961   1.911  14.037  0.8283  1.6414 -0.2166
17035TIP3    H272521   5.970   1.933  14.187 -0.7132 -0.2169  0.1720
17036TIP3   OH272522   3.551   0.106  11.511  0.8032 -0.6962 -0.4669
17036TIP3    H172523   3.627   0.069  11.466  0.0274 -2.7687 -0.1628
17036TIP3    H272524   3.548   0.197  11.484  1.6385 -1.3497 -2.8538
17037TIP3   OH272525   5.908   0.543  10.977  0.0537 -0.1269  0.5923
17037TIP3    H172526   5.927   0.580  10.891  1.7196  0.5900  1.2657
17037TIP3    H272527   5.849   0.606  11.018 -1.7660 -1.0780 -0.4793
17038TIP3   OH272528   3.741   2.905   3.926 -0.4198  0.5344  0.6049
17038TIP3    H172529   3.680   2.978   3.926 -0.8697  0.1620  0.2675
17038TIP3    H272530   3.723   2.858   4.008 -0.8632  0.1925  0.3092
17039TIP3   OH272531   2.834   0.687  13.530 -0.0685 -0.5866 -0.1281
17039TIP3    H172532   2.893   0.663  13.601 -0.8963  0.5118  0.9386
17039TIP3    H272533   2.868   0.771  13.498  0.3804 -1.1356 -1.1356
17040TIP3   OH272534   2.342   2.683   6.157  0.2562  0.4048  0.1618
17040TIP3    H172535   2.351   2.777   6.144  0.2036  0.3010 -0.6501
17040TIP3    H272536   2.332   2.672   6.252 -0.0086  1.2328  0.2289
17041TIP3   OH272537   4.341   5.906  14.230 -0.9034 -0.3165 -0.2502
17041TIP3    H172538   4.436   5.908  14.242 -1.2719  0.9002  2.7942
17041TIP3    H272539   4.309   5.857  14.306 -2.7097 -1.1397 -1.5067
17042TIP3   OH272540   1.599   6.275   2.486 -0.1759  0.7067  0.4109
17042TIP3    H172541   1.673   6.215   2.474 -0.2819  0.6650 -0.0346
17042TIP3    H272542   1.540   6.229   2.546 -0.2427  0.3775  0.0945
17043TIP3   OH272543   5.951   6.668  13.458  0.1168  0.3577  0.6913
17043TIP3    H172544   5.976   6.658  13.550 -0.5279 -1.9130  0.6572
17043TIP3    H272545   5.914   6.583  13.434  2.4535  0.1044 -2.3508
17044TIP3   OH272546   4.560   0.464   1.170 -0.3545  0.4023  0.0526
17044TIP3    H172547   4.607   0.489   1.250  0.2549  1.2444 -0.5656
17044TIP3    H272548   4.629   0.440   1.108 -0.8305 -0.3333 -0.1978
17045TIP3   OH272549   0.326   1.666  12.612 -0.1038  0.3866 -0.3217
17045TIP3    H172550   0.333   1.688  12.519 -0.7069 -0.7112 -0.6326
17045TIP3    H272551   0.415   1.676  12.646  0.4030 -0.5644 -1.3340
17046TIP3   OH272552   1.931   6.459  15.987  0.4308 -0.2455  0.5441
17046TIP3    H172553   1.981   6.432  15.911 -0.0030  0.5202 -0.0203
17046TIP3    H272554   1.958   6.550  16.003  1.2002 -0.6926  1.8599
17047TIP3   OH272555   0.807   2.872   4.141  0.3125  0.5927  0.1605
17047TIP3    H172556   0.803   2.964   4.164  0.3241  0.1725  1.8863
17047TIP3    H272557   0.901   2.851   4.143  0.2837  0.4601  0.1047
17048TIP3   OH272558   6.653   3.338   5.247  0.6763  0.3719  0.4407
17048TIP3    H172559   6.564   3.308   5.263  0.0701  1.6695 -0.3913
17048TIP3    H272560   6.648   3.433   5.258  1.7420  0.5524 -0.5930
17049TIP3   OH272561   1.620   4.235   4.479  0.2095 -0.3315 -0.8658
17049TIP3    H172562   1.693   4.280   4.523  0.7899 -1.2003 -0.9233
17049TIP3    H272563   1.580   4.302   4.424  1.0281  0.1352 -0.8992
17050TIP3   OH272564   5.924   5.327   3.256  0.0222 -0.1673  0.3329
17050TIP3    H172565   5.883   5.242   3.242  2.1529 -1.3761  1.2616
17050TIP3    H272566   5.978   5.315   3.334  0.4095  2.0281  0.4340
17051TIP3   OH272567   1.902   4.914  13.991 -0.4530 -0.2725  0.7556
17051TIP3    H172568   1.908   4.934  14.084 -1.0419  0.5656  0.6145
17051TIP3    H272569   1.965   4.973  13.950  0.7493 -1.5199  0.7339
17052TIP3   OH272570   2.725   4.132  16.383  0.2752 -0.3009 -0.2221
17052TIP3    H172571   2.758   4.222  16.376  0.0024 -0.0366  1.6357
17052TIP3    H272572   2.630   4.141  16.378  0.2741 -0.5574 -0.6904
17053TIP3   OH272573   4.269   2.823   0.344 -0.1540 -0.1962 -0.4625
17053TIP3    H172574   4.218   2.771   0.282  1.8878 -0.0800 -2.3251
17053TIP3    H272575   4.211   2.894   0.371 -2.1032 -1.9859  0.1424
17054TIP3   OH272576   1.004   6.422  11.516  0.1772  0.0776 -0.1297
17054TIP3    H172577   1.066   6.350  11.531  0.7297  0.8809  1.5645
17054TIP3    H272578   1.021   6.483  11.588 -1.4817  1.0758 -0.5761
17055TIP3   OH272579   1.917   2.621  12.927  0.4136 -0.0274  0.2346
17055TIP3    H172580   1.953   2.672  13.000 -0.7642 -0.0255  0.8267
17055TIP3    H272581   1.840   2.578  12.963 -0.1182 -0.1291 -0.9866
17056TIP3   OH272582   3.960   5.994  13.619 -0.3824 -0.4055  0.7382
17056TIP3    H172583   3.987   5.908  13.651  0.3858  0.7722  3.3715
17056TIP3    H272584   3.946   6.046  13.698  0.8772  2.4151 -0.8302
17057TIP3   OH272585   1.328   6.672   5.215 -0.3071  0.1853  0.0573
17057TIP3    H172586   1.372   6.592   5.188  0.1306  0.5612 -0.3474
17057TIP3    H272587   1.237   6.646   5.230 -0.0741 -0.4703  0.3403
17058TIP3   OH272588   5.409   0.063   3.391 -0.1368 -0.3194 -0.0477
17058TIP3    H172589   5.339   0.042   3.329 -0.3821 -0.3575  0.2409
17058TIP3    H272590   5.471   0.115   3.340 -0.3850 -0.2673 -0.2999
17059TIP3   OH272591   5.124   3.770   4.391 -0.0196  0.1842 -0.1714
17059TIP3    H172592   5.197   3.720   4.357 -1.1871 -0.1400 -2.2666
17059TIP3    H272593   5.050   3.709   4.391 -0.6701  0.9467  0.4297
17060TIP3   OH272594   3.939   5.704   1.418  0.0021  0.1331 -0.1485
17060TIP3    H172595   3.846   5.706   1.398 -0.2285 -0.6684  0.8355
17060TIP3    H272596   3.981   5.745   1.341 -1.1038  0.0106 -0.8224
17061TIP3   OH272597   1.402   2.865   4.602 -0.0401  0.0885 -0.6561
17061TIP3    H172598   1.371   2.952   4.627 -1.6523 -0.4853 -0.6103
17061TIP3    H272599   1.403   2.815   4.684 -0.4739 -0.3333 -0.9022
17062TIP3   OH272600   5.966   0.873   4.044  0.1763 -0.1860 -0.1136
17062TIP3    H172601   5.972   0.908   3.955  0.5869 -1.9351 -0.7920
17062TIP3    H272602   5.906   0.799   4.036  0.2495 -0.3754  1.0611
17063TIP3   OH272603   2.874   3.630   5.308 -0.0228  0.0490 -0.2669
17063TIP3    H172604   2.947   3.570   5.296  1.3479  1.2603  1.7082
17063TIP3    H272605   2.802   3.574   5.336  0.3902 -1.0390 -1.3496
17064TIP3   OH272606   4.240   3.543  13.895 -0.1278 -0.0016 -0.4117
17064TIP3    H172607   4.240   3.638  13.907 -0.1718 -0.0908  0.2932
17064TIP3    H272608   4.332   3.522  13.879 -0.1292  0.1697 -0.6504
17065TIP3   OH272609   4.264   0.597  17.017  0.1445  0.4118 -0.0716
17065TIP3    H172610   4.316   0.518  17.007  0.1795  0.1134  2.0986
17065TIP3    H272611   4.180   0.567  17.049  0.1413  1.2322  0.7310
17066TIP3   OH272612   4.798   4.437  13.978  0.2584 -0.0198  0.5498
17066TIP3    H172613   4.715   4.485  13.977  0.2038 -0.1301 -1.1483
17066TIP3    H272614   4.823   4.436  14.070 -1.1000  0.9246  0.9557
17067TIP3   OH272615   2.742   4.846  15.083  0.1950 -0.3567 -0.3297
17067TIP3    H172616   2.663   4.837  15.030  0.7700  0.2734 -1.3054
17067TIP3    H272617   2.730   4.784  15.155 -2.0665  1.0906  0.6294
17068TIP3   OH272618   2.402   0.410   3.713  0.2482 -0.2343 -0.2094
17068TIP3    H172619   2.445   0.424   3.629  1.8177 -0.7480  0.4918
17068TIP3    H272620   2.468   0.367   3.767 -1.0742 -0.8306  0.9683
17069TIP3   OH272621   2.557   1.572  13.351  0.4235  0.1443 -0.2482
17069TIP3    H172622   2.525   1.567  13.441 -0.1943 -0.6387 -0.4986
17069TIP3    H272623   2.596   1.486  13.335  1.6318  0.7067 -0.3298
17070TIP3   OH272624   3.313   5.921   3.871  0.4175  0.1092  0.3640
17070TIP3    H172625   3.241   5.884   3.923 -0.0785  0.8357  0.1893
17070TIP3    H272626   3.270   5.961   3.796  0.9894  0.7385  0.3764
17071TIP3   OH272627   6.418   2.182   5.615 -0.3396  0.6248  0.4873
17071TIP3    H172628   6.500   2.229   5.630 -0.4944  0.4196  2.1439
17071TIP3    H272629   6.445   2.093   5.593 -0.0977  0.1837  2.4107
17072TIP3   OH272630   4.833   5.760  14.471  0.2287  0.5068  0.0818
17072TIP3    H172631   4.884   5.681  14.490 -0.7359 -0.5190 -1.4391
17072TIP3    H272632   4.846   5.775  14.377 -1.8187  0.5181 -0.2228
17073TIP3   OH272633   6.063   2.759  13.991  0.1802 -0.3794 -0.5657
17073TIP3    H172634   6.058   2.741  13.897 -0.2275 -1.2643 -0.3801
17073TIP3    H272635   6.105   2.845  13.997  2.7341 -1.4829 -1.4879
17074TIP3   OH272636   1.277   1.474  12.063  0.5308 -0.7611 -0.0319
17074TIP3    H172637   1.194   1.450  12.022  0.2489 -0.0287  0.1035
17074TIP3    H272638   1.279   1.423  12.144 -0.2616 -0.0179  0.4635
17075TIP3   OH272639   6.770   2.516   5.947 -0.0812  0.4898  0.0783
17075TIP3    H172640   6.795   2.490   5.858 -0.5336 -0.6446  0.2716
17075TIP3    H272641   6.834   2.583   5.971  0.7953 -0.0751 -0.6344
17076TIP3   OH272642   2.560   6.079  13.294  0.0042 -0.0019  0.2562
17076TIP3    H172643   2.472   6.047  13.275  0.0851 -1.2453  1.7999
17076TIP3    H272644   2.562   6.168  13.261 -0.8469 -0.9618 -2.5311
17077TIP3   OH272645   1.140   4.599  16.194 -0.2503  0.2471  0.5303
17077TIP3    H172646   1.176   4.684  16.219  2.2934 -0.8064  0.5789
17077TIP3    H272647   1.080   4.618  16.122  1.4351  1.9080 -0.4733
17078TIP3   OH272648   1.848   4.386  11.696  0.1138  0.1192  0.3789
17078TIP3    H172649   1.785   4.400  11.766 -1.0344  1.7141 -0.9385
17078TIP3    H272650   1.871   4.293  11.703 -2.5881 -0.5751  0.7288
17079TIP3   OH272651   5.325   2.679  11.132  0.1693 -0.0174 -0.2909
17079TIP3    H172652   5.380   2.606  11.105  1.4917  0.9203 -0.1849
17079TIP3    H272653   5.250   2.676  11.073  1.3226 -0.0979 -1.7714
17080TIP3   OH272654   4.612   3.540   2.505  0.2398 -0.0095 -0.5044
17080TIP3    H172655   4.671   3.602   2.463  1.6936 -0.6589  0.5350
17080TIP3    H272656   4.534   3.539   2.449  0.9440  1.3446 -1.5340
17081TIP3   OH272657   6.385   4.700  17.148  0.2479  0.3114  0.2237
17081TIP3    H172658   6.436   4.704  17.067 -0.5759  1.2691 -0.2542
17081TIP3    H272659   6.308   4.647  17.124 -0.7762  1.8972 -0.0656
17082TIP3   OH272660   4.710   4.239   5.813  0.2228 -0.4059 -0.5683
17082TIP3    H172661   4.725   4.276   5.900 -0.1367  0.0425 -0.6971
17082TIP3    H272662   4.615   4.241   5.803  0.3299  0.5661 -1.4204
17083TIP3   OH272663   4.862   4.957  12.596  0.0083 -0.1307 -0.6603
17083TIP3    H172664   4.775   4.990  12.572  0.2197  1.3918  0.6639
17083TIP3    H272665   4.919   5.034  12.594  0.5911 -0.4480  2.0173
17084TIP3   OH272666   2.249   1.127   0.889 -0.1513 -0.4664 -0.4074
17084TIP3    H172667   2.309   1.157   0.821 -1.3838  0.4139 -1.1372
17084TIP3    H272668   2.303   1.075   0.948  2.2706  3.7942  1.3406
17085TIP3   OH272669   2.181   2.354   6.592 -0.0788  0.1265 -0.4417
17085TIP3    H172670   2.124   2.292   6.547  1.0757 -0.6871 -0.8211
17085TIP3    H272671   2.230   2.300   6.654  0.3634  0.7909 -0.2101
17086TIP3   OH272672   3.846   5.184  13.577 -0.0718 -0.6705  0.1763
17086TIP3    H172673   3.832   5.268  13.533  2.0318 -0.8993 -1.0107
17086TIP3    H272674   3.890   5.130  13.512 -0.0353 -2.1851  1.4397
17087TIP3   OH272675   5.399   5.053   0.496  0.3683 -0.1538 -0.2787
17087TIP3    H172676   5.442   5.084   0.575 -0.6577 -0.0229  0.2369
17087TIP3    H272677   5.317   5.014   0.527  0.1890 -0.5403 -1.2239
17088TIP3   OH272678   3.848   0.715  16.122  0.1116  0.4759  0.2020
17088TIP3    H172679   3.802   0.677  16.047 -2.1990  0.5637  1.5489
17088TIP3    H272680   3.893   0.641  16.163 -0.5442  0.0272  0.1037
17089TIP3   OH272681   4.413   5.367   5.044 -0.0559 -0.2345 -0.4648
17089TIP3    H172682   4.446   5.433   5.105 -0.3269  0.3511 -0.9455
17089TIP3    H272683   4.359   5.416   4.982  1.5520 -0.5767 -2.1740
17090TIP3   OH272684   1.731   0.525   6.266 -0.5797 -0.4033 -0.6894
17090TIP3    H172685   1.643   0.560   6.254 -0.2595  0.3553 -0.8427
17090TIP3    H272686   1.717   0.433   6.289 -1.5055  0.2608  1.5308
17091TIP3   OH272687   1.160   5.778  13.976  0.2815  0.3001 -0.2476
17091TIP3    H172688   1.236   5.796  14.031  0.4600 -3.4850  0.8703
17091TIP3    H272689   1.093   5.838  14.007  2.3295  2.6734 -0.2505
17092TIP3   OH272690   0.772   1.813   1.586  0.1852 -0.6220  0.1916
17092TIP3    H172691   0.766   1.784   1.495 -1.4327  1.1876 -0.3103
17092TIP3    H272692   0.853   1.865   1.590 -0.4840  0.4983 -0.5849
17093TIP3   OH272693   0.113   2.694   1.318 -0.2251 -0.1674  0.1906
17093TIP3    H172694   0.184   2.630   1.326  0.1310  0.3380  1.1455
17093TIP3    H272695   0.100   2.727   1.407 -1.1919  0.2479 -0.0936
17094TIP3   OH272696   1.927   2.969   4.824 -0.1998  0.4250 -0.0491
17094TIP3    H172697   1.843   2.978   4.779  0.2538  0.2051 -0.9444
17094TIP3    H272698   1.925   2.882   4.862  1.8208 -1.8192 -4.6886
17095TIP3   OH272699   1.003   6.739  12.225 -0.3668 -0.6935  0.4042
17095TIP3    H172700   0.970   6.677  12.291 -0.8482 -0.5849  0.2641
17095TIP3    H272701   1.092   6.759  12.254  0.1787 -2.2537 -0.0990
17096TIP3   OH272702   3.981   5.158   1.932 -0.0488  0.8001 -0.4338
17096TIP3    H172703   4.009   5.189   2.018 -3.6760 -2.8615  2.2084
17096TIP3    H272704   4.040   5.085   1.913 -0.1142  0.7652 -0.5013
17097TIP3   OH272705   6.029   5.392   0.519  0.1917  0.4441  0.7368
17097TIP3    H172706   6.083   5.436   0.454 -1.2377  0.1866 -0.6488
17097TIP3    H272707   6.019   5.303   0.487 -0.5758  0.3252  1.2668
17098TIP3   OH272708   4.528   0.790  17.030 -0.4781  0.1683 -0.5003
17098TIP3    H172709   4.506   0.861  17.091  0.4900 -0.9427  1.1783
17098TIP3    H272710   4.481   0.812  16.950 -0.1241  2.7656 -0.0473
17099TIP3   OH272711   2.695   4.926   1.515 -0.2952  0.6760 -0.0913
17099TIP3    H172712   2.781   4.928   1.556 -0.6202 -0.3890  0.6614
17099TIP3    H272713   2.710   4.958   1.426  0.6116  1.8866  0.4922
17100TIP3   OH272714   2.227   5.810  13.577 -0.5441 -0.1251 -0.2694
17100TIP3    H172715   2.211   5.904  13.586 -1.2843 -0.3070  0.3915
17100TIP3    H272716   2.143   5.769  13.599  0.2254 -1.0155  1.1286
17101TIP3   OH272717   0.128   0.903  14.233  0.7437  0.1427  0.0985
17101TIP3    H172718   0.035   0.910  14.210  0.5280 -0.8596  0.6420
17101TIP3    H272719   0.156   0.994  14.243 -0.3688  0.4416  0.6693
17102TIP3   OH272720   5.715   4.930   1.202  0.2063  0.1589  0.4588
17102TIP3    H172721   5.655   4.990   1.158  1.5828  0.8480 -0.5262
17102TIP3    H272722   5.798   4.978   1.205  1.0770 -1.3310  0.4928
17103TIP3   OH272723   1.729   0.140   0.138  0.0290  0.2271  1.0894
17103TIP3    H172724   1.717   0.204   0.208 -1.3402  0.9114  0.2705
17103TIP3    H272725   1.654   0.081   0.146 -0.4665  0.6524 -0.1099
17104TIP3   OH272726   6.151   0.330  14.185  0.0453  0.3465  0.1978
17104TIP3    H172727   6.238   0.302  14.159 -0.0553  0.4074 -0.2135
17104TIP3    H272728   6.150   0.322  14.280  0.4935  0.3355  0.2007
17105TIP3   OH272729   4.655   1.236   4.667  0.0812  0.4954 -0.1017
17105TIP3    H172730   4.569   1.228   4.708  0.2274  0.7792  0.2624
17105TIP3    H272731   4.646   1.191   4.583  0.3724 -1.9504  1.1114
17106TIP3   OH272732   3.052   2.889   6.583 -0.1818  0.3180 -0.6004
17106TIP3    H172733   3.021   2.929   6.502  0.2514  0.9509 -0.4560
17106TIP3    H272734   3.024   2.797   6.577 -2.0230  0.8516 -0.4923
17107TIP3   OH272735   4.337   1.793   3.473  0.1026 -0.8858  0.3194
17107TIP3    H172736   4.347   1.793   3.378  0.4343 -2.0375  0.3424
17107TIP3    H272737   4.319   1.701   3.495  0.5843 -0.7200  1.4286
17108TIP3   OH272738   2.994   2.591  11.288  0.5185  0.3417  0.1401
17108TIP3    H172739   3.038   2.511  11.316  0.6589  1.1219  2.2140
17108TIP3    H272740   3.066   2.651  11.268  0.4168 -0.0772 -1.5929
17109TIP3   OH272741   5.990   3.728   4.834  0.1929 -0.6579  0.1136
17109TIP3    H172742   5.996   3.633   4.832 -1.9333 -0.8615  1.0705
17109TIP3    H272743   5.959   3.752   4.747 -0.9775 -1.0381  0.4033
17110TIP3   OH272744   4.349   4.063  12.422 -0.0295  0.4026 -0.4218
17110TIP3    H172745   4.276   4.003  12.406  0.2327  0.2543 -1.0533
17110TIP3    H272746   4.427   4.013  12.397  0.2332  0.8188 -0.4284
17111TIP3   OH272747   1.481   0.419  15.174 -0.0829  0.3369 -0.0425
17111TIP3    H172748   1.576   0.410  15.188  0.2778  1.0377 -1.9291
17111TIP3    H272749   1.452   0.471  15.249  1.3875  1.8643 -0.4745
17112TIP3   OH272750   3.593   2.820   4.163 -0.1969  0.3544  0.2164
17112TIP3    H172751   3.620   2.729   4.152  1.1512  1.0179 -2.3291
17112TIP3    H272752   3.499   2.820   4.142 -0.2355 -0.4769  0.3931
17113TIP3   OH272753   6.135   6.134   3.637  0.5325  0.1826  0.0579
17113TIP3    H172754   6.100   6.175   3.558 -1.2903  0.2420  0.8626
17113TIP3    H272755   6.061   6.134   3.698  1.2794 -1.8683  0.9918
17114TIP3   OH272756   2.459   6.389  16.780 -0.3841 -0.1566 -0.4925
17114TIP3    H172757   2.522   6.460  16.772  0.4829 -1.0463 -1.7715
17114TIP3    H272758   2.512   6.311  16.796 -1.1646 -0.8663 -1.2876
17115TIP3   OH272759   5.058   2.824  17.165 -0.1640 -0.6219 -0.5670
17115TIP3    H172760   5.097   2.842  17.079  0.5354  0.1437 -0.0941
17115TIP3    H272761   5.057   2.728  17.170  0.0065 -0.6705 -1.3290
17116TIP3   OH272762   1.028   6.524   6.087  0.0945  0.0851  0.1914
17116TIP3    H172763   1.016   6.440   6.131 -1.1587  0.4880  0.6351
17116TIP3    H272764   0.999   6.589   6.151 -1.2465  0.7168 -1.0383
17117TIP3   OH272765   5.832   5.083   5.393 -0.3197  0.3203 -0.1680
17117TIP3    H172766   5.768   5.122   5.333  0.2621  0.4822 -0.6912
17117TIP3    H272767   5.806   5.114   5.479 -0.1385  1.5000 -0.5282
17118TIP3   OH272768   6.349   1.067   5.113  0.6874 -0.2454 -0.1627
17118TIP3    H172769   6.273   1.059   5.170  0.0893 -0.2477 -0.9537
17118TIP3    H272770   6.325   1.137   5.052  0.9611 -0.8510 -0.9684
17119TIP3   OH272771   3.968   6.390  14.850  0.0133  0.5236  0.3687
17119TIP3    H172772   3.891   6.375  14.905 -0.5123  1.6757 -0.0551
17119TIP3    H272773   4.038   6.341  14.894 -0.4403  1.2951  1.9655
17120TIP3   OH272774   2.085   1.669  10.771  0.1879 -0.4136  0.2861
17120TIP3    H172775   2.103   1.754  10.810  0.2652 -0.9230  1.3810
17120TIP3    H272776   2.166   1.619  10.783  1.1242  0.2497 -2.8420
17121TIP3   OH272777   3.858   4.258  14.590 -0.8602  0.0432 -0.4804
17121TIP3    H172778   3.763   4.248  14.577 -0.9015  0.5946 -0.6432
17121TIP3    H272779   3.872   4.353  14.584 -0.2856 -0.0459 -0.5361
17122TIP3   OH272780   3.164   3.744  15.962 -0.0595  0.1191  0.2290
17122TIP3    H172781   3.075   3.758  15.996 -0.0498 -0.1254  0.3586
17122TIP3    H272782   3.221   3.787  16.026 -0.1897  2.0222 -0.8855
17123TIP3   OH272783   6.093   0.318  12.406  0.0908  0.6178 -0.9638
17123TIP3    H172784   6.049   0.266  12.339  0.8124  0.6148 -1.4471
17123TIP3    H272785   6.171   0.352  12.362  1.0454 -0.1018  0.1316
17124TIP3   OH272786   3.804   2.723  11.846 -0.1314 -0.1128 -0.5386
17124TIP3    H172787   3.890   2.689  11.873  0.0764  1.7405  1.2113
17124TIP3    H272788   3.808   2.725  11.751  1.5329 -0.6614 -0.4988
17125TIP3   OH272789   2.396   5.068   3.776 -1.1680 -0.2684  0.7337
17125TIP3    H172790   2.447   5.063   3.695 -2.4811 -0.3484 -0.0984
17125TIP3    H272791   2.405   4.980   3.815 -1.1321 -0.4554  0.3052
17126TIP3   OH272792   2.616   6.025  15.941 -0.2249 -0.4201 -0.7993
17126TIP3    H172793   2.666   6.105  15.928 -0.6530 -0.1250 -0.6397
17126TIP3    H272794   2.536   6.053  15.985  1.0046 -1.3637  2.1126
17127TIP3   OH272795   1.891   3.954  11.399 -0.0137  0.2223  0.0741
17127TIP3    H172796   1.877   3.938  11.305 -0.6809  0.1054  0.1931
17127TIP3    H272797   1.939   4.037  11.402  1.4812 -0.5962 -0.4375
17128TIP3   OH272798   0.487   1.176   3.303 -0.4249 -0.6021 -0.0949
17128TIP3    H172799   0.574   1.201   3.272 -1.1682  2.7765  0.3715
17128TIP3    H272800   0.501   1.141   3.391  0.3720  0.8162  0.3480
17129TIP3   OH272801   1.691   1.734  11.923  0.7966 -0.4172 -0.4539
17129TIP3    H172802   1.639   1.660  11.894  0.7254  0.1684 -1.9006
17129TIP3    H272803   1.704   1.720  12.017 -0.8223 -1.2638 -0.3302
17130TIP3   OH272804   0.734   2.132   0.046  0.2033  0.0733 -0.4468
17130TIP3    H172805   0.762   2.041   0.056 -1.8118 -0.6390 -1.0089
17130TIP3    H272806   0.765   2.175   0.126  2.7760 -0.6535 -1.0023
17131TIP3   OH272807   3.280   3.477   3.111  0.0194  0.1386 -0.6217
17131TIP3    H172808   3.188   3.487   3.086 -0.0592  1.4193  0.1231
17131TIP3    H272809   3.278   3.467   3.207  0.5368 -1.4868 -0.7712
17132TIP3   OH272810   1.063   4.237   5.334  0.3113 -0.1360  0.2260
17132TIP3    H172811   1.132   4.297   5.306  0.0477  0.4690  0.8510
17132TIP3    H272812   1.065   4.242   5.430  1.3857 -2.3628  0.3631
17133TIP3   OH272813   4.569   3.551   3.979  0.2966  0.5522  0.0521
17133TIP3    H172814   4.520   3.500   3.914  0.3696 -0.3037  0.6551
17133TIP3    H272815   4.540   3.641   3.967 -0.0331  0.3216 -0.8553
17134TIP3   OH272816   2.239   5.845   6.318 -0.2774  0.2856  0.1035
17134TIP3    H172817   2.289   5.873   6.394 -0.8374 -0.4164  0.7300
17134TIP3    H272818   2.232   5.924   6.264 -0.0451  0.8359  0.8676
17135TIP3   OH272819   3.132   5.095  16.396  0.2005  0.0693  0.4617
17135TIP3    H172820   3.048   5.050  16.409 -0.0113  0.2202 -0.3615
17135TIP3    H272821   3.198   5.028  16.413 -0.0928 -0.1599  0.6987
17136TIP3   OH272822   2.304   1.745  14.486 -0.0921 -0.4143 -0.0558
17136TIP3    H172823   2.212   1.765  14.465 -0.3831 -1.6308  0.0649
17136TIP3    H272824   2.299   1.675  14.551  0.8301  2.3647  3.1693
17137TIP3   OH272825   5.588   3.771   1.332 -0.6698  0.1206  0.4935
17137TIP3    H172826   5.570   3.857   1.295  1.9082  0.1473 -0.7744
17137TIP3    H272827   5.682   3.771   1.350 -0.7681 -2.1448  1.1954
17138TIP3   OH272828   2.397   2.028   5.151  0.5254 -0.1752 -0.1120
17138TIP3    H172829   2.473   2.078   5.122  0.1659  1.3916  1.6088
17138TIP3    H272830   2.413   2.010   5.243 -0.8222 -0.5463  0.0594
17139TIP3   OH272831   1.255   4.854   4.711 -0.7375 -0.1186  0.3778
17139TIP3    H172832   1.226   4.916   4.643 -0.6938  1.0073  1.3711
17139TIP3    H272833   1.322   4.901   4.760  2.2261 -2.3888 -1.3102
17140TIP3   OH272834   4.364   6.553  14.962  0.0828 -0.4718  0.3010
17140TIP3    H172835   4.383   6.460  14.974 -2.1138 -0.8046  1.3570
17140TIP3    H272836   4.292   6.571  15.021  0.0966  1.7931 -0.3169
17141TIP3   OH272837   5.988   4.109   1.246  0.0567 -0.0193 -0.1088
17141TIP3    H172838   5.941   4.028   1.228 -0.5627  0.7102 -1.8300
17141TIP3    H272839   5.925   4.164   1.292  0.4801 -0.4960  1.0697
17142TIP3   OH272840   6.259   2.521   4.893  0.4187  0.3719  0.6753
17142TIP3    H172841   6.286   2.585   4.827  1.0248  1.1910  1.6952
17142TIP3    H272842   6.213   2.454   4.844  0.6227  1.1078 -0.5478
17143TIP3   OH272843   5.261   0.856   3.868  0.6921  0.1483 -0.5556
17143TIP3    H172844   5.182   0.898   3.834  1.1155  1.5217  0.1199
17143TIP3    H272845   5.240   0.837   3.959  1.0745  0.3481 -0.4259
17144TIP3   OH272846   5.049   1.204  16.670 -0.1951  0.5162  0.2834
17144TIP3    H172847   5.089   1.284  16.636 -0.0571  0.0140 -0.7669
17144TIP3    H272848   4.994   1.233  16.743  0.6878  1.4300  0.5886
17145TIP3   OH272849   2.793   1.841  13.756  0.0679 -0.4894 -0.1573
17145TIP3    H172850   2.870   1.865  13.808 -1.2902  0.3350  1.5349
17145TIP3    H272851   2.805   1.885  13.672  0.4376  1.3324  0.8424
17146TIP3   OH272852   2.818   1.850  14.974 -0.7606  0.8439  0.1379
17146TIP3    H172853   2.822   1.936  15.016 -0.9094  0.4513  0.9683
17146TIP3    H272854   2.787   1.791  15.043 -0.6384  0.1203 -0.4199
17147TIP3   OH272855   4.772   3.470   3.383  0.2637  0.5294  0.2107
17147TIP3    H172856   4.722   3.436   3.458 -1.3955  0.3031 -0.9648
17147TIP3    H272857   4.758   3.406   3.314 -0.2639  1.9491 -1.0471
17148TIP3   OH272858   5.422   1.527  12.069  0.3318 -0.1720 -0.1055
17148TIP3    H172859   5.339   1.548  12.026 -0.8101 -0.4559  1.9170
17148TIP3    H272860   5.405   1.446  12.117  2.1527 -0.9242 -0.6795
17149TIP3   OH272861   2.085   3.692  12.709 -0.1240 -0.0804  0.0934
17149TIP3    H172862   2.052   3.715  12.796 -1.9626 -0.2873 -0.5362
17149TIP3    H272863   2.034   3.614  12.684  1.9374 -1.3549 -0.2580
17150TIP3   OH272864   2.846   5.186   5.801  0.0140  0.0938  0.5479
17150TIP3    H172865   2.803   5.233   5.730  3.2485  2.0299 -0.2215
17150TIP3    H272866   2.842   5.245   5.876 -0.0832 -0.3967  0.9390
17151TIP3   OH272867   4.709   4.953  11.622 -0.4611  0.5328  0.6078
17151TIP3    H172868   4.784   4.937  11.680 -0.2143  0.2763  0.2253
17151TIP3    H272869   4.705   4.875  11.567  0.7272  1.7511 -1.2530
17152TIP3   OH272870   3.022   3.242   0.095  0.2309  0.3730  0.0268
17152TIP3    H172871   3.054   3.331   0.087  0.4449  0.2512 -0.4705
17152TIP3    H272872   3.015   3.227   0.189 -0.4530  1.1441  0.1052
17153TIP3   OH272873   6.737   4.398  16.646 -0.2933 -0.0032  0.5599
17153TIP3    H172874   6.712   4.486  16.616  1.5218  0.4460  0.3258
17153TIP3    H272875   6.831   4.404  16.663 -0.5634 -1.2959  2.6902
17154TIP3   OH272876   1.312   1.350  16.653  0.0474 -0.3480 -0.3141
17154TIP3    H172877   1.253   1.318  16.585 -0.9233  0.1365  0.2864
17154TIP3    H272878   1.322   1.276  16.713  0.0776 -0.4381 -0.4301
17155TIP3   OH272879   4.784   0.364  16.912  0.8259  0.2910 -0.0102
17155TIP3    H172880   4.722   0.334  16.977  0.5944  0.7883 -0.0028
17155TIP3    H272881   4.799   0.457  16.933  1.8242  0.0912  0.1965
17156TIP3   OH272882   0.259   3.729   0.674 -0.4932  0.4373  0.5226
17156TIP3    H172883   0.280   3.702   0.585 -0.9676  2.4793 -0.2546
17156TIP3    H272884   0.325   3.688   0.729 -0.8744 -1.7701 -0.6331
17157TIP3   OH272885   6.780   6.602  11.251 -0.4897  0.2457  0.3389
17157TIP3    H172886   6.832   6.534  11.296  0.4278  0.8639  0.2288
17157TIP3    H272887   6.807   6.595  11.160 -2.8669 -1.4794 -0.2853
17158TIP3   OH272888   5.493   1.027  11.216  0.1913 -0.4468 -0.1911
17158TIP3    H172889   5.550   1.081  11.161  1.3980 -0.6403  0.8396
17158TIP3    H272890   5.510   0.937  11.187 -0.3423 -0.4395 -0.5497
17159TIP3   OH272891   5.518   3.866   1.945 -0.1894  0.7384  0.4024
17159TIP3    H172892   5.447   3.926   1.924 -1.6815 -0.7063  1.2075
17159TIP3    H272893   5.488   3.820   2.024  0.7005 -1.3687 -0.4471
17160TIP3   OH272894   2.922   4.303   6.397  0.0493  0.9125  0.0101
17160TIP3    H172895   2.880   4.279   6.479 -0.8840  0.5608 -0.5614
17160TIP3    H272896   2.879   4.384   6.370  0.2658  0.9627 -0.1907
17161TIP3   OH272897   2.332   1.371  14.634  0.0779  0.4753  0.4525
17161TIP3    H172898   2.295   1.459  14.637  1.4984  1.0615  0.9568
17161TIP3    H272899   2.396   1.374  14.564 -0.1462 -0.2816  0.2039
17162TIP3   OH272900   4.107   3.399   4.651 -0.4806  0.2857 -0.3534
17162TIP3    H172901   4.165   3.448   4.592 -0.7425 -0.1675 -0.9833
17162TIP3    H272902   4.149   3.314   4.661 -1.1480 -0.1179 -0.9775
17163TIP3   OH272903   6.026   0.161  16.390  0.5590 -0.3706 -0.4968
17163TIP3    H172904   5.991   0.094  16.449  0.7232  0.2743  0.3477
17163TIP3    H272905   6.027   0.119  16.304  0.5724 -1.4182  0.0053
17164TIP3   OH272906   1.459   0.190  13.026  0.3862 -0.1282  0.3000
17164TIP3    H172907   1.465   0.147  12.940 -0.3360  1.3759 -0.5241
17164TIP3    H272908   1.519   0.264  13.019 -1.9818  1.8007 -0.0056
17165TIP3   OH272909   5.483   3.778   5.334 -0.1765  0.6469 -0.4118
17165TIP3    H172910   5.416   3.726   5.379  1.3896 -0.2975  0.8564
17165TIP3    H272911   5.448   3.789   5.245  0.4425 -4.5405 -1.4416
17166TIP3   OH272912   0.905   5.939  13.738 -0.0412 -0.6205  0.2125
17166TIP3    H172913   0.830   5.961  13.794 -1.5172 -2.7424 -0.8592
17166TIP3    H272914   0.887   5.983  13.655  0.6625  0.0639  0.4089
17167TIP3   OH272915   3.183   2.104   6.330 -0.1962  0.9008  0.0625
17167TIP3    H172916   3.104   2.078   6.283 -0.2382 -1.0929  1.1622
17167TIP3    H272917   3.156   2.178   6.384 -1.2119  0.5309  0.0675
17168TIP3   OH272918   0.328   6.739  12.802 -0.4302  0.1100  0.5223
17168TIP3    H172919   0.290   6.820  12.834 -0.3117  0.4558 -0.2029
17168TIP3    H272920   0.414   6.734  12.844 -0.6844  0.0559  1.0346
17169TIP3   OH272921   2.324   0.384   5.158 -0.0058  0.1984  0.1365
17169TIP3    H172922   2.315   0.479   5.166 -1.9995  0.0287  0.0889
17169TIP3    H272923   2.236   0.353   5.138  0.7825 -1.5909 -0.6833
17170TIP3   OH272924   3.242   0.043  15.014 -0.1090 -0.1079 -0.4130
17170TIP3    H172925   3.179   0.079  15.076  0.3134  0.0322 -0.0644
17170TIP3    H272926   3.209   0.070  14.928 -0.4615  0.0590 -0.2271
17171TIP3   OH272927   3.747   2.071   0.535  0.7606  0.1500  0.1377
17171TIP3    H172928   3.680   2.099   0.473  1.1799 -0.7559 -0.7339
17171TIP3    H272929   3.797   2.004   0.488  1.3196 -0.2704  1.3202
17172TIP3   OH272930   6.166   5.103   2.912 -0.5832  0.1541  0.5475
17172TIP3    H172931   6.133   5.138   2.829 -0.6206 -1.1404  0.0064
17172TIP3    H272932   6.194   5.180   2.961 -0.4422  0.9206 -0.7185
17173TIP3   OH272933   6.712   1.258   3.954 -0.2984 -0.0128 -0.3268
17173TIP3    H172934   6.673   1.200   3.889 -5.0299  1.6424  0.8224
17173TIP3    H272935   6.717   1.205   4.034 -1.6811  0.1850 -0.0961
17174TIP3   OH272936   3.210   0.501  13.219 -0.1809 -0.2508  0.1647
17174TIP3    H172937   3.200   0.440  13.146 -0.4879  1.4405 -1.2599
17174TIP3    H272938   3.120   0.524  13.243 -0.0718  1.3638 -0.8509
17175TIP3   OH272939   0.386   2.962   1.136 -0.1024 -0.4055  0.2333
17175TIP3    H172940   0.419   2.873   1.121  1.0797 -0.2339  1.6586
17175TIP3    H272941   0.341   2.957   1.220 -0.7786  0.1564 -0.0927
17176TIP3   OH272942   5.049   4.129  16.352  0.1378  0.1218  0.2827
17176TIP3    H172943   5.084   4.064  16.413  0.4840 -1.0535 -1.1425
17176TIP3    H272944   5.013   4.078  16.280 -2.4314  1.4049  0.6008
17177TIP3   OH272945   5.940   5.352  13.813  0.7009  0.2632 -0.0625
17177TIP3    H172946   5.905   5.408  13.881  0.2771  0.4197 -0.4031
17177TIP3    H272947   5.946   5.408  13.736  2.2605  0.3953  0.1343
17178TIP3   OH272948   6.398   5.627   1.086  0.5455  0.0759  0.1104
17178TIP3    H172949   6.307   5.602   1.104  0.9166 -0.7594  0.8723
17178TIP3    H272950   6.450   5.574   1.147  1.5352  0.6571 -0.2162
17179TIP3   OH272951   0.314   2.004   0.216  0.2333 -0.6217 -0.2882
17179TIP3    H172952   0.294   1.930   0.274 -0.0491 -0.8486 -0.6698
17179TIP3    H272953   0.406   2.025   0.235 -1.0043  2.0305  3.2317
17180TIP3   OH272954   5.620   0.273  17.232 -0.2248  0.0801  0.4275
17180TIP3    H172955   5.588   0.312  17.313 -1.1342 -0.4786  0.3434
17180TIP3    H272956   5.541   0.262  17.178  0.4756  1.1968 -0.8450
17181TIP3   OH272957   0.702   1.472   6.180  0.0563  0.1375  0.1436
17181TIP3    H172958   0.703   1.403   6.113 -0.9403 -0.9524  1.2037
17181TIP3    H272959   0.771   1.446   6.241 -0.2409  0.1238  0.4789
17182TIP3   OH272960   4.562   3.479  10.960 -0.8845 -0.0975 -0.0825
17182TIP3    H172961   4.535   3.390  10.985 -1.8299 -0.0758 -0.9834
17182TIP3    H272962   4.492   3.509  10.902  0.2569  0.6081 -1.1044
17183TIP3   OH272963   0.556   0.641  16.437 -0.2838  0.1679  0.1151
17183TIP3    H172964   0.618   0.707  16.405  0.8824 -1.0258 -0.1404
17183TIP3    H272965   0.505   0.686  16.503  1.7498  0.8272  1.2786
17184TIP3   OH272966   6.565   4.649  16.604 -0.1188  0.1496 -0.6357
17184TIP3    H172967   6.624   4.688  16.540 -0.5297 -0.2533 -1.2708
17184TIP3    H272968   6.482   4.637  16.556 -0.6588  0.5400  0.1896
17185TIP3   OH272969   0.616   6.363   6.163  0.8204 -0.5989 -0.5385
17185TIP3    H172970   0.526   6.349   6.134  0.9718  1.2931 -2.0790
17185TIP3    H272971   0.628   6.303   6.236 -1.4441 -1.4199 -0.8047
17186TIP3   OH272972   3.449   5.653  15.838 -0.1908 -0.1024  0.3680
17186TIP3    H172973   3.367   5.654  15.886 -0.7274  1.5646 -0.5476
17186TIP3    H272974   3.454   5.565  15.800 -2.5395  0.3886 -1.2081
17187TIP3   OH272975   3.892   2.550   4.858  0.4877 -0.3413  0.3157
17187TIP3    H172976   3.799   2.531   4.853  0.4936 -0.2555 -0.2663
17187TIP3    H272977   3.897   2.645   4.874  0.4759 -0.0287 -1.4271
17188TIP3   OH272978   2.797   6.728   6.095  0.4506 -0.0049 -0.6440
17188TIP3    H172979   2.793   6.739   6.190  0.1659  0.6149 -0.7226
17188TIP3    H272980   2.761   6.641   6.079 -2.3207  1.0328 -0.4065
17189TIP3   OH272981   0.091   0.998  13.066 -1.1557 -0.0283 -0.4419
17189TIP3    H172982   0.165   1.049  13.099 -0.3596 -1.8667  0.6495
17189TIP3    H272983   0.021   1.013  13.131 -0.9448 -0.2744 -0.1581
17190TIP3   OH272984   0.319   5.736   4.041  0.8523  0.3481 -0.3729
17190TIP3    H172985   0.253   5.700   3.983  0.1277 -1.5579  1.5551
17190TIP3    H272986   0.311   5.685   4.122  1.8462  2.8602  1.3993
17191TIP3   OH272987   5.322   6.773   0.608  0.3905  0.2049  0.3478
17191TIP3    H172988   5.400   6.802   0.560  1.4582 -1.8051  0.8595
17191TIP3    H272989   5.307   6.842   0.673  0.3914  1.7177 -1.1950
17192TIP3   OH272990   5.212   2.137   4.476  0.3083  0.3861  0.1699
17192TIP3    H172991   5.163   2.150   4.558 -0.5771 -0.2252 -0.2490
17192TIP3    H272992   5.304   2.147   4.501  0.0064  0.8834  1.1052
17193TIP3   OH272993   3.549   5.624  15.044  0.2044  0.3375 -0.0767
17193TIP3    H172994   3.620   5.661  14.992  1.0411  0.6129  1.2484
17193TIP3    H272995   3.590   5.600  15.127 -1.1693  0.1260  0.5479
17194TIP3   OH272996   1.270   2.338  10.747 -0.0013  0.0334 -0.0743
17194TIP3    H172997   1.303   2.254  10.779  0.1932  0.6189  1.2857
17194TIP3    H272998   1.348   2.384  10.716  0.0660  0.2228  0.3727
17195TIP3   OH272999   0.229   0.658  14.253  0.1004  0.1667 -0.1370
17195TIP3    H173000   0.185   0.743  14.250  0.4059  0.3193 -0.2798
17195TIP3    H273001   0.318   0.676  14.224 -0.0299 -0.3235 -0.8670
17196TIP3   OH273002   6.723   1.395  15.694  0.0488  0.2741  0.2529
17196TIP3    H173003   6.640   1.440  15.710 -0.5490 -1.0441  0.8987
17196TIP3    H273004   6.764   1.389  15.780  0.7044  0.6988 -0.0267
17197TIP3   OH273005   0.821   0.830  11.089 -0.2178  0.1422  0.2116
17197TIP3    H173006   0.881   0.896  11.056  0.8742 -0.2676  1.3088
17197TIP3    H273007   0.770   0.803  11.013  0.8296  0.6799 -0.6981
17198TIP3   OH273008   6.513   2.626   0.684  0.8001 -0.0840 -0.2463
17198TIP3    H173009   6.607   2.625   0.670  0.5273 -1.3026 -2.1244
17198TIP3    H273010   6.501   2.591   0.772  2.0311 -1.0392 -0.4514
17199TIP3   OH273011   4.178   0.391  16.001 -0.1814 -0.2509  0.1685
17199TIP3    H173012   4.197   0.300  16.025 -0.3987  0.1535  1.9646
17199TIP3    H273013   4.225   0.404  15.919  0.4462 -1.7677  0.2593
17200TIP3   OH273014   5.336   5.986   5.675  0.5430 -0.5593  0.3300
17200TIP3    H173015   5.320   6.076   5.706 -0.3396 -0.4889 -0.3252
17200TIP3    H273016   5.415   5.959   5.722  1.5527  1.0236 -0.4169
17201TIP3   OH273017   6.110   2.829  16.059  0.2065 -0.0758 -0.3177
17201TIP3    H173018   6.148   2.748  16.095 -0.8286  0.0197  1.0405
17201TIP3    H273019   6.019   2.827  16.087  0.0239  1.2873 -0.7842
17202TIP3   OH273020   1.627   0.278  15.886  0.0099 -0.4733 -0.2660
17202TIP3    H173021   1.539   0.251  15.862  0.2586 -0.7229 -0.9081
17202TIP3    H273022   1.634   0.256  15.979 -0.8148  0.1166 -0.0571
17203TIP3   OH273023   5.825   4.812  13.338  0.2868 -0.0015  0.1875
17203TIP3    H173024   5.823   4.730  13.289 -2.0812  0.7752 -1.0423
17203TIP3    H273025   5.827   4.785  13.430  0.8853 -1.4281 -0.2347
17204TIP3   OH273026   2.259   3.211  15.027  0.5027 -0.4002 -0.1421
17204TIP3    H173027   2.315   3.264  15.083 -0.9346  0.6461  0.3241
17204TIP3    H273028   2.199   3.167  15.087 -0.2134 -0.2712 -0.7526
17205TIP3   OH273029   5.677   6.704  13.505 -0.1214  0.2035 -0.2923
17205TIP3    H173030   5.642   6.732  13.420 -1.7052  1.8051  0.8442
17205TIP3    H273031   5.746   6.767  13.524 -0.0281  0.0792 -0.2238
17206TIP3   OH273032   6.356   5.738   0.060 -0.1460 -0.4686  0.1283
17206TIP3    H173033   6.385   5.663   0.008 -0.5628  0.3574 -1.3106
17206TIP3    H273034   6.402   5.813   0.023 -0.7000  0.1846  0.7432
17207TIP3   OH273035   1.955   0.556   2.080 -0.1941 -0.4906 -0.0164
17207TIP3    H173036   2.047   0.530   2.079 -0.7127 -2.4593 -1.1493
17207TIP3    H273037   1.956   0.651   2.091  1.9210 -0.6316  1.1758
17208TIP3   OH273038   6.297   0.421  11.563 -0.0991  0.7619  0.1785
17208TIP3    H173039   6.271   0.383  11.479 -0.7339  1.8448 -0.1234
17208TIP3    H273040   6.257   0.363  11.628 -1.9901  1.5112 -0.2808
17209TIP3   OH273041   4.205   0.811  17.238  0.2640  0.0130  0.2171
17209TIP3    H173042   4.277   0.847  17.290  0.1114  0.2168  0.2882
17209TIP3    H273043   4.238   0.726  17.208  0.4559  0.0152  0.4192
17210TIP3   OH273044   1.511   1.536   5.151 -0.6335 -0.1153  0.0905
17210TIP3    H173045   1.542   1.502   5.235 -0.4799  1.8352  0.8509
17210TIP3    H273046   1.585   1.584   5.115 -1.3974  0.9434 -0.1025
17211TIP3   OH273047   1.847   0.059   3.641  0.5907 -0.2039 -0.1245
17211TIP3    H173048   1.921   0.062   3.580 -1.6295  1.2710 -2.8726
17211TIP3    H273049   1.790  -0.009   3.607  0.1471 -0.5945  1.3608
17212TIP3   OH273050   3.852   4.018   5.730 -0.3772 -0.2398 -0.4977
17212TIP3    H173051   3.787   3.997   5.663 -0.5283 -0.6746 -0.2147
17212TIP3    H273052   3.801   4.029   5.810  0.0310 -1.9616  0.0260
17213TIP3   OH273053   5.009   4.709  15.175 -0.3326 -0.5131  0.2443
17213TIP3    H173054   4.954   4.742  15.104 -0.5020 -1.2830  0.0167
17213TIP3    H273055   5.093   4.689  15.134 -0.4906 -1.1348  0.2251
17214TIP3   OH273056   6.291   0.871   3.895 -0.3168 -0.3233 -0.1049
17214TIP3    H173057   6.348   0.948   3.897 -0.7899  0.0620 -1.0480
17214TIP3    H273058   6.273   0.852   3.988  0.8488 -0.0895  0.1729
17215TIP3   OH273059   6.501   0.622  15.606  0.5464 -0.2997  0.0535
17215TIP3    H173060   6.547   0.701  15.634 -1.5369  1.2925 -0.9087
17215TIP3    H273061   6.434   0.653  15.545 -0.8948 -2.7259  0.3372
17216TIP3   OH273062   6.526   2.640  16.096  0.2852  0.1411  0.1321
17216TIP3    H173063   6.561   2.727  16.075  0.9136  0.0823  0.9297
17216TIP3    H273064   6.435   2.657  16.121  0.6844  0.7035  1.2610
17217TIP3   OH273065   4.464   3.075   1.550 -0.3413  0.3068  0.5164
17217TIP3    H173066   4.523   3.029   1.609  0.3129 -0.9916 -1.1159
17217TIP3    H273067   4.519   3.140   1.507 -0.3927 -0.0131 -0.0362
17218TIP3   OH273068   5.363   6.768  15.562  0.3706  0.0703 -0.0653
17218TIP3    H173069   5.379   6.714  15.484  1.5156  0.1557  0.1085
17218TIP3    H273070   5.428   6.738  15.625 -0.2734  0.3091  0.7107
17219TIP3   OH273071   0.591   1.604   1.060 -0.4622  0.0714 -0.2063
17219TIP3    H173072   0.578   1.535   1.126  0.7792  0.0299  0.0101
17219TIP3    H273073   0.543   1.679   1.094  0.1798  0.0511  0.7661
17220TIP3   OH273074   6.625   2.986   2.161  0.6161  0.3963  0.3087
17220TIP3    H173075   6.591   3.044   2.093  2.6123  1.4657  0.1583
17220TIP3    H273076   6.623   3.039   2.240  3.0082  0.9348  0.0573
17221TIP3   OH273077   4.140   4.307   2.049  0.0708  0.0662  0.1313
17221TIP3    H173078   4.135   4.291   1.955  0.0773  2.5321 -0.3207
17221TIP3    H273079   4.060   4.267   2.085 -0.2251 -0.3556 -0.9787
17222TIP3   OH273080   1.670   0.519  16.947  0.5809  0.0891  0.4549
17222TIP3    H173081   1.697   0.520  16.855 -0.0414  0.6920  0.2814
17222TIP3    H273082   1.602   0.453  16.952  1.4794 -0.8373  0.7344
17223TIP3   OH273083   0.883   1.480   3.885 -0.4010 -0.0311  0.3668
17223TIP3    H173084   0.817   1.547   3.868 -0.4641  0.0500  0.9105
17223TIP3    H273085   0.888   1.475   3.980 -0.8331 -1.2391  0.3277
17224TIP3   OH273086   5.290   5.541  14.105  0.8357 -0.0882 -0.1922
17224TIP3    H173087   5.374   5.515  14.067  0.4639  0.1942 -1.2224
17224TIP3    H273088   5.237   5.566  14.030 -0.1712 -0.2583  0.4579
17225TIP3   OH273089   3.480   4.541  11.702  0.0072  0.4055 -0.1068
17225TIP3    H173090   3.576   4.537  11.703 -0.0785 -1.8908  0.5353
17225TIP3    H273091   3.457   4.565  11.792 -0.0823 -0.7092  0.1674
17226TIP3   OH273092   6.662   2.574  16.697  0.0075 -0.1935 -0.3013
17226TIP3    H173093   6.729   2.541  16.637  2.2466  0.5967  1.6964
17226TIP3    H273094   6.599   2.619  16.641  1.4202 -0.4995 -2.1622
17227TIP3   OH273095   4.402   0.665  13.233 -0.1872  0.2417  0.0554
17227TIP3    H173096   4.353   0.590  13.200 -1.6355  0.8514  0.8179
17227TIP3    H273097   4.367   0.681  13.320 -0.6480  2.4705 -0.4993
17228TIP3   OH273098   2.635   6.177  14.608 -0.5160  0.8638  0.1042
17228TIP3    H173099   2.619   6.229  14.529  1.1460 -0.2345 -0.9852
17228TIP3    H273100   2.549   6.142  14.631 -0.8442  0.2665 -1.8933
17229TIP3   OH273101   2.983   1.309   4.526 -0.2410  0.2603  0.1380
17229TIP3    H173102   2.959   1.344   4.440 -1.9873  2.1498  1.3258
17229TIP3    H273103   3.076   1.288   4.519 -0.1627  1.2192 -1.9538
17230TIP3   OH273104   6.024   2.552  12.957  0.2643 -0.1676  0.2326
17230TIP3    H173105   6.009   2.512  13.042 -1.7533 -1.7377 -0.8092
17230TIP3    H273106   5.942   2.537  12.909  2.0017 -0.9495 -2.6038
17231TIP3   OH273107   1.447   6.284   5.380 -0.1354 -0.3395  0.4687
17231TIP3    H173108   1.440   6.237   5.297  3.5103 -1.5010  0.7246
17231TIP3    H273109   1.429   6.375   5.357 -2.5080 -1.1000 -0.9248
17232TIP3   OH273110   6.105   0.928   3.191  0.9563  0.3268 -0.3404
17232TIP3    H173111   6.138   1.017   3.206  0.1136  0.4529  0.8329
17232TIP3    H273112   6.026   0.923   3.244  0.8967 -1.0696 -0.5503
17233TIP3   OH273113   4.515   3.287  12.392 -0.2135  0.7175 -0.2977
17233TIP3    H173114   4.529   3.207  12.343 -2.1413 -0.2414  0.6537
17233TIP3    H273115   4.596   3.300  12.441 -0.4524 -1.5131  0.7206
17234TIP3   OH273116   3.773   0.937  11.479  0.8734 -0.1989 -0.2641
17234TIP3    H173117   3.753   0.856  11.526  1.4616 -0.6263 -0.7422
17234TIP3    H273118   3.742   1.007  11.537 -0.3102 -0.7774 -0.1731
17235TIP3   OH273119   1.856   4.142  16.171 -0.0560 -0.1695 -0.1973
17235TIP3    H173120   1.851   4.047  16.162 -2.6885 -0.0647 -0.3208
17235TIP3    H273121   1.915   4.156  16.244  0.9183 -1.8715 -0.6195
17236TIP3   OH273122   5.246   1.801   3.231  0.2814 -0.6576 -0.2933
17236TIP3    H173123   5.222   1.889   3.258  0.5459 -0.2456 -1.4206
17236TIP3    H273124   5.166   1.765   3.192  0.3872 -0.6485 -0.5207
17237TIP3   OH273125   3.370   2.898   3.748 -0.0270 -0.2458  0.6300
17237TIP3    H173126   3.447   2.917   3.695 -0.1725  0.0428  0.5262
17237TIP3    H273127   3.403   2.840   3.817  0.2600 -0.2178  0.5175
17238TIP3   OH273128   3.079   4.186  12.243  0.2673 -0.5895 -0.0972
17238TIP3    H173129   3.104   4.112  12.187  0.7615  0.1341 -0.8379
17238TIP3    H273130   3.109   4.264  12.196 -0.6334  0.1180  0.4741
17239TIP3   OH273131   6.483   1.931  15.623 -0.2313 -0.2682 -0.0407
17239TIP3    H173132   6.547   1.888  15.566  0.0677  2.2338 -1.6279
17239TIP3    H273133   6.535   1.969  15.693 -0.3715 -1.3063  0.6449
17240TIP3   OH273134   1.089   6.494   3.144  0.0537  0.2862  0.2594
17240TIP3    H173135   1.033   6.533   3.078 -0.0802 -1.3245 -0.6038
17240TIP3    H273136   1.073   6.546   3.223 -1.6131  0.6927 -0.3264
17241TIP3   OH273137   2.822   5.345   5.543  0.5968 -0.1609  0.1515
17241TIP3    H173138   2.910   5.353   5.581  0.9738  0.0606 -0.7306
17241TIP3    H273139   2.820   5.256   5.508  1.0450  0.3190 -1.1652
17242TIP3   OH273140   5.595   3.577  11.720 -0.1330  0.2668  0.4156
17242TIP3    H173141   5.605   3.505  11.782  1.0191 -1.5577 -1.8240
17242TIP3    H273142   5.618   3.656  11.771 -2.1185 -0.8095  3.0897
17243TIP3   OH273143   3.471   0.826  12.133  0.7895  0.1991 -0.1775
17243TIP3    H173144   3.427   0.785  12.208  0.2498  0.0821 -0.5561
17243TIP3    H273145   3.401   0.841  12.069  0.9323  1.9700  0.0559
17244TIP3   OH273146   3.553   3.561   3.816  0.1984 -0.1482  0.0366
17244TIP3    H173147   3.493   3.487   3.810  0.3265 -0.3163  0.7480
17244TIP3    H273148   3.632   3.531   3.772 -0.0667 -0.1081 -0.4644
17245TIP3   OH273149   4.394   2.787   2.694  0.0754  0.1667 -0.2109
17245TIP3    H173150   4.323   2.732   2.662  0.0953  0.8893 -1.5164
17245TIP3    H273151   4.350   2.857   2.742 -0.0715  0.2721 -0.4945
17246TIP3   OH273152   5.085   0.356  11.821  0.2784  0.2241 -0.1778
17246TIP3    H173153   5.109   0.444  11.790  2.3776 -1.0354 -2.3125
17246TIP3    H273154   5.166   0.320  11.856 -0.7319 -0.6375  1.3362
17247TIP3   OH273155   0.231   5.311   0.715  0.1334 -0.8162  0.0892
17247TIP3    H173156   0.141   5.302   0.684 -0.3798  1.0228  0.9375
17247TIP3    H273157   0.270   5.225   0.701 -1.2245 -1.1438 -1.9344
17248TIP3   OH273158   5.120   6.678   2.365 -0.1343  0.1699  0.1582
17248TIP3    H173159   5.087   6.754   2.414  1.8752  1.0563  0.2090
17248TIP3    H273160   5.066   6.675   2.286 -0.7938  1.1526  0.5540
17249TIP3   OH273161   4.205   1.477   3.733  0.0676 -0.3085  0.1211
17249TIP3    H173162   4.120   1.509   3.763  0.0882  0.5723 -0.7095
17249TIP3    H273163   4.188   1.388   3.702 -0.6013 -0.0698 -0.2049
17250TIP3   OH273164   4.250   5.594   1.773  0.0657 -0.0617  0.2484
17250TIP3    H173165   4.165   5.619   1.810 -0.8024 -0.8713 -1.1506
17250TIP3    H273166   4.253   5.499   1.783  0.6887 -0.0659  0.0183
17251TIP3   OH273167   0.345   4.039  15.979 -0.1760 -0.4489  0.4629
17251TIP3    H173168   0.408   4.049  15.908  0.1710  1.4596  1.0035
17251TIP3    H273169   0.294   4.120  15.977 -1.7669 -1.4397  0.8347
17252TIP3   OH273170   0.730   0.172   1.516  0.3051 -0.0362  0.3282
17252TIP3    H173171   0.800   0.123   1.557 -0.5487 -0.3549  1.4307
17252TIP3    H273172   0.686   0.217   1.589  0.0206  1.0034 -0.4618
17253TIP3   OH273173   3.273   3.704  14.884  0.0620  0.1029 -0.4029
17253TIP3    H173174   3.291   3.798  14.880 -1.6748  0.4849  0.1014
17253TIP3    H273175   3.263   3.678  14.792  1.8551  0.1285 -0.6142
17254TIP3   OH273176   1.285   4.653  14.721  0.3050 -0.0308  0.1200
17254TIP3    H173177   1.238   4.602  14.656  0.8137 -0.0286 -0.2552
17254TIP3    H273178   1.286   4.598  14.799 -1.4172  0.4948  0.5278
17255TIP3   OH273179   3.531   0.364  14.063  0.4389  0.2195 -0.4603
17255TIP3    H173180   3.464   0.321  14.009  1.2969 -1.5123 -0.1893
17255TIP3    H273181   3.482   0.420  14.123 -0.8263 -1.5629  0.2184
17256TIP3   OH273182   3.152   5.662  14.893  0.0829  0.5173  0.1072
17256TIP3    H173183   3.147   5.714  14.973 -0.1790  1.2677 -0.3892
17256TIP3    H273184   3.125   5.574  14.919  1.0451  0.5057  1.0690
17257TIP3   OH273185   5.169   2.103   1.589 -0.0349  0.3641 -0.4419
17257TIP3    H173186   5.104   2.103   1.519 -0.3246  1.5434 -0.1761
17257TIP3    H273187   5.197   2.011   1.595 -0.0730  0.2303 -2.0289
17258TIP3   OH273188   0.584   3.744   3.028 -0.1057  0.6898  0.5030
17258TIP3    H173189   0.536   3.780   2.954  1.0839 -0.3392 -0.7948
17258TIP3    H273190   0.515   3.713   3.088 -1.0633 -0.1545 -1.0093
17259TIP3   OH273191   0.882   1.824  13.215 -0.4474 -0.9488 -0.6543
17259TIP3    H173192   0.854   1.749  13.163 -2.2751 -1.6144  1.2091
17259TIP3    H273193   0.807   1.845  13.270 -0.0806  2.4528 -1.3162
17260TIP3   OH273194   6.759   4.162   2.137 -0.3040  0.2035 -1.1947
17260TIP3    H173195   6.686   4.120   2.184 -0.2086  0.2848 -0.9728
17260TIP3    H273196   6.803   4.091   2.092  0.3471 -0.0579 -0.1709
17261TIP3   OH273197   1.590   5.998   4.848  0.0985 -0.4284  0.1781
17261TIP3    H173198   1.601   6.091   4.829 -0.6078  0.0274  1.9574
17261TIP3    H273199   1.591   5.956   4.762  1.6987  1.0808 -0.5530
17262TIP3   OH273200   2.648   5.413   3.961 -0.7117  0.2468  0.3784
17262TIP3    H173201   2.732   5.381   3.994 -0.5080 -1.4198 -1.7256
17262TIP3    H273202   2.583   5.358   4.004 -0.7577  1.3292  1.7596
17263TIP3   OH273203   2.084   1.788  15.857 -0.0413  0.1192  0.2564
17263TIP3    H173204   2.095   1.739  15.938  1.1473  1.2999  0.8363
17263TIP3    H273205   2.169   1.829  15.842 -0.6247  0.9487 -0.9099
17264TIP3   OH273206   0.834   2.620  16.875 -0.4396 -0.1370  0.1457
17264TIP3    H173207   0.773   2.566  16.824  0.4119  0.1147 -1.1611
17264TIP3    H273208   0.780   2.690  16.910 -0.9259  0.0838 -1.0073
17265TIP3   OH273209   1.230   3.030   5.473 -0.3189  0.5116  0.2299
17265TIP3    H173210   1.176   2.952   5.465 -0.2445  0.5298 -0.4451
17265TIP3    H273211   1.166   3.102   5.478 -0.3729  0.4700  0.1410
17266TIP3   OH273212   3.024   1.864   2.999 -0.1017  0.2508  0.1272
17266TIP3    H173213   2.932   1.843   3.013 -0.0845  0.7772  1.0770
17266TIP3    H273214   3.026   1.960   2.991  0.4162  0.2830  0.5832
17267TIP3   OH273215   2.776   6.670  10.733  0.4959  0.1930  0.5591
17267TIP3    H173216   2.863   6.631  10.743  0.0515 -0.9385  0.0669
17267TIP3    H273217   2.784   6.757  10.772  1.9087  0.1750  0.3203
17268TIP3   OH273218   0.952   6.011  13.166 -0.2491  0.3612  0.0752
17268TIP3    H173219   0.979   5.930  13.122  0.3605  0.5848  0.0292
17268TIP3    H273220   1.007   6.079  13.126  1.6641  0.2951  2.5204
17269TIP3   OH273221   0.338   6.393   0.752  0.5088 -0.3172  0.5619
17269TIP3    H173222   0.274   6.380   0.821 -0.1675 -2.6358 -0.4455
17269TIP3    H273223   0.338   6.487   0.736 -3.1483 -0.3450  0.1072
17270TIP3   OH273224   0.241   6.641  15.088 -0.6253  0.4271  0.3123
17270TIP3    H173225   0.241   6.734  15.111  0.8123  0.1206  1.6812
17270TIP3    H273226   0.277   6.598  15.165 -1.3811 -1.2874 -0.2721
17271TIP3   OH273227   2.211   3.166   6.529 -0.2546  0.1582  0.2612
17271TIP3    H173228   2.230   3.109   6.454  4.2364  0.8264  0.7665
17271TIP3    H273229   2.242   3.252   6.502  2.3418  0.2138  3.1525
17272TIP3   OH273230   5.643   5.041   3.084  0.6252  0.0649  0.2325
17272TIP3    H173231   5.634   5.037   3.179  1.8175 -1.5909  0.3050
17272TIP3    H273232   5.737   5.052   3.069  0.4215  0.5841 -0.7615
17273TIP3   OH273233   1.175   0.606   4.060 -0.3175 -0.2271  0.3677
17273TIP3    H173234   1.108   0.669   4.033 -0.0762  0.0426  0.3898
17273TIP3    H273235   1.255   0.659   4.070 -0.3668 -0.3482  1.4743
17274TIP3   OH273236   0.958   6.336  15.018 -0.2236  0.0682  0.4136
17274TIP3    H173237   0.912   6.295  15.092  1.3894  0.3220  1.5754
17274TIP3    H273238   0.976   6.425  15.048  1.8829 -0.3129  0.3684
17275TIP3   OH273239   4.754   4.228  15.546 -0.2763 -0.5950 -0.4336
17275TIP3    H173240   4.845   4.233  15.517  0.2921  0.8111  1.4869
17275TIP3    H273241   4.746   4.142  15.587  1.2142  0.6485  2.5830
17276TIP3   OH273242   2.374   5.789   4.051 -0.0309 -0.0267  0.0101
17276TIP3    H173243   2.391   5.871   4.097  2.0688 -0.1866 -0.4373
17276TIP3    H273244   2.460   5.754   4.030 -0.8955 -2.0294 -0.4070
17277TIP3   OH273245   6.732   4.762  13.748 -0.5513  0.3440 -1.1831
17277TIP3    H173246   6.737   4.774  13.653  1.8632 -0.2625 -1.1602
17277TIP3    H273247   6.722   4.668  13.760  1.1159  0.2030 -0.7968
17278TIP3   OH273248   0.822   4.540   5.228  0.0213  0.3755  0.2117
17278TIP3    H173249   0.917   4.545   5.243  0.1272  3.2639 -1.0470
17278TIP3    H273250   0.785   4.525   5.315  1.5933 -0.5532  0.7568
17279TIP3   OH273251   0.755   1.699   4.082  0.3718  0.2998 -0.7094
17279TIP3    H173252   0.721   1.683   3.994 -0.9671  0.6322 -0.2688
17279TIP3    H273253   0.718   1.784   4.106  2.1748  1.0473 -0.5132
17280TIP3   OH273254   1.377   0.630   2.197 -0.5826  0.2855  0.6808
17280TIP3    H173255   1.294   0.629   2.148 -0.5460  2.1457  0.5299
17280TIP3    H273256   1.362   0.691   2.269  0.3249 -0.1792  1.2776
17281TIP3   OH273257   0.509   5.899   2.212  0.0454  0.4154  0.0357
17281TIP3    H173258   0.428   5.888   2.261 -0.0019  1.0414  0.1044
17281TIP3    H273259   0.562   5.958   2.267 -0.2816  1.6795 -0.9908
17282TIP3   OH273260   1.459   5.009   4.946  0.0116 -0.5492 -0.2848
17282TIP3    H173261   1.517   4.989   4.872 -0.2103 -2.0592 -0.0599
17282TIP3    H273262   1.516   5.005   5.022  0.2285  0.9558 -0.3513
17283TIP3   OH273263   0.471   1.724   3.345 -0.3075 -0.2435  0.0025
17283TIP3    H173264   0.405   1.657   3.326 -0.2335 -0.1886 -0.4509
17283TIP3    H273265   0.541   1.706   3.282 -1.0903  1.4231 -1.3751
17284TIP3   OH273266   3.005   0.560  13.707  0.1697 -0.5784  0.1951
17284TIP3    H173267   3.090   0.569  13.663  1.1714 -2.0872  1.7912
17284TIP3    H273268   3.019   0.597  13.794 -0.7059 -1.1817  0.5925
17285TIP3   OH273269   6.674   2.278   1.280  0.3467  0.0798  0.1126
17285TIP3    H173270   6.642   2.353   1.329  0.2195 -0.4522  0.8473
17285TIP3    H273271   6.703   2.216   1.347  0.9741 -0.2958 -0.4996
17286TIP3   OH273272   6.380   6.765  12.137 -0.0451  0.3554 -0.1612
17286TIP3    H173273   6.352   6.773  12.227  1.4099  0.1870  0.3280
17286TIP3    H273274   6.373   6.671  12.118 -0.5113  0.4138 -0.2789
17287TIP3   OH273275   4.751   5.675   4.104 -0.0285  0.0239 -0.8256
17287TIP3    H173276   4.811   5.745   4.131 -1.3392  0.8275  0.0632
17287TIP3    H273277   4.725   5.699   4.015  1.3652 -0.6305 -1.4428
17288TIP3   OH273278   1.862   3.006   1.844  0.2740 -0.2145 -0.1771
17288TIP3    H173279   1.790   3.033   1.902  0.3294 -1.2399  0.3706
17288TIP3    H273280   1.916   3.085   1.835  0.7420 -0.2838  1.8669
17289TIP3   OH273281   0.251   2.227   3.465  0.2674  0.6626 -0.0965
17289TIP3    H173282   0.159   2.201   3.456  0.9493 -1.4888 -1.1029
17289TIP3    H273283   0.286   2.226   3.376  1.0283  2.4908  0.1493
17290TIP3   OH273284   6.461   4.310  14.850  0.0848 -0.7792 -0.2479
17290TIP3    H173285   6.396   4.252  14.811  1.1115 -2.5463  0.5748
17290TIP3    H273286   6.544   4.282  14.811  0.6898 -0.3645  0.7223
17291TIP3   OH273287   5.047   6.181   1.078 -0.3563  0.1996 -0.0997
17291TIP3    H173288   5.104   6.150   1.008 -1.2541 -0.6076 -0.4824
17291TIP3    H273289   4.960   6.185   1.038 -0.3427  2.8735  0.0407
17292TIP3   OH273290   4.938   1.408  12.759 -0.1544  0.3883 -0.7235
17292TIP3    H173291   4.897   1.404  12.845  0.6394  1.1864 -0.2899
17292TIP3    H273292   5.016   1.353  12.767  0.5851  1.4413 -0.5345
17293TIP3   OH273293   0.194   5.963  14.411 -0.1231 -0.5674 -0.3534
17293TIP3    H173294   0.179   5.909  14.333  1.3331 -2.0699  0.3728
17293TIP3    H273295   0.245   5.907  14.470  1.3306  1.5515  0.4841
17294TIP3   OH273296   2.486   4.565   0.757  0.3790  0.3596 -0.1944
17294TIP3    H173297   2.552   4.596   0.694 -0.0785  0.2364 -0.7381
17294TIP3    H273298   2.464   4.477   0.726 -0.4663  0.6241 -0.3492
17295TIP3   OH273299   3.968   4.120  12.895 -0.0549  0.1974 -0.7609
17295TIP3    H173300   3.975   4.184  12.824 -0.3313  0.2648 -0.7279
17295TIP3    H273301   4.054   4.124  12.939 -0.0536  0.5131 -0.7859
17296TIP3   OH273302   2.897   1.888   3.435 -0.1609  0.5462 -0.6304
17296TIP3    H173303   2.868   1.799   3.455 -0.4653  0.6140 -0.7641
17296TIP3    H273304   2.992   1.884   3.443 -0.3098  0.7333  1.4450
17297TIP3   OH273305   2.868   4.247  15.894  0.0878 -0.1246  0.0910
17297TIP3    H173306   2.917   4.267  15.974  0.4542 -1.7753  0.3016
17297TIP3    H273307   2.779   4.274  15.913 -0.0321 -1.4206  1.4420
17298TIP3   OH273308   0.132   5.737  11.527 -0.7292 -0.2261  0.1701
17298TIP3    H173309   0.069   5.698  11.465 -0.7379  2.2583 -1.4443
17298TIP3    H273310   0.089   5.817  11.557  2.4267  2.6531 -2.5624
17299TIP3   OH273311   0.286   4.849   5.000 -0.6422  0.0551  0.4340
17299TIP3    H173312   0.285   4.926   5.058  1.6413  0.4549  0.0167
17299TIP3    H273313   0.263   4.776   5.057  1.1578  0.5045  1.8095
17300TIP3   OH273314   5.626   6.052  15.647 -0.6849  0.2101  0.2751
17300TIP3    H173315   5.668   6.100  15.575 -0.4339  1.1569  1.0501
17300TIP3    H273316   5.666   5.965  15.644  0.9407  0.9363  0.6687
17301TIP3   OH273317   4.137   2.559   4.096  0.3321  0.3476  0.3159
17301TIP3    H173318   4.091   2.625   4.044 -0.5950 -0.4321  0.1496
17301TIP3    H273319   4.112   2.476   4.056  1.8181 -0.0920  0.2691
17302TIP3   OH273320   1.879   4.966  14.273 -0.0957  0.2454 -0.6272
17302TIP3    H173321   1.886   4.913  14.352  1.2216 -0.8159 -1.4306
17302TIP3    H273322   1.924   5.047  14.294 -0.8448  0.4717  0.1213
17303TIP3   OH273323   0.324   0.519  10.933 -0.8878  0.0115  0.3536
17303TIP3    H173324   0.287   0.460  10.867  0.9286 -0.5766 -0.1648
17303TIP3    H273325   0.320   0.605  10.893 -1.3237 -0.0992  0.1513
17304TIP3   OH273326   2.527   1.086   4.233 -0.0965 -0.2892  0.1425
17304TIP3    H173327   2.453   1.128   4.276  0.0664 -2.1377  2.2967
17304TIP3    H273328   2.598   1.150   4.239 -1.2273  1.1238 -1.1204
17305TIP3   OH273329   5.722   0.120   3.372 -0.6343  0.6215 -0.0894
17305TIP3    H173330   5.740   0.050   3.435 -0.3567  0.6842 -0.0988
17305TIP3    H273331   5.787   0.107   3.303 -2.0670 -0.5219 -1.2359
17306TIP3   OH273332   0.508   0.101  12.192 -0.4963 -0.0799 -0.1614
17306TIP3    H173333   0.520   0.179  12.247 -0.6448 -0.3618  0.2758
17306TIP3    H273334   0.439   0.052  12.236  0.6347 -1.1915  0.3916
17307TIP3   OH273335   1.356   2.857   5.196 -0.0797  0.7295 -0.4282
17307TIP3    H173336   1.337   2.948   5.219 -3.5496 -0.3569  1.2871
17307TIP3    H273337   1.295   2.837   5.124  0.5571 -0.2960 -0.7053
17308TIP3   OH273338   3.347   6.567  14.785 -0.2361 -0.2462  0.5360
17308TIP3    H173339   3.377   6.503  14.720 -2.0492  1.9506 -2.5976
17308TIP3    H273340   3.261   6.535  14.811  0.8567 -1.6128  2.6533
17309TIP3   OH273341   3.600   4.749   0.617  0.2928  0.5666  0.1120
17309TIP3    H173342   3.548   4.718   0.542  0.7695  0.1805 -0.0574
17309TIP3    H273343   3.565   4.836   0.635 -2.1973 -0.6820  1.6486
17310TIP3   OH273344   0.885   0.949   1.748  0.5217  0.8060 -0.1259
17310TIP3    H173345   0.935   0.911   1.820  1.2312 -0.1134 -1.0760
17310TIP3    H273346   0.809   0.989   1.790  1.1755  0.7194  1.1745
17311TIP3   OH273347   3.267   4.450   6.197 -0.1409  0.3454 -0.0302
17311TIP3    H173348   3.183   4.443   6.152  0.0475 -0.4162 -0.2846
17311TIP3    H273349   3.252   4.406   6.281  0.1695 -0.3448 -0.3291
17312TIP3   OH273350   4.323   1.523   1.608  0.0209 -0.4928  0.4583
17312TIP3    H173351   4.273   1.597   1.574 -0.0931 -0.4576  0.7024
17312TIP3    H273352   4.403   1.522   1.557  0.5101  0.4514  1.1966
17313TIP3   OH273353   4.983   0.794  11.136 -0.0372  0.3582  0.5283
17313TIP3    H173354   5.007   0.755  11.219  0.1296 -2.6272 -0.8663
17313TIP3    H273355   4.888   0.783  11.130  0.1338 -0.7945 -0.3056
17314TIP3   OH273356   6.769   1.828   4.783 -0.1295 -0.7196 -0.1461
17314TIP3    H173357   6.689   1.796   4.741 -1.4370  3.2807 -0.9389
17314TIP3    H273358   6.738   1.870   4.864  1.4758 -1.3729  0.8212
17315TIP3   OH273359   4.592   1.023  16.012 -0.2259 -0.8562 -0.5888
17315TIP3    H173360   4.513   0.969  16.008 -0.2541 -0.7896 -0.9764
17315TIP3    H273361   4.561   1.107  16.047 -0.2961 -0.8859 -0.5821
17316TIP3   OH273362   5.553   5.402   1.076  0.1638  0.3979  0.0892
17316TIP3    H173363   5.604   5.390   1.156 -0.1490  0.9178  0.3667
17316TIP3    H273364   5.474   5.448   1.104  0.1538  0.7736 -0.5525
17317TIP3   OH273365   5.776   2.540  11.772  0.0312 -0.3164 -0.2092
17317TIP3    H173366   5.807   2.570  11.858 -0.2520  1.4721 -0.7066
17317TIP3    H273367   5.708   2.475  11.792  0.5492 -0.5200  0.9073
17318TIP3   OH273368   5.695   3.025   4.837 -0.1586  0.3566 -0.4131
17318TIP3    H173369   5.616   3.050   4.791  0.2492 -0.3618 -1.5212
17318TIP3    H273370   5.747   2.976   4.773  1.5837  1.5640  0.0181
17319TIP3   OH273371   3.060   6.559  14.759 -0.5042  0.2013  0.0624
17319TIP3    H173372   3.099   6.591  14.677 -0.6989  0.0964 -0.0698
17319TIP3    H273373   2.985   6.508  14.731  0.8535 -1.9163  0.1621
17320TIP3   OH273374   6.137   2.965   5.554 -0.5442 -0.2341  0.2891
17320TIP3    H173375   6.130   3.015   5.635  0.6950  1.3254 -0.5388
17320TIP3    H273376   6.227   2.979   5.524 -1.1595 -0.2847 -1.6735
17321TIP3   OH273377   4.499   3.271   3.210  0.1716  0.2386  0.2221
17321TIP3    H173378   4.483   3.178   3.231 -0.3274  0.5581  1.2958
17321TIP3    H273379   4.417   3.302   3.172  0.1814  0.3577  0.2975
17322TIP3   OH273380   2.050   6.475   0.681  0.1376 -0.6255 -0.0353
17322TIP3    H173381   2.024   6.507   0.767  1.3146  1.0883 -0.2899
17322TIP3    H273382   1.969   6.444   0.641 -0.3633 -1.7065  1.7926
17323TIP3   OH273383   1.741   2.566   2.167 -0.0405  0.4535 -0.6788
17323TIP3    H173384   1.762   2.627   2.097 -1.6420  1.9701  0.1349
17323TIP3    H273385   1.805   2.496   2.158  1.1112  1.6987 -2.3174
17324TIP3   OH273386   1.416   5.960  14.085  0.7307  0.2124  0.4627
17324TIP3    H173387   1.457   5.884  14.046  1.6934  0.0165  1.8145
17324TIP3    H273388   1.412   6.025  14.014  2.2085 -0.2126 -0.0280
17325TIP3   OH273389   0.854   1.129  12.161 -0.2431  0.1001  0.5944
17325TIP3    H173390   0.769   1.172  12.156 -2.0243 -2.8551  3.6644
17325TIP3    H273391   0.895   1.166  12.240 -0.3646 -1.3177  1.3341
17326TIP3   OH273392   0.690   6.381   1.369  0.1863 -0.1177  0.4384
17326TIP3    H173393   0.725   6.328   1.297  0.7499  0.6117  0.1670
17326TIP3    H273394   0.665   6.317   1.435 -2.9613 -1.0167 -1.4764
17327TIP3   OH273395   2.475   6.523  12.550 -0.8327  0.0415  0.4193
17327TIP3    H173396   2.481   6.617  12.536 -1.2257  0.4955  3.1267
17327TIP3    H273397   2.393   6.497  12.507 -0.9769  0.9934  0.1077
17328TIP3   OH273398   1.532   5.630  12.818  0.1032 -0.3393  0.3498
17328TIP3    H173399   1.453   5.612  12.869 -0.4812 -0.6467 -0.6453
17328TIP3    H273400   1.604   5.600  12.873 -0.5061 -0.4948  1.0656
17329TIP3   OH273401   4.781   0.148   3.139 -0.6502 -0.0177 -0.2672
17329TIP3    H173402   4.838   0.218   3.171  0.0628  1.0610 -3.6234
17329TIP3    H273403   4.749   0.180   3.054 -0.0675 -3.8325 -2.0558
17330TIP3   OH273404   0.069   3.372   2.688 -0.2159  0.1662 -0.9842
17330TIP3    H173405   0.127   3.397   2.616 -1.2717  0.9453 -1.5792
17330TIP3    H273406   0.113   3.297   2.729  1.5680  1.2021 -0.9453
17331TIP3   OH273407   4.153   1.635  14.073 -0.4961 -0.0314  0.1154
17331TIP3    H173408   4.128   1.558  14.125  0.0944 -0.5855 -0.4017
17331TIP3    H273409   4.078   1.693  14.078 -1.3229 -1.0511 -0.2468
17332TIP3   OH273410   4.061   3.537  15.629 -0.0383 -0.2234 -0.1906
17332TIP3    H173411   4.032   3.446  15.627 -2.4157  0.4804  0.2955
17332TIP3    H273412   4.118   3.542  15.706 -0.4860 -1.1370  0.2098
17333TIP3   OH273413   4.537   0.207   6.127 -0.1628  0.5098  0.2929
17333TIP3    H173414   4.581   0.289   6.149  1.1307  0.0617 -0.5744
17333TIP3    H273415   4.477   0.230   6.056  0.4006  0.6513 -0.1382
17334TIP3   OH273416   2.842   3.861   2.114 -0.0998 -0.0724  0.3548
17334TIP3    H173417   2.841   3.837   2.206  0.6257 -0.9679  0.1441
17334TIP3    H273418   2.853   3.956   2.113 -2.5081  0.2441  1.2076
17335TIP3   OH273419   3.518   3.040   6.255  0.0554  0.5236 -0.6075
17335TIP3    H173420   3.437   3.055   6.304  0.2445 -0.0241 -0.1233
17335TIP3    H273421   3.559   2.966   6.299  0.6721  0.6057 -1.0415
17336TIP3   OH273422   1.430   0.898  14.504  0.3849  0.5512 -0.4029
17336TIP3    H173423   1.387   0.850  14.433 -0.6231 -0.9173  1.1569
17336TIP3    H273424   1.518   0.862  14.507 -0.0739 -0.5570  0.1430
17337TIP3   OH273425   6.621   1.974  12.357  0.4650  0.0011 -0.1574
17337TIP3    H173426   6.657   1.928  12.432 -1.4545 -1.1898  0.0540
17337TIP3    H273427   6.678   2.050  12.346  1.1342 -0.1537  2.0975
17338TIP3   OH273428   2.857   5.423  12.408  0.0801 -0.3709  0.2984
17338TIP3    H173429   2.928   5.360  12.408 -0.5739 -1.1165  1.1357
17338TIP3    H273430   2.835   5.434  12.315  2.2077  0.9461 -0.0916
17339TIP3   OH273431   2.860   0.764   6.099  0.0944 -0.2541  0.4444
17339TIP3    H173432   2.796   0.698   6.071 -1.1942  0.6305  1.3197
17339TIP3    H273433   2.824   0.802   6.178  2.6164 -1.0678  2.0661
17340TIP3   OH273434   4.245   1.973  14.322  0.1020 -0.0114 -0.1824
17340TIP3    H173435   4.156   1.939  14.330  0.3923 -0.4237  1.5830
17340TIP3    H273436   4.301   1.899  14.344  0.9230  0.0782 -1.8585
17341TIP3   OH273437   5.106   0.370   2.920  0.4846  0.7891 -0.6787
17341TIP3    H173438   5.116   0.458   2.882  3.0075  0.1462 -1.5967
17341TIP3    H273439   5.027   0.335   2.878  0.6997  1.7972 -1.9796
17342TIP3   OH273440   4.361   4.668  15.126 -0.6863 -1.0351  0.0764
17342TIP3    H173441   4.277   4.703  15.155  0.7127  1.1681  1.5647
17342TIP3    H273442   4.397   4.625  15.203  0.7387  0.3422  0.1892
17343TIP3   OH273443   2.338   3.994  11.188 -0.5462 -0.1102 -0.0877
17343TIP3    H173444   2.304   3.956  11.107 -0.1255  0.0338 -0.3275
17343TIP3    H273445   2.278   4.067  11.207  0.1738  0.7246 -1.0072
17344TIP3   OH273446   4.738   4.910   3.071 -0.8047 -0.0103  0.0547
17344TIP3    H173447   4.763   4.936   2.983 -1.5729 -2.0471 -0.7992
17344TIP3    H273448   4.646   4.884   3.064 -0.9213 -0.0580  1.4849
17345TIP3   OH273449   5.893   0.450  16.169 -0.0352  1.3856 -0.6122
17345TIP3    H173450   5.914   0.359  16.146 -0.2245  1.2182 -0.1288
17345TIP3    H273451   5.978   0.493  16.178  0.0544  1.2711 -0.8955
17346TIP3   OH273452   1.332   3.316  11.336 -0.0876 -0.4225  0.0155
17346TIP3    H173453   1.340   3.411  11.343  0.6023 -0.4973  0.2571
17346TIP3    H273454   1.309   3.301  11.244 -2.3120  0.1139  0.4493
17347TIP3   OH273455   1.282   4.960  13.532 -0.2992 -0.1727  0.0056
17347TIP3    H173456   1.247   4.968  13.620  1.1711 -0.7011  0.6553
17347TIP3    H273457   1.223   4.898  13.489 -0.7619 -0.2580  0.7526
17348TIP3   OH273458   5.274   0.319   5.554 -0.5550  0.4597  0.3700
17348TIP3    H173459   5.188   0.290   5.586 -1.7229  0.1346 -2.8005
17348TIP3    H273460   5.301   0.251   5.493  0.7393  1.8331 -0.6370
17349TIP3   OH273461   6.084   4.080   2.036  0.0483 -0.3936 -0.5756
17349TIP3    H173462   6.002   4.040   2.067  0.6930 -0.8695  0.5291
17349TIP3    H273463   6.094   4.048   1.946 -1.4154  0.3526 -1.0244
17350TIP3   OH273464   0.003   0.567  13.483 -0.2024 -0.2624  0.2655
17350TIP3    H173465  -0.060   0.613  13.429  0.5641  0.9330  0.3676
17350TIP3    H273466   0.087   0.605  13.460  0.1967 -0.0912  1.9267
17351TIP3   OH273467   6.466   3.552  14.132  0.2135 -0.0498 -0.4508
17351TIP3    H173468   6.478   3.457  14.140 -3.1100 -0.4824 -0.0023
17351TIP3    H273469   6.398   3.562  14.066 -0.6739  1.9593  0.7429
17352TIP3   OH273470   3.653   2.571   4.538  0.0539 -0.6697  0.4339
17352TIP3    H173471   3.588   2.628   4.578 -0.2474  0.4983 -1.6454
17352TIP3    H273472   3.735   2.620   4.544 -0.2651  0.1663 -1.6371
17353TIP3   OH273473   1.614   1.694  16.119 -0.6003  0.1101 -0.3314
17353TIP3    H173474   1.524   1.685  16.086 -0.6663 -0.4013 -0.0099
17353TIP3    H273475   1.661   1.620  16.082 -1.2215 -1.7954  2.5617
17354TIP3   OH273476   3.484   0.338   1.073  0.4175  0.6369  0.3372
17354TIP3    H173477   3.444   0.395   1.007  0.5069  0.0108 -0.2623
17354TIP3    H273478   3.514   0.261   1.024  0.8412  0.3418  1.0443
17355TIP3   OH273479   2.355   0.967  13.873 -0.1959  0.2344  0.6184
17355TIP3    H173480   2.327   0.907  13.805 -1.4484 -1.1479  2.2994
17355TIP3    H273481   2.445   0.991  13.849  0.6266 -2.9165  0.2946
17356TIP3   OH273482   2.514   0.712   6.091 -0.1002 -0.1091 -0.0771
17356TIP3    H173483   2.419   0.716   6.085 -0.0937 -1.4055 -1.2306
17356TIP3    H273484   2.544   0.797   6.061 -0.8718  0.0922 -0.2780
17357TIP3   OH273485   2.679   2.582  13.616  0.2902  0.6975 -0.0964
17357TIP3    H173486   2.611   2.520  13.638  0.0007  1.6430  1.7491
17357TIP3    H273487   2.735   2.536  13.553  1.2551 -2.1788  2.7572
17358TIP3   OH273488   4.957   2.156   2.067  0.0628  0.6775  0.2938
17358TIP3    H173489   5.036   2.108   2.043 -0.3334  0.4253 -0.5352
17358TIP3    H273490   4.958   2.234   2.013 -1.4719 -0.5035 -1.5258
17359TIP3   OH273491   6.339   4.635   2.546  0.1461 -0.0743 -0.7604
17359TIP3    H173492   6.325   4.618   2.452  1.3191 -0.2408 -0.9099
17359TIP3    H273493   6.367   4.551   2.581 -1.9847 -0.4627  0.1010
17360TIP3   OH273494   5.370   3.485  16.229 -0.1017  0.2007  0.3800
17360TIP3    H173495   5.462   3.480  16.253  0.3786 -1.4516 -1.7001
17360TIP3    H273496   5.323   3.481  16.313  1.6687  0.7012  1.4292
17361TIP3   OH273497   3.997   1.898  14.417  0.0064 -0.1602  0.2289
17361TIP3    H173498   3.908   1.931  14.412  0.7189  1.9930  1.0557
17361TIP3    H273499   4.025   1.915  14.507  1.2739 -0.7274 -0.0369
17362TIP3   OH273500   1.930   5.820   0.995 -0.4593 -0.1687 -0.4536
17362TIP3    H173501   1.986   5.747   1.022  0.3369 -0.4214 -2.7230
17362TIP3    H273502   1.870   5.782   0.931 -1.4482  0.7254 -0.0826
17363TIP3   OH273503   6.261   1.814  14.384  0.1163 -0.2082 -0.5726
17363TIP3    H173504   6.308   1.896  14.396  1.0956 -1.0308  1.4651
17363TIP3    H273505   6.190   1.817  14.448 -0.5666 -0.4373 -1.3094
17364TIP3   OH273506   1.995   1.454  14.454  0.1719  0.4532  0.0286
17364TIP3    H173507   1.900   1.443  14.453  0.3061 -0.7658 -0.1218
17364TIP3    H273508   2.028   1.373  14.493  1.1159  1.1460  0.6941
17365TIP3   OH273509   5.226   6.276   2.846 -0.1335  0.2710 -0.4577
17365TIP3    H173510   5.214   6.197   2.899 -0.9979  2.3807  2.6509
17365TIP3    H273511   5.138   6.310   2.833  0.4044  2.0068  0.3037
17366TIP3   OH273512   2.667   1.394   4.801  0.4462 -0.3298 -0.4519
17366TIP3    H173513   2.687   1.364   4.713 -0.3969 -0.2756 -0.6675
17366TIP3    H273514   2.629   1.318   4.845  1.6695 -0.6154  0.1517
17367TIP3   OH273515   1.416   5.443  14.500 -0.1977 -0.7571 -0.4244
17367TIP3    H173516   1.479   5.458  14.429 -0.1952 -1.3898 -0.5581
17367TIP3    H273517   1.412   5.348  14.510  1.3881 -0.6271  1.8453
17368TIP3   OH273518   1.253   4.190   4.698  0.1290 -0.5591  0.1351
17368TIP3    H173519   1.225   4.098   4.694  0.1509 -0.6101  1.0377
17368TIP3    H273520   1.280   4.203   4.789 -0.0855  0.4080  0.0674
17369TIP3   OH273521   0.380   1.066  16.002  0.3706  0.2107  0.3319
17369TIP3    H173522   0.355   1.005  16.071 -0.0911  0.7886  0.6798
17369TIP3    H273523   0.300   1.084  15.954  0.6452 -0.0059 -0.2091
17370TIP3   OH273524   0.286   3.339   3.793  0.0071  1.2685  0.9753
17370TIP3    H173525   0.241   3.350   3.710 -0.0826  1.4211  1.0443
17370TIP3    H273526   0.222   3.295   3.849  0.5566 -0.1395  0.5264
17371TIP3   OH273527   4.186   0.257  11.524  0.0701  0.0255  0.0183
17371TIP3    H173528   4.218   0.326  11.581  0.5290  0.2739 -0.5466
17371TIP3    H273529   4.096   0.283  11.502  0.5442  0.8905 -0.9148
17372TIP3   OH273530   4.222   0.110  16.049 -0.1625  0.1328  0.0122
17372TIP3    H173531   4.210   0.070  15.963 -1.1090 -1.2170  0.7494
17372TIP3    H273532   4.316   0.118  16.059 -0.0229 -0.2481 -0.9124
17373TIP3   OH273533   6.543   2.364   5.300 -0.4048 -0.1207 -0.2360
17373TIP3    H173534   6.455   2.392   5.275 -0.3251 -0.9121 -1.4336
17373TIP3    H273535   6.535   2.271   5.319  0.4408 -0.5400 -1.7871
17374TIP3   OH273536   0.686   5.281  16.045 -0.4873  0.4456  0.2793
17374TIP3    H173537   0.664   5.255  15.955 -0.2810  0.7756  0.1348
17374TIP3    H273538   0.613   5.246  16.097 -1.9940  2.5526 -0.3432
17375TIP3   OH273539   3.525   1.442  11.624  0.5853 -0.3215 -0.1564
17375TIP3    H173540   3.467   1.503  11.578 -2.0484 -1.5683  1.3464
17375TIP3    H273541   3.489   1.355  11.603  2.2207 -1.1517  0.4302
17376TIP3   OH273542   1.005   2.749  11.689  0.3556 -0.1730  0.1152
17376TIP3    H173543   1.006   2.804  11.767  0.5394  0.2275 -0.1651
17376TIP3    H273544   0.916   2.715  11.684  0.2585  0.0513  0.3239
17377TIP3   OH273545   4.452   5.857   0.460  0.5393  0.4135 -0.4563
17377TIP3    H173546   4.539   5.828   0.434  0.2575  0.3415 -1.3314
17377TIP3    H273547   4.465   5.946   0.492  0.4142  1.7605 -3.9174
17378TIP3   OH273548   5.399   5.186  15.098  0.4124  0.2493 -0.3775
17378TIP3    H173549   5.450   5.200  15.019  1.4754  1.0182  0.4183
17378TIP3    H273550   5.435   5.249  15.161  0.2554 -1.0203  1.0172
17379TIP3   OH273551   6.145   6.310   3.315  0.0810  0.0272 -0.2232
17379TIP3    H173552   6.193   6.372   3.261 -0.1146 -1.3413 -2.0116
17379TIP3    H273553   6.075   6.361   3.354 -0.1970  0.8971 -1.8233
17380TIP3   OH273554   0.282   1.169   4.271 -0.2145  0.1802 -0.2743
17380TIP3    H173555   0.296   1.262   4.253 -0.7177  0.3525  0.2166
17380TIP3    H273556   0.237   1.136   4.193  0.3374  0.2538 -0.6267
17381TIP3   OH273557   6.541   2.375   2.523  0.0111 -0.3252  0.0072
17381TIP3    H173558   6.466   2.433   2.539  0.5885  0.5546 -0.4099
17381TIP3    H273559   6.527   2.342   2.434  1.8419  2.5682 -1.4764
17382TIP3   OH273560   4.055   6.233  13.873 -0.2409  0.0533  0.1915
17382TIP3    H173561   4.009   6.161  13.916 -0.1179  1.1935  2.2688
17382TIP3    H273562   4.074   6.295  13.943  1.8289  0.9834 -1.1550
17383TIP3   OH273563   4.370   6.261  14.390  0.0584 -0.1411 -0.0636
17383TIP3    H173564   4.294   6.319  14.403 -0.2395  0.0580 -2.5016
17383TIP3    H273565   4.442   6.320  14.370  0.4364 -0.4532  0.3640
17384TIP3   OH273566   6.003   6.208   4.897 -0.1768  0.1057  0.5224
17384TIP3    H173567   6.086   6.160   4.892 -0.0640  0.4275 -1.2841
17384TIP3    H273568   5.982   6.211   4.990  2.2170  0.6709  1.0893
17385TIP3   OH273569   1.095   3.446  16.839 -0.4965 -0.0825  0.3010
17385TIP3    H173570   1.173   3.498  16.860  1.4284 -2.5343 -0.4535
17385TIP3    H273571   1.120   3.397  16.761 -3.1044 -0.3741 -0.3805
17386TIP3   OH273572   4.952   0.380   3.448  0.2316  0.5970 -0.3551
17386TIP3    H173573   5.034   0.429   3.442 -0.2560  1.5076  0.3184
17386TIP3    H273574   4.931   0.357   3.358  2.0673 -1.0600 -0.3961
17387TIP3   OH273575   4.819   6.210   6.436  0.0782  0.3561  0.0455
17387TIP3    H173576   4.791   6.198   6.526 -0.5335 -2.1365 -0.4340
17387TIP3    H273577   4.823   6.121   6.400  0.0440  1.3246 -2.4492
17388TIP3   OH273578   0.726   2.429  13.934  0.3019  0.2679 -0.2622
17388TIP3    H173579   0.734   2.426  13.839  1.3556  0.1076 -0.1803
17388TIP3    H273580   0.728   2.338  13.962 -0.1307  0.3073 -0.0893
17389TIP3   OH273581   2.675   6.587   5.091  0.3021 -0.7176 -0.2097
17389TIP3    H173582   2.688   6.492   5.088  0.2746 -0.8085  1.8780
17389TIP3    H273583   2.733   6.617   5.161  0.0558  0.7659 -0.6163
17390TIP3   OH273584   4.546   1.134   2.196  0.4682  0.1189  0.1092
17390TIP3    H173585   4.607   1.103   2.130 -1.0224 -2.4391 -0.1479
17390TIP3    H273586   4.474   1.173   2.146  0.0195 -0.5210  0.2408
17391TIP3   OH273587   3.164   4.335  16.871 -0.0851  0.2942  0.3371
17391TIP3    H173588   3.082   4.299  16.835  0.7257 -1.0738 -0.1876
17391TIP3    H273589   3.228   4.265  16.858  1.1744  1.3646  0.7391
17392TIP3   OH273590   2.594   2.772  14.241 -0.4032 -0.1952 -0.0018
17392TIP3    H173591   2.587   2.830  14.317  1.0501 -0.7795  0.5837
17392TIP3    H273592   2.596   2.831  14.166  1.2689  0.5329  0.5998
17393TIP3   OH273593   4.523   0.266  13.184  0.2286  0.1289 -1.1204
17393TIP3    H173594   4.574   0.339  13.149 -0.7341  1.3698 -0.0185
17393TIP3    H273595   4.574   0.235  13.259 -1.7994  3.1236  1.6738
17394TIP3   OH273596   5.929   5.684   0.958 -0.1927  0.5745  0.6775
17394TIP3    H173597   5.854   5.626   0.947 -0.2976  0.3464  2.5281
17394TIP3    H273598   5.902   5.747   1.024  1.1187  0.7233  1.0958
17395TIP3   OH273599   5.158   2.813  16.880  0.7276 -0.2461 -0.2760
17395TIP3    H173600   5.084   2.752  16.875 -0.6200  1.3777 -0.3881
17395TIP3    H273601   5.232   2.763  16.844 -0.6004 -1.4442 -1.3977
17396TIP3   OH273602   4.733   1.813   2.989 -0.9957  0.5723  0.2286
17396TIP3    H173603   4.775   1.791   3.071 -0.5672 -0.1145 -0.1724
17396TIP3    H273604   4.704   1.903   3.001 -1.1599  0.3921  1.2179
17397TIP3   OH273605   5.820   3.332  16.341 -0.1215  0.2667 -0.2240
17397TIP3    H173606   5.850   3.385  16.415  1.4342  0.2259 -0.8089
17397TIP3    H273607   5.729   3.359  16.327 -0.4966  0.1403  1.8195
17398TIP3   OH273608   3.492   6.648   1.149  0.0317 -0.0649 -0.2002
17398TIP3    H173609   3.465   6.589   1.079  0.5024  0.8823 -1.1814
17398TIP3    H273610   3.490   6.735   1.110 -0.1560  0.5249  1.0964
17399TIP3   OH273611   0.325   4.732   4.243  0.0583  0.2249 -0.3223
17399TIP3    H173612   0.276   4.697   4.168  0.2602  0.0560 -0.3757
17399TIP3    H273613   0.277   4.698   4.319  1.3507 -1.7605 -0.3574
17400TIP3   OH273614   6.043   2.848  11.783 -0.5494  0.3239  0.5467
17400TIP3    H173615   6.020   2.939  11.798  1.1225  0.8762 -0.1003
17400TIP3    H273616   6.116   2.831  11.843 -0.6801 -0.5155  0.4834
17401TIP3   OH273617   1.093   5.197  16.668 -0.4406 -0.4799  0.3756
17401TIP3    H173618   1.014   5.173  16.715  0.5656  0.5327  2.6840
17401TIP3    H273619   1.129   5.271  16.718  1.2081 -0.0109 -1.4336
17402TIP3   OH273620   3.649   1.262  14.659 -0.3822 -0.0216  0.2126
17402TIP3    H173621   3.678   1.352  14.673 -0.1520  0.0461 -0.6512
17402TIP3    H273622   3.560   1.270  14.625 -1.0375 -0.1915  1.8825
17403TIP3   OH273623   0.621   1.686  11.632  0.0733 -0.3898  0.0464
17403TIP3    H173624   0.626   1.639  11.549 -0.9045  0.2463 -0.3773
17403TIP3    H273625   0.603   1.776  11.608 -0.3527 -0.2259  0.9649
17404TIP3   OH273626   6.451   1.150   4.787  0.5319 -0.1193 -0.4067
17404TIP3    H173627   6.406   1.128   4.706 -0.3176  0.2175 -0.0429
17404TIP3    H273628   6.485   1.238   4.773 -1.1008  0.6384  0.1908
17405TIP3   OH273629   6.649   2.937   1.812 -0.2815  0.4054 -0.4878
17405TIP3    H173630   6.687   3.018   1.775 -1.2593  0.3629 -1.6161
17405TIP3    H273631   6.724   2.892   1.851  0.2462  1.9407  0.3111
17406TIP3   OH273632   3.164   6.335  13.813 -0.5617  0.4738  0.4633
17406TIP3    H173633   3.145   6.265  13.751 -2.7293  1.2226  0.2182
17406TIP3    H273634   3.253   6.318  13.843  0.5082  0.0882 -2.8172
17407TIP3   OH273635   3.713   5.259  11.110 -0.2143 -0.2147  0.4556
17407TIP3    H173636   3.736   5.196  11.041  0.2397  0.4322  0.0087
17407TIP3    H273637   3.629   5.294  11.083  0.5031  0.8895 -0.3853
17408TIP3   OH273638   6.637   3.868   5.814 -0.8142  0.6898  0.1486
17408TIP3    H173639   6.598   3.910   5.737  0.9733 -0.5205 -1.4553
17408TIP3    H273640   6.568   3.871   5.881 -1.3402  4.6122 -0.4393
17409TIP3   OH273641   6.132   6.169   4.118  0.4810  0.3088  0.0527
17409TIP3    H173642   6.077   6.095   4.142 -2.9495  1.3288 -3.9842
17409TIP3    H273643   6.192   6.134   4.051  0.0217  0.7755 -0.6045
17410TIP3   OH273644   4.443   6.124  16.481 -0.8861  0.7469  0.1751
17410TIP3    H173645   4.421   6.147  16.391  0.0167 -0.3923 -0.3496
17410TIP3    H273646   4.534   6.096  16.477 -0.6762  1.1942  1.5417
17411TIP3   OH273647   4.932   3.414  13.327  0.0857  0.0711 -0.5032
17411TIP3    H173648   4.951   3.466  13.405 -3.1727 -0.3970  0.7008
17411TIP3    H273649   4.880   3.472  13.272  0.9199 -0.1775 -1.5748
17412TIP3   OH273650   5.707   5.214  14.604 -0.4188  0.2708  0.0134
17412TIP3    H173651   5.667   5.191  14.687 -0.5221  2.9023  0.7339
17412TIP3    H273652   5.698   5.135  14.550 -2.6235 -0.6193  1.6168
17413TIP3   OH273653   6.230   4.792  14.098  0.0886  0.2726 -0.0564
17413TIP3    H173654   6.242   4.711  14.148  0.3801 -0.0359 -0.6220
17413TIP3    H273655   6.137   4.793  14.077 -0.0062  0.3250  0.3593
17414TIP3   OH273656   0.696   3.184  14.008  0.2692 -0.1293 -0.2980
17414TIP3    H173657   0.756   3.254  13.982 -0.1676  0.3060 -0.1492
17414TIP3    H273658   0.704   3.118  13.940 -0.0099  0.4867 -0.9265
17415TIP3   OH273659   2.966   5.805   1.944 -0.1332  0.1013 -0.2416
17415TIP3    H173660   2.928   5.763   1.866 -1.4886 -0.4486  0.6880
17415TIP3    H273661   2.919   5.887   1.953 -0.3896 -0.1012  0.3213
17416TIP3   OH273662   2.525   1.941   5.646 -0.2028  0.4191 -0.1358
17416TIP3    H173663   2.531   1.862   5.699  4.2449 -0.1456 -1.3203
17416TIP3    H273664   2.546   2.012   5.707 -0.7028  0.3609  0.1090
17417TIP3   OH273665   4.360   0.133  15.361  1.0784  0.6747  0.3993
17417TIP3    H173666   4.429   0.088  15.311  1.2693  0.5903  0.7379
17417TIP3    H273667   4.292   0.067  15.371  1.6108  0.2699  1.4098
17418TIP3   OH273668   6.713   2.045   2.467  0.0720 -0.1767  0.3434
17418TIP3    H173669   6.758   2.069   2.548  0.8531 -0.5817  0.0335
17418TIP3    H273670   6.736   1.954   2.452 -1.2402 -0.5353  0.4234
17419TIP3   OH273671   4.504   6.676   4.587  0.2144  0.1081  0.4094
17419TIP3    H173672   4.566   6.683   4.515  0.2651 -0.0370  0.4379
17419TIP3    H273673   4.516   6.586   4.620  0.0822  0.1232  0.4978
17420TIP3   OH273674   0.684   0.534   5.313  0.1457 -0.0892  0.2842
17420TIP3    H173675   0.772   0.527   5.276 -0.8970 -1.3929 -2.0559
17420TIP3    H273676   0.668   0.449   5.353 -0.3605 -0.1539 -0.0508
17421TIP3   OH273677   2.199   0.724  17.142 -0.0081 -0.0022 -0.4650
17421TIP3    H173678   2.103   0.725  17.134 -0.1959  1.5926  1.4749
17421TIP3    H273679   2.223   0.633  17.130 -1.8156 -0.4807 -0.6784
17422TIP3   OH273680   3.971   6.673   2.607 -0.2322  0.3610 -0.0289
17422TIP3    H173681   3.893   6.671   2.662 -0.0576  2.4772  0.3403
17422TIP3    H273682   3.975   6.586   2.568 -1.1048 -0.7604  2.2629
17423TIP3   OH273683   5.595   3.781  16.365  0.3344 -0.8998 -0.0451
17423TIP3    H173684   5.669   3.841  16.355 -0.2382 -0.3127 -0.7443
17423TIP3    H273685   5.519   3.838  16.378  0.1456 -1.5050  1.7812
17424TIP3   OH273686   1.463   1.969  16.172  0.0033 -0.2214  0.1909
17424TIP3    H173687   1.511   2.053  16.166  1.5612 -0.9106  2.2783
17424TIP3    H273688   1.528   1.903  16.145 -1.6569 -0.6958 -2.9014
17425TIP3   OH273689   4.760   5.020  15.088  0.0970  0.0289  1.0318
17425TIP3    H173690   4.714   5.000  15.170  0.1270  0.2330  1.1002
17425TIP3    H273691   4.694   5.064  15.034 -0.2463 -1.1345  0.5061
17426TIP3   OH273692   0.037   5.916   6.090  0.4305 -0.4070  0.1064
17426TIP3    H173693   0.122   5.875   6.105  0.4762 -0.7753 -1.0745
17426TIP3    H273694   0.023   5.971   6.167  1.3464 -0.9926  0.7050
17427TIP3   OH273695   5.161   4.712  16.390  0.0045  0.0346 -0.0767
17427TIP3    H173696   5.133   4.804  16.395  2.8921  1.0159 -1.3441
17427TIP3    H273697   5.092   4.670  16.339 -0.0724  2.0185 -1.6796
17428TIP3   OH273698   5.860   5.610  12.013 -0.0115  0.1226 -0.2440
17428TIP3    H173699   5.838   5.684  12.071  0.3812  1.0102 -1.2072
17428TIP3    H273700   5.776   5.583  11.976 -0.0851  0.4835 -0.3454
17429TIP3   OH273701   3.440   1.742   2.906  0.2277  0.2075  0.0262
17429TIP3    H173702   3.508   1.693   2.952  1.3684  1.5056 -0.2681
17429TIP3    H273703   3.431   1.823   2.956  0.1272  0.7974 -0.9510
17430TIP3   OH273704   3.339   6.401  11.495 -0.1792 -0.5148  0.3744
17430TIP3    H173705   3.301   6.331  11.442  0.7918  0.6653 -1.9085
17430TIP3    H273706   3.433   6.391  11.486  0.0648 -1.2209  3.1480
17431TIP3   OH273707   5.175   5.702   4.381  0.5481  0.2944  1.0206
17431TIP3    H173708   5.101   5.648   4.353  0.2151  0.9518  0.6238
17431TIP3    H273709   5.152   5.731   4.469  0.1749  0.7720  0.7694
17432TIP3   OH273710   4.552   2.196  12.737 -0.3075 -0.0280  0.5334
17432TIP3    H173711   4.605   2.262  12.693 -1.8065 -0.2125 -1.6271
17432TIP3    H273712   4.614   2.128  12.762  1.0005  1.4324  1.3098
17433TIP3   OH273713   3.645   5.567  13.808  0.3115  0.4286  0.1128
17433TIP3    H173714   3.712   5.500  13.822  0.9892  1.2964  1.0425
17433TIP3    H273715   3.580   5.551  13.877  0.0562  0.2162 -0.1742
17434TIP3   OH273716   3.759   6.732   0.931  0.1009 -0.3145  0.5262
17434TIP3    H173717   3.818   6.680   0.986 -0.2030  0.6290  1.7633
17434TIP3    H273718   3.818   6.780   0.872  0.4885 -0.5616  0.7089
17435TIP3   OH273719   6.713   3.031  15.224 -0.4545  0.2789 -0.9683
17435TIP3    H173720   6.646   2.963  15.231 -1.6803  1.4566 -0.8434
17435TIP3    H273721   6.775   3.011  15.294 -2.1792  0.7365  0.7425
17436TIP3   OH273722   2.417   1.422   4.601 -0.0113 -0.0170  0.3088
17436TIP3    H173723   2.406   1.481   4.526 -0.3274 -1.4053 -0.7682
17436TIP3    H273724   2.452   1.477   4.671 -0.5201  1.4850 -0.6025
17437TIP3   OH273725   2.242   6.323   3.836  0.1113  0.2705 -0.2692
17437TIP3    H173726   2.289   6.278   3.906  1.4277  0.2957 -1.1302
17437TIP3    H273727   2.204   6.400   3.878  2.1281  1.0797  0.1053
17438TIP3   OH273728   0.457   0.390  16.728  0.4057  0.1032  0.6518
17438TIP3    H173729   0.447   0.378  16.633  0.0110 -0.9472  0.8093
17438TIP3    H273730   0.492   0.478  16.738 -0.1741  0.4724 -0.4461
17439TIP3   OH273731   3.567   6.352  11.351  0.2019  0.2492  0.6532
17439TIP3    H173732   3.645   6.299  11.367  0.0193  0.0148  0.7630
17439TIP3    H273733   3.532   6.319  11.268 -1.3916 -1.5826  2.0215
17440TIP3   OH273734   4.732   2.868  17.054 -0.5767  0.3499  0.1307
17440TIP3    H173735   4.770   2.788  17.019 -2.0611 -0.1754 -0.2957
17440TIP3    H273736   4.645   2.843  17.083 -1.0001  1.7775  0.1279
17441TIP3   OH273737   3.529   1.599  15.893  0.1222  0.3592 -0.1153
17441TIP3    H173738   3.588   1.559  15.829 -0.4726 -0.3766 -0.2072
17441TIP3    H273739   3.500   1.526  15.948 -0.1914  0.8203  0.3403
17442TIP3   OH273740   4.505   5.253  14.187  0.4029 -0.4865 -0.2765
17442TIP3    H173741   4.496   5.348  14.175 -0.2205 -0.5701 -0.4643
17442TIP3    H273742   4.437   5.230  14.251 -0.1107 -0.9654 -0.9856
17443TIP3   OH273743   0.780   3.038  13.311 -0.0850 -1.1371 -0.3889
17443TIP3    H173744   0.692   3.074  13.298  0.0234  0.0741  1.8613
17443TIP3    H273745   0.833   3.079  13.244 -0.6864  0.2886 -0.0179
17444TIP3   OH273746   2.805   1.499  14.980  0.0392  0.2453 -0.5167
17444TIP3    H173747   2.876   1.442  15.011 -0.2027 -0.2875 -0.9218
17444TIP3    H273748   2.819   1.582  15.026  1.9296  0.7126 -1.8871
17445TIP3   OH273749   0.783   5.984   1.468 -0.5066  0.8469 -0.4756
17445TIP3    H173750   0.810   5.909   1.414  2.0379  1.6450 -0.3633
17445TIP3    H273751   0.862   6.010   1.515 -1.7884  2.5300  0.8216
17446TIP3   OH273752   5.533   2.624  14.291 -0.7718  0.0603 -0.2589
17446TIP3    H173753   5.476   2.675  14.349 -0.0020  2.1354 -1.2964
17446TIP3    H273754   5.617   2.669  14.294  0.6250 -2.5285  0.6422
17447TIP3   OH273755   3.471   5.912   1.874 -0.3637  0.3943 -0.3352
17447TIP3    H173756   3.384   5.875   1.863 -0.3337 -0.0767  0.9282
17447TIP3    H273757   3.458   5.985   1.935 -0.2068  1.6445 -1.7595
17448TIP3   OH273758   1.134   2.836  16.182  0.9099  0.2923 -0.1167
17448TIP3    H173759   1.164   2.896  16.251 -1.3499  0.4435  0.7722
17448TIP3    H273760   1.126   2.892  16.104 -1.8225  1.3536  0.8695
17449TIP3   OH273761   4.012   2.134   1.246  0.0345 -0.1975  0.3259
17449TIP3    H173762   4.032   2.074   1.319  0.2507  0.0959  0.5087
17449TIP3    H273763   3.963   2.080   1.184 -0.9554 -0.2142  1.1028
17450TIP3   OH273764   0.634   4.489   5.532 -0.0276 -0.1399  0.5711
17450TIP3    H173765   0.613   4.453   5.446  0.4895  3.2227 -1.0556
17450TIP3    H273766   0.717   4.446   5.556 -0.6004 -1.7187 -0.1889
17451TIP3   OH273767   0.725   5.156   4.383  0.4501 -0.2107 -0.8145
17451TIP3    H173768   0.664   5.228   4.364  1.9248  0.5511 -2.8747
17451TIP3    H273769   0.683   5.078   4.347 -0.9392 -0.3261  0.9983
17452TIP3   OH273770   0.853   4.290   2.011 -0.0326  0.4786 -0.3767
17452TIP3    H173771   0.840   4.291   2.106 -0.7510  0.1580 -0.4689
17452TIP3    H273772   0.767   4.311   1.975  0.7383  2.7927 -0.9234
17453TIP3   OH273773   6.311   4.359   1.589  0.0229 -0.0408 -0.6766
17453TIP3    H173774   6.272   4.421   1.651 -2.1409 -0.2627 -1.7624
17453TIP3    H273775   6.401   4.390   1.577 -0.5808  2.0033 -0.0510
17454TIP3   OH273776   6.097   3.884  11.721 -0.7633  0.5464 -1.0463
17454TIP3    H173777   6.122   3.801  11.680  0.5047  0.8529 -0.9007
17454TIP3    H273778   6.001   3.884  11.718 -0.8929 -1.9580  0.9753
17455TIP3   OH273779   3.256   1.889   3.754  0.2168  0.2723  0.2232
17455TIP3    H173780   3.274   1.956   3.688  0.5724 -1.7309 -1.7638
17455TIP3    H273781   3.342   1.854   3.777 -0.1149 -0.9085 -0.2915
17456TIP3   OH273782   5.279   2.699  15.851 -0.6048  0.0031  1.0873
17456TIP3    H173783   5.362   2.717  15.807 -0.9043  1.8867  1.2303
17456TIP3    H273784   5.269   2.604  15.848  1.1553 -0.1627  0.3432
17457TIP3   OH273785   2.031   2.900   4.022 -0.0551  0.1785  0.2283
17457TIP3    H173786   2.122   2.875   4.039 -0.8022 -1.1536  2.4612
17457TIP3    H273787   2.011   2.965   4.090 -0.5760  0.9921 -0.6861
17458TIP3   OH273788   0.395   0.243  14.440  0.4497  0.1787  0.0002
17458TIP3    H173789   0.430   0.220  14.353  0.8887  0.4513  0.1001
17458TIP3    H273790   0.437   0.181  14.499 -1.3861 -1.3250 -0.2293
17459TIP3   OH273791   2.137   5.752   3.913 -0.6105 -0.0196  0.5876
17459TIP3    H173792   2.210   5.804   3.948 -0.5259  1.1299 -1.2366
17459TIP3    H273793   2.105   5.803   3.838 -2.7719 -0.9091  0.8665
17460TIP3   OH273794   4.358   0.423  11.313 -0.4772 -0.0616  0.3057
17460TIP3    H173795   4.362   0.333  11.280 -2.1863  0.1048 -0.4201
17460TIP3    H273796   4.267   0.433  11.342 -0.8940  2.1110 -1.6274
17461TIP3   OH273797   0.605   1.259  12.649 -0.2711 -0.0682 -0.3596
17461TIP3    H173798   0.561   1.174  12.654 -0.8719  0.2396 -0.4021
17461TIP3    H273799   0.698   1.238  12.657 -0.4218 -0.7242 -0.2951
17462TIP3   OH273800   0.994   1.055   0.488 -0.1169  0.6283  0.7658
17462TIP3    H173801   0.929   1.101   0.542 -0.4451  0.1150  0.8074
17462TIP3    H273802   1.064   1.031   0.549  0.9958  2.7920  0.4005
17463TIP3   OH273803   3.816   3.309   5.436 -0.1908  0.5502  0.3561
17463TIP3    H173804   3.886   3.326   5.373  0.0644  1.6120  0.9118
17463TIP3    H273805   3.775   3.228   5.405  0.3877  0.6748 -0.7612
17464TIP3   OH273806   6.322   0.558  15.292 -0.2278  0.1742  0.4389
17464TIP3    H173807   6.275   0.622  15.344  2.4174  1.0204  1.8768
17464TIP3    H273808   6.359   0.608  15.219  0.1012 -0.1139  0.4039
17465TIP3   OH273809   1.899   6.682   3.205 -0.3374  0.5687 -0.0479
17465TIP3    H173810   1.873   6.763   3.161  0.0772 -0.9383 -3.2486
17465TIP3    H273811   1.841   6.675   3.281 -1.8694  2.7150 -0.9912
17466TIP3   OH273812   4.427   2.355  13.692  0.0299 -0.3738 -0.5883
17466TIP3    H173813   4.334   2.352  13.714  0.0177  1.9618 -0.1897
17466TIP3    H273814   4.431   2.411  13.614  1.1630  0.1155 -0.1967
17467TIP3   OH273815   2.704   0.990   4.699 -0.4489  0.6035  0.3191
17467TIP3    H173816   2.706   0.938   4.619 -0.1045  0.1229  0.6333
17467TIP3    H273817   2.700   1.081   4.669 -1.1704  0.3878 -0.2331
17468TIP3   OH273818   5.452   6.305  17.125  0.4942  0.6932 -0.3275
17468TIP3    H173819   5.498   6.286  17.044  1.3607  1.3566  0.0041
17468TIP3    H273820   5.377   6.359  17.098 -0.5125 -0.9768 -0.9548
17469TIP3   OH273821   2.687   0.210  12.672 -0.5881  0.4516 -0.4722
17469TIP3    H173822   2.650   0.288  12.632 -0.4799  1.8852  2.0965
17469TIP3    H273823   2.634   0.138  12.638 -2.9354  2.0121 -0.2386
17470TIP3   OH273824   6.635   1.040  11.380 -0.1505 -0.4681 -0.0591
17470TIP3    H173825   6.573   0.992  11.435 -1.2483 -0.8527 -1.5902
17470TIP3    H273826   6.636   1.128  11.417 -0.7426 -0.7673  0.6883
17471TIP3   OH273827   2.571   0.605  11.426 -0.1889  0.2411  0.8793
17471TIP3    H173828   2.492   0.552  11.441  0.0662 -0.7489 -1.1511
17471TIP3    H273829   2.642   0.541  11.419  0.4541  0.9856  0.5350
17472TIP3   OH273830   5.171   1.070  11.961 -0.0255 -0.0803  0.1404
17472TIP3    H173831   5.087   1.100  11.995 -0.2877 -1.0716  0.3802
17472TIP3    H273832   5.225   1.149  11.957 -1.1569  0.6669 -0.5917
17473TIP3   OH273833   3.476   0.205  15.050  0.1082 -0.3539  0.3335
17473TIP3    H173834   3.538   0.141  15.084  2.2072  0.9856 -0.8606
17473TIP3    H273835   3.406   0.153  15.011  0.5708 -1.8893  1.5429
17474TIP3   OH273836   0.275   2.087  16.531 -0.0788 -0.2778  0.1000
17474TIP3    H173837   0.192   2.133  16.522  0.1649 -0.0170 -0.9961
17474TIP3    H273838   0.273   2.049  16.619  0.1484  2.6607  1.4152
17475TIP3   OH273839   4.657   5.361  13.055  0.7865 -0.3485 -0.0951
17475TIP3    H173840   4.699   5.419  13.118 -1.7599  0.4186  0.9443
17475TIP3    H273841   4.641   5.280  13.104  0.8712 -0.5734 -0.4357
17476TIP3   OH273842   6.730   4.327  16.102 -0.4947 -0.0651  0.6397
17476TIP3    H173843   6.677   4.249  16.119 -1.6474  0.5113 -0.2827
17476TIP3    H273844   6.787   4.302  16.030  0.6372 -0.7367  1.7362
17477TIP3   OH273845   1.805   4.374   3.802 -0.1314  0.2416 -0.0110
17477TIP3    H173846   1.764   4.296   3.840  0.3612 -0.8333 -1.6533
17477TIP3    H273847   1.751   4.447   3.834 -1.8991 -0.9416 -0.2056
17478TIP3   OH273848   5.171   2.728  14.861 -0.0682  0.2983 -0.0959
17478TIP3    H173849   5.117   2.712  14.783 -0.0963 -2.4348  0.4190
17478TIP3    H273850   5.156   2.651  14.916  2.1608  0.8455  1.3424
17479TIP3   OH273851   6.744   3.963  13.029  0.2226 -0.4244  0.2134
17479TIP3    H173852   6.671   4.024  13.018  0.5772 -0.0065  0.1519
17479TIP3    H273853   6.819   4.007  12.988  1.4476  0.8650  3.7094
17480TIP3   OH273854   3.490   0.044   5.677 -0.2005  0.1018  0.2184
17480TIP3    H173855   3.421   0.110   5.680 -0.4726 -0.2051  0.7829
17480TIP3    H273856   3.452  -0.028   5.627 -0.1387  0.1082  0.1632
17481TIP3   OH273857   4.274   1.341   2.306 -0.1411  0.1243  0.2566
17481TIP3    H173858   4.247   1.250   2.316  0.7643 -0.1780  0.0243
17481TIP3    H273859   4.314   1.363   2.391 -0.6549  0.4071  0.4255
17482TIP3   OH273860   4.548   2.007   2.817  0.4844 -0.2862 -0.1233
17482TIP3    H173861   4.455   2.029   2.817  0.1522 -1.6008  0.2171
17482TIP3    H273862   4.578   2.028   2.905  0.7221  0.9382 -0.4865
17483TIP3   OH273863   2.559   3.182  15.878 -0.6884 -0.7479  0.3248
17483TIP3    H173864   2.514   3.264  15.899  1.5141  1.0093 -1.5540
17483TIP3    H273865   2.547   3.127  15.956 -1.4881  1.6643  1.9638
17484TIP3   OH273866   5.513   3.777   3.860  0.3969  0.0126 -0.0232
17484TIP3    H173867   5.570   3.842   3.820  0.7467  0.0196  0.4682
17484TIP3    H273868   5.568   3.698   3.866  0.0988 -0.2120 -0.2766
17485TIP3   OH273869   2.794   4.260  14.247 -0.2983  0.3144  0.3687
17485TIP3    H173870   2.767   4.351  14.241 -0.1648  0.2519 -1.3487
17485TIP3    H273871   2.723   4.211  14.205  1.3721 -0.0331 -2.1540
17486TIP3   OH273872   5.534   6.311   3.307  0.2253 -0.6838 -0.0978
17486TIP3    H173873   5.502   6.381   3.250  1.9432 -1.1072 -1.6369
17486TIP3    H273874   5.629   6.326   3.312 -0.1778  1.1694  5.1847
17487TIP3   OH273875   2.019   0.570  11.971  0.2826 -0.7786  0.2563
17487TIP3    H173876   2.065   0.521  12.039  2.1545 -2.3707 -2.0866
17487TIP3    H273877   1.994   0.505  11.906 -2.2544  0.5919 -0.2209
17488TIP3   OH273878   1.823   2.246  12.810 -0.0568 -0.1120 -0.0308
17488TIP3    H173879   1.824   2.182  12.738  0.3735  1.1943 -1.1893
17488TIP3    H273880   1.864   2.199  12.883 -0.1835 -1.3360 -0.7201
17489TIP3   OH273881   3.453   4.787   1.315 -0.5801 -0.7531 -0.0460
17489TIP3    H173882   3.366   4.816   1.287 -0.5240 -2.8730 -2.6893
17489TIP3    H273883   3.460   4.697   1.283  0.9534 -2.1690  3.9419
17490TIP3   OH273884   6.113   5.617  10.773  0.3289 -0.0421  1.0218
17490TIP3    H173885   6.057   5.627  10.851 -0.3733 -0.0279  0.5210
17490TIP3    H273886   6.113   5.703  10.732  0.8019 -0.0185  1.0639
17491TIP3   OH273887   1.020   2.423  11.803  0.0310  0.1389  0.3569
17491TIP3    H173888   1.043   2.472  11.882 -0.0157 -1.4588  1.3789
17491TIP3    H273889   1.020   2.331  11.830 -1.4731 -0.3318 -1.1229
17492TIP3   OH273890   3.384   0.687   3.405  0.4712 -0.3666  0.0639
17492TIP3    H173891   3.304   0.634   3.406  0.2847 -0.0968 -0.3668
17492TIP3    H273892   3.354   0.776   3.423  0.5594 -0.1213 -0.9924
17493TIP3   OH273893   2.213   2.819   0.786 -0.3037 -0.3458 -0.0768
17493TIP3    H173894   2.221   2.914   0.796 -0.7946  0.0158 -2.7121
17493TIP3    H273895   2.118   2.804   0.786 -0.2459 -0.7072 -0.6719
17494TIP3   OH273896   3.111   1.058  16.139 -0.1875 -0.0431 -0.3100
17494TIP3    H173897   3.046   1.040  16.070 -1.4352  2.4534  0.1743
17494TIP3    H273898   3.196   1.046  16.096 -0.9554  0.5508 -2.0103
17495TIP3   OH273899   0.849   4.278  13.032  0.2237 -0.2736  0.3351
17495TIP3    H173900   0.793   4.342  12.989 -1.7523 -1.8169  0.5045
17495TIP3    H273901   0.866   4.315  13.118  0.8786  0.9885 -0.3237
17496TIP3   OH273902   5.728   1.064  16.012  0.5540  0.3840 -0.0473
17496TIP3    H173903   5.686   0.996  16.065 -1.1152  0.7532 -0.8797
17496TIP3    H273904   5.697   1.146  16.050  1.1703  0.6749 -0.1660
17497TIP3   OH273905   6.774   1.470   1.695 -0.8054  0.2432  0.1502
17497TIP3    H173906   6.709   1.469   1.765 -1.0781 -1.2964 -0.1164
17497TIP3    H273907   6.724   1.483   1.615 -0.7236 -0.2932  0.0107
17498TIP3   OH273908   4.288   3.663  12.746 -0.3349  0.2764 -0.0795
17498TIP3    H173909   4.261   3.743  12.791  0.1840  0.4580 -0.0897
17498TIP3    H273910   4.289   3.596  12.815 -2.7043 -0.1915 -0.4286
17499TIP3   OH273911   0.855   1.497  12.281 -0.2752  0.0867 -0.5677
17499TIP3    H173912   0.777   1.458  12.321 -0.2773  0.4854 -0.1764
17499TIP3    H273913   0.921   1.428  12.286 -0.4219 -0.0391 -0.3307
17500TIP3   OH273914   4.967   6.449  14.435 -0.3241  0.1283  0.0733
17500TIP3    H173915   5.019   6.390  14.381 -0.4852  0.7575 -0.7809
17500TIP3    H273916   5.019   6.462  14.514 -0.5980 -1.6934  0.5709
17501TIP3   OH273917   1.489   5.286  13.405  0.2525 -0.4311  0.3123
17501TIP3    H173918   1.501   5.380  13.416 -0.7671 -0.2692  0.1276
17501TIP3    H273919   1.457   5.256  13.489 -2.0879 -0.1338 -0.4279
17502TIP3   OH273920   4.857   6.751   3.714  0.4497  0.2475 -0.3849
17502TIP3    H173921   4.920   6.685   3.744  1.8441  1.3439 -0.8465
17502TIP3    H273922   4.838   6.727   3.623  0.7740  0.3442 -0.4784
17503TIP3   OH273923   0.990   0.427   0.427 -0.4783 -0.2779 -0.3953
17503TIP3    H173924   0.997   0.402   0.520 -0.0044  0.4117 -0.2425
17503TIP3    H273925   0.901   0.458   0.417 -0.5623 -0.4525 -0.1934
17504TIP3   OH273926   3.313   0.923   1.715  0.4859 -0.0299 -0.1950
17504TIP3    H173927   3.232   0.927   1.767  0.0554  0.8399 -0.9047
17504TIP3    H273928   3.352   1.010   1.726  2.0148 -0.8555  1.1877
17505TIP3   OH273929   3.382   0.401   5.292  0.2844 -0.4347  0.6952
17505TIP3    H173930   3.342   0.467   5.235 -0.6335  0.5518  2.4512
17505TIP3    H273931   3.468   0.384   5.252  0.1520  1.1286 -0.2996
17506TIP3   OH273932   2.693   3.688  13.529  0.3100 -0.1803 -0.6215
17506TIP3    H173933   2.660   3.619  13.587  3.1364 -1.3238 -0.3303
17506TIP3    H273934   2.777   3.713  13.565  0.3929  1.8140 -2.0759
17507TIP3   OH273935   6.641   2.684   0.400  0.1234 -0.4460  0.1340
17507TIP3    H173936   6.709   2.636   0.448  0.3629 -0.7152 -0.4794
17507TIP3    H273937   6.574   2.618   0.382 -0.5995 -0.0416  1.3021
17508TIP3   OH273938   6.385   3.895  15.319 -0.5988 -0.1147  0.3054
17508TIP3    H173939   6.293   3.920  15.332 -1.4468 -3.1300  0.5315
17508TIP3    H273940   6.413   3.864  15.405  0.9286  1.5814  0.4459
17509TIP3   OH273941   6.161   6.470  16.067 -0.2018 -0.1704  0.0654
17509TIP3    H173942   6.192   6.446  16.154 -1.1375 -0.1667  0.4082
17509TIP3    H273943   6.234   6.517  16.028 -0.4749  1.6576  1.6393
17510TIP3   OH273944   3.615   0.267   1.337  0.7858  0.3497 -0.1752
17510TIP3    H173945   3.711   0.271   1.327  0.6484 -1.1940 -2.5432
17510TIP3    H273946   3.581   0.286   1.250 -1.0933  0.8475  0.6444
17511TIP3   OH273947   0.444   5.303   3.656 -0.0234  0.1286  0.8010
17511TIP3    H173948   0.398   5.385   3.640  1.7304  1.0306  0.2086
17511TIP3    H273949   0.409   5.271   3.739  0.8011  2.5998  2.1658
17512TIP3   OH273950   2.582   4.781   0.144 -0.1300 -0.2305  0.1490
17512TIP3    H173951   2.490   4.774   0.119  0.2215  0.5287 -1.4810
17512TIP3    H273952   2.630   4.765   0.062  1.1172  1.6518  0.4822
17513TIP3   OH273953   3.757   0.004  16.851  0.0561  0.5068  0.7057
17513TIP3    H173954   3.724  -0.036  16.931 -0.8876 -0.2012 -0.0194
17513TIP3    H273955   3.679   0.038  16.807  0.2069 -1.3989 -1.1443
17514TIP3   OH273956   3.926   5.241   6.061  0.3691  0.0969  0.1008
17514TIP3    H173957   4.016   5.261   6.087  0.1319 -0.8795  1.7142
17514TIP3    H273958   3.894   5.180   6.127 -1.2801 -0.0692 -0.8080
17515TIP3   OH273959   4.996   5.592  12.813 -0.2945  0.2129 -0.4064
17515TIP3    H173960   4.955   5.507  12.795  0.0075 -0.2928  1.2574
17515TIP3    H273961   4.959   5.619  12.897  1.1625  0.7613  0.0633
17516TIP3   OH273962   4.579   0.615   4.677 -0.8146  0.5065  0.0264
17516TIP3    H173963   4.649   0.664   4.721  0.2272  0.7867 -1.8837
17516TIP3    H273964   4.580   0.529   4.718  0.6714  0.5045  0.0306
17517TIP3   OH273965   1.478   6.399   0.987 -0.1468  0.2349 -0.4229
17517TIP3    H173966   1.566   6.423   1.014 -1.5493  0.8441  3.9849
17517TIP3    H273967   1.478   6.304   0.984  0.4884  0.2087  0.3280
17518TIP3   OH273968   0.463   6.567   1.283 -0.1803  0.3349 -0.0529
17518TIP3    H173969   0.422   6.544   1.367  0.2812 -1.7218 -0.3601
17518TIP3    H273970   0.549   6.525   1.286  0.4663  1.5614 -0.9243
17519TIP3   OH273971   4.785   5.398   5.213  0.5665 -0.6515  0.2888
17519TIP3    H173972   4.831   5.389   5.296  0.5142 -0.9670  0.2829
17519TIP3    H273973   4.697   5.427   5.237  0.4341 -1.1115  0.3690
17520TIP3   OH273974   2.386   6.626   5.262 -0.2970  0.2276 -0.0290
17520TIP3    H173975   2.334   6.706   5.273 -1.4450 -0.5023 -0.1281
17520TIP3    H273976   2.380   6.607   5.168 -0.5983 -0.3633  0.1103
17521TIP3   OH273977   6.001   1.016  13.345 -0.3606 -0.1665 -0.2939
17521TIP3    H173978   5.968   1.094  13.389  1.5489  0.1157  0.6650
17521TIP3    H273979   6.020   1.044  13.255  0.5639  0.5338  0.1213
17522TIP3   OH273980   3.267   5.689   6.221  0.4029 -0.1142 -0.1445
17522TIP3    H173981   3.316   5.739   6.156 -0.2671 -2.1122 -2.2186
17522TIP3    H273982   3.189   5.659   6.176  0.4279 -2.4156  1.2433
17523TIP3   OH273983   3.302   0.281  14.401  0.0316 -0.7705  0.0442
17523TIP3    H173984   3.319   0.341  14.328  1.6591 -0.0746  0.9779
17523TIP3    H273985   3.364   0.307  14.469 -1.3330 -1.5327  1.6247
17524TIP3   OH273986   6.615   1.456   0.163  0.3876 -0.0303 -0.0421
17524TIP3    H173987   6.541   1.516   0.175  0.8618  0.4057  0.7460
17524TIP3    H273988   6.650   1.479   0.077 -0.2490 -0.0867 -0.3251
17525TIP3   OH273989   6.448   4.790   3.346  0.3941  0.3547 -0.4343
17525TIP3    H173990   6.476   4.804   3.256  0.6243 -0.2063 -0.4501
17525TIP3    H273991   6.514   4.835   3.399  0.5925  0.1648 -0.5220
17526TIP3   OH273992   2.584   0.762  12.160 -0.1918 -0.0439 -0.2211
17526TIP3    H173993   2.648   0.795  12.097  0.9636 -2.3243 -0.3126
17526TIP3    H273994   2.508   0.738  12.107  0.2250 -0.6026 -0.5711
17527TIP3   OH273995   6.704   3.571   0.462  0.4317 -0.1408  0.1232
17527TIP3    H173996   6.750   3.521   0.395  2.3835 -0.0177  1.2990
17527TIP3    H273997   6.707   3.515   0.540 -2.3169 -0.5396 -0.0152
17528TIP3   OH273998   0.083   0.335   6.008 -0.2450  0.1345  0.6141
17528TIP3    H173999   0.033   0.254   6.000  1.4645 -0.8344 -0.5890
17528TIP3    H274000   0.079   0.357   6.101 -1.9367 -0.5290  0.7074
17529TIP3   OH274001   3.331   2.774  11.462  0.6609 -0.4104  0.0247
17529TIP3    H174002   3.392   2.831  11.508 -0.3057 -0.0173  0.8403
17529TIP3    H274003   3.386   2.719  11.407  1.7518 -0.0893  0.7830
17530TIP3   OH274004   5.487   3.104   2.357 -0.3114  0.4107 -0.1957
17530TIP3    H174005   5.501   3.027   2.301 -1.2986  1.4359 -1.8880
17530TIP3    H274006   5.406   3.085   2.404 -0.8890  0.6601 -1.0727
17531TIP3   OH274007   4.149   6.192   5.295  0.2517  0.4775  0.1369
17531TIP3    H174008   4.107   6.116   5.335  2.5999 -1.3158 -0.6753
17531TIP3    H274009   4.179   6.245   5.368 -0.0841 -0.1374  0.7206
17532TIP3   OH274010   1.038   4.672   6.017 -0.4012  0.6823  0.2440
17532TIP3    H174011   1.060   4.582   6.040 -0.4207  0.7514  0.5261
17532TIP3    H274012   0.947   4.668   5.987 -0.5626  0.6943  0.7384
17533TIP3   OH274013   6.237   3.656  11.567  0.1139 -0.6885  0.4386
17533TIP3    H174014   6.255   3.656  11.473  0.0620  1.0228  0.4004
17533TIP3    H274015   6.324   3.657  11.607  0.1423  0.3960  0.3681
17534TIP3   OH274016   5.906   2.779  15.246 -0.8294  0.3435  0.0420
17534TIP3    H174017   5.850   2.728  15.304  0.1237 -1.7886 -0.8534
17534TIP3    H274018   5.921   2.861  15.293 -5.3328  1.3526 -0.0604
17535TIP3   OH274019   1.401   6.098   2.940  0.1697  0.3952 -0.2504
17535TIP3    H174020   1.343   6.022   2.947  0.2252  0.4379  0.8581
17535TIP3    H274021   1.369   6.159   3.007  2.5192 -0.2782  1.5582
17536TIP3   OH274022   2.736   5.700   2.179 -0.0503 -0.0910 -0.3023
17536TIP3    H174023   2.732   5.667   2.269  1.7616 -2.1824 -0.9461
17536TIP3    H274024   2.809   5.653   2.139  1.2751  3.1880 -1.9315
17537TIP3   OH274025   5.292   3.873   1.703  0.6704 -0.7055 -0.2304
17537TIP3    H174026   5.310   3.903   1.792  0.5067 -0.0131 -0.4268
17537TIP3    H274027   5.328   3.942   1.647 -0.2216 -0.5990 -0.6766
17538TIP3   OH274028   3.672   5.969   3.248  0.5168  0.2780  0.0547
17538TIP3    H174029   3.718   5.978   3.164 -1.9687  3.7188 -1.0372
17538TIP3    H274030   3.693   6.048   3.296 -2.1377  0.7089  0.5684
17539TIP3   OH274031   5.409   6.041  12.197  0.1479  0.6485  0.5012
17539TIP3    H174032   5.377   5.964  12.150 -0.2654  1.2483 -0.2201
17539TIP3    H274033   5.345   6.110  12.176  0.6634  1.2549  0.9034
17540TIP3   OH274034   2.299   1.111   1.603  0.3444 -0.4647 -0.4115
17540TIP3    H174035   2.309   1.104   1.508  0.3364 -1.5456 -0.3407
17540TIP3    H274036   2.329   1.027   1.637  2.1787  0.5958  0.7113
17541TIP3   OH274037   4.474   5.132  13.831  0.1177 -0.5454 -0.2349
17541TIP3    H174038   4.530   5.070  13.784  1.1915  1.0673 -1.1174
17541TIP3    H274039   4.385   5.099  13.816  0.4673 -0.4387 -2.9085
17542TIP3   OH274040   2.405   2.968   6.030 -0.3060  0.2727  0.0685
17542TIP3    H174041   2.421   2.994   5.939 -0.3640  0.4614  0.1130
17542TIP3    H274042   2.463   3.023   6.081 -1.4075  1.2592  0.2665
17543TIP3   OH274043   5.670   1.382   6.086  0.1697 -0.8641 -0.1236
17543TIP3    H174044   5.703   1.300   6.123 -0.7007 -1.8585 -1.5037
17543TIP3    H274045   5.603   1.355   6.024  1.1137  0.7965 -1.9372
17544TIP3   OH274046   2.026   4.156   4.554  0.0247 -0.4059 -0.1705
17544TIP3    H174047   1.975   4.233   4.578 -1.8037 -1.1888 -1.3801
17544TIP3    H274048   1.961   4.090   4.531  1.5807 -1.7093 -0.9881
17545TIP3   OH274049   2.313   4.153   1.138  0.4308 -0.0018  0.0792
17545TIP3    H174050   2.270   4.202   1.208  1.0833  0.8711 -0.1232
17545TIP3    H274051   2.247   4.148   1.069  0.7766  1.7292 -0.4111
17546TIP3   OH274052   6.253   4.076   2.774  0.1179 -0.5214 -0.2365
17546TIP3    H174053   6.245   4.101   2.866  0.7575  0.0640 -0.3345
17546TIP3    H274054   6.313   4.141   2.737 -1.0883 -0.0193 -1.3511
17547TIP3   OH274055   5.137   2.303   0.663  0.1815 -0.4848 -0.0098
17547TIP3    H174056   5.085   2.256   0.728  0.7001  0.4758  1.1240
17547TIP3    H274057   5.136   2.247   0.585  0.5717 -2.2424  1.2230
17548TIP3   OH274058   4.155   5.199   5.432 -0.7215  0.8350 -0.3037
17548TIP3    H174059   4.142   5.252   5.353  0.4552 -0.2993 -1.2821
17548TIP3    H274060   4.091   5.233   5.494 -2.1264  1.3219 -1.9751
17549TIP3   OH274061   2.371   0.271   4.698 -0.2025  0.0593 -0.2310
17549TIP3    H174062   2.384   0.251   4.605 -2.6610 -0.1701 -0.5509
17549TIP3    H274063   2.362   0.186   4.740 -0.4095  0.2039  0.0160
17550TIP3   OH274064   4.955   2.981   1.046 -0.9693  0.5609  0.7435
17550TIP3    H174065   5.024   3.010   0.986 -0.1238 -1.8279  0.5011
17550TIP3    H274066   4.894   3.054   1.049 -0.1033  1.4345 -1.6381
17551TIP3   OH274067   0.415   3.884  14.247  0.3543  0.5568  0.0877
17551TIP3    H174068   0.445   3.871  14.337  0.6594 -1.3624 -0.2825
17551TIP3    H274069   0.322   3.862  14.250  0.6088 -0.5767 -0.2946
17552TIP3   OH274070   6.276   2.502   1.159  0.6560 -0.1668  0.2060
17552TIP3    H174071   6.217   2.435   1.193 -0.4116 -0.1776 -1.6356
17552TIP3    H274072   6.240   2.585   1.191  1.3733 -0.3821  1.5950
17553TIP3   OH274073   2.839   2.541  11.530 -0.6526 -0.2546 -0.2736
17553TIP3    H174074   2.840   2.466  11.470 -1.2250  1.2764 -2.2640
17553TIP3    H274075   2.929   2.574  11.527  0.0100 -1.8004  1.8574
17554TIP3   OH274076   5.424   2.014  13.665 -0.5814 -0.0638 -0.0364
17554TIP3    H174077   5.363   2.079  13.699 -0.3757  0.3724 -0.5068
17554TIP3    H274078   5.509   2.042  13.699 -0.4631  0.0290 -0.4128
17555TIP3   OH274079   5.133   2.006   0.746 -0.4168  0.0804  0.1870
17555TIP3    H174080   5.114   1.947   0.820 -1.2223  1.5014  1.1340
17555TIP3    H274081   5.228   2.015   0.746 -0.1321 -2.4607 -0.9552
17556TIP3   OH274082   1.872   5.249   1.018 -0.6141 -0.0818 -0.1972
17556TIP3    H174083   1.941   5.301   1.059 -0.7197 -0.0902 -0.0104
17556TIP3    H274084   1.796   5.309   1.014 -0.3626  0.1878 -1.1204
17557TIP3   OH274085   3.814   1.912  12.000 -0.0532 -0.0614 -0.0899
17557TIP3    H174086   3.833   2.006  11.991  0.8333 -0.1060  1.2135
17557TIP3    H274087   3.722   1.903  11.977 -0.4879  1.3270  1.1026
17558TIP3   OH274088   1.018   2.008   1.614  0.3222  0.2743  0.1806
17558TIP3    H174089   1.068   1.986   1.692  0.5737  0.1228 -0.0203
17558TIP3    H274090   1.003   2.102   1.620 -0.9201  0.0296  1.1440
17559TIP3   OH274091   3.732   1.982  14.535 -0.3975 -0.0532 -0.0706
17559TIP3    H174092   3.711   1.898  14.494 -0.7488  0.2681 -0.5547
17559TIP3    H274093   3.651   2.031  14.531 -0.1763  0.3301  0.1654
17560TIP3   OH274094   3.925   6.784  13.627  0.2028 -0.7102 -0.1192
17560TIP3    H174095   3.973   6.709  13.661  2.4084 -0.3846 -2.3588
17560TIP3    H274096   3.989   6.831  13.574 -2.1886  0.6571 -1.8917
17561TIP3   OH274097   3.456   3.928   3.695  0.4897  0.2009 -0.2645
17561TIP3    H174098   3.420   3.883   3.771 -0.8495  2.2253  0.3470
17561TIP3    H274099   3.462   4.020   3.723 -0.1478  0.9968 -2.6465
17562TIP3   OH274100   3.681   4.264  14.038  0.3325 -0.6641 -0.2001
17562TIP3    H174101   3.684   4.186  13.983 -0.2128 -0.9593  0.1803
17562TIP3    H274102   3.625   4.326  13.990 -3.3413 -2.2954  1.7224
17563TIP3   OH274103   2.936   5.291   0.918  0.0558  0.0455 -0.2801
17563TIP3    H174104   2.906   5.222   0.860 -0.1865 -1.4028  1.4952
17563TIP3    H274105   2.860   5.311   0.973  0.9041 -0.2861  1.0622
17564TIP3   OH274106   4.420   1.624  17.229  0.0712 -0.1551 -0.4613
17564TIP3    H174107   4.330   1.607  17.260 -0.1288  1.5136 -0.0276
17564TIP3    H274108   4.410   1.644  17.136  0.0534 -0.4480 -0.5222
17565TIP3   OH274109   4.921   4.563  12.802  0.1852 -0.1636 -0.6905
17565TIP3    H174110   4.970   4.541  12.881  0.2039  0.5325 -0.5053
17565TIP3    H274111   4.989   4.587  12.738  0.0493  2.0533 -0.0477
17566TIP3   OH274112   4.714   5.595   1.369  0.6631  0.7699  0.1530
17566TIP3    H174113   4.775   5.667   1.389 -0.6834  1.6177  1.3156
17566TIP3    H274114   4.685   5.613   1.280  1.3549  0.9090 -0.0501
17567TIP3   OH274115   1.752   5.161   4.871  0.4679  0.4614 -0.1547
17567TIP3    H174116   1.745   5.066   4.877  1.0750  0.4119 -0.1148
17567TIP3    H274117   1.843   5.176   4.846  1.1512  1.1346  2.5097
17568TIP3   OH274118   3.151   4.035   2.369 -0.5792  0.4605 -0.1114
17568TIP3    H174119   3.170   3.944   2.393 -0.9847  0.7000  1.1361
17568TIP3    H274120   3.174   4.040   2.276 -0.0295 -0.7705 -0.0569
17569TIP3   OH274121   0.049   3.630  16.232 -0.7362  0.0604 -0.1063
17569TIP3    H174122   0.120   3.571  16.209 -1.6161  0.2989 -3.7899
17569TIP3    H274123   0.076   3.715  16.197 -2.7219  0.1717 -1.4722
17570TIP3   OH274124   2.822   3.395  14.352 -0.2927  0.4451  0.5363
17570TIP3    H174125   2.807   3.485  14.382  0.3551  0.4387  0.8749
17570TIP3    H274126   2.778   3.340  14.416  0.7495  0.4486  1.2592
17571TIP3   OH274127   6.378   2.692  14.375 -0.3295  0.2846 -1.1022
17571TIP3    H174128   6.449   2.753  14.355  0.7698 -0.9033 -0.9584
17571TIP3    H274129   6.409   2.644  14.452 -0.8509 -0.9188 -1.6257
17572TIP3   OH274130   3.400   6.601  13.000  0.4222  0.3306 -0.6505
17572TIP3    H174131   3.332   6.591  12.934  0.6795 -0.3083 -0.8236
17572TIP3    H274132   3.477   6.562  12.961  0.2879 -1.0818  0.4772
17573TIP3   OH274133   0.766   5.273  13.664 -0.8021  0.3019  0.6796
17573TIP3    H174134   0.710   5.256  13.588 -1.0091 -0.1708  0.9360
17573TIP3    H274135   0.706   5.302  13.732 -0.3376  3.0519 -0.0373
17574TIP3   OH274136   2.313   5.962  16.583 -0.0893  0.1488 -0.2378
17574TIP3    H174137   2.253   5.889  16.596  0.6550 -0.3919  0.1705
17574TIP3    H274138   2.336   5.990  16.671  1.0302 -0.2904 -0.3834
17575TIP3   OH274139   6.338   4.371  13.423 -0.6362 -0.1911  0.7629
17575TIP3    H174140   6.292   4.345  13.344 -0.7578 -0.7053  0.9979
17575TIP3    H274141   6.334   4.466  13.423  0.0929 -0.1541 -0.2794
17576TIP3   OH274142   3.537   0.213   3.386 -0.3794  0.4630  0.3869
17576TIP3    H174143   3.459   0.260   3.357 -0.3982  1.0638  1.4203
17576TIP3    H274144   3.565   0.258   3.466  0.5288 -0.2778  0.4959
17577TIP3   OH274145   2.890   1.205  15.541 -0.7640  0.7470 -0.2165
17577TIP3    H174146   2.934   1.201  15.626  1.2332 -1.1398 -1.2962
17577TIP3    H274147   2.842   1.123  15.535 -0.7405  0.7872 -0.9782
17578TIP3   OH274148   1.761   6.268  13.531 -0.1634  0.4472 -0.2716
17578TIP3    H174149   1.747   6.330  13.603  0.2572  0.7942 -0.4840
17578TIP3    H274150   1.752   6.182  13.571  0.4758  0.6324  0.2837
17579TIP3   OH274151   0.759   1.846  17.229 -0.2872 -0.4217 -0.3285
17579TIP3    H174152   0.725   1.757  17.220 -1.0577 -0.1089 -0.5645
17579TIP3    H274153   0.681   1.901  17.234  0.1840  0.2090  0.1435
17580TIP3   OH274154   1.279   2.081   2.817  0.5662 -0.1579 -0.3397
17580TIP3    H174155   1.365   2.070   2.858  0.3606 -0.5992 -0.0277
17580TIP3    H274156   1.271   2.006   2.758 -0.0463 -0.6687  0.3998
17581TIP3   OH274157   5.373   6.582  14.812 -0.5894  0.3063  0.0093
17581TIP3    H174158   5.290   6.629  14.819 -1.1272 -0.3277 -1.9919
17581TIP3    H274159   5.388   6.573  14.718  3.1903  2.9167  0.2241
17582TIP3   OH274160   2.871   6.573  11.751 -0.3025  0.1498 -0.5009
17582TIP3    H174161   2.893   6.486  11.783 -0.8587 -0.3734 -1.5175
17582TIP3    H274162   2.809   6.558  11.679 -0.9167  1.4084 -0.2559
17583TIP3   OH274163   3.722   5.424   0.077 -0.1661 -1.1869  0.1067
17583TIP3    H174164   3.638   5.396   0.116 -0.8407  1.8594  0.9776
17583TIP3    H274165   3.759   5.483   0.142  2.2032 -1.6960 -0.7551
17584TIP3   OH274166   4.167   4.448   5.831  0.3076 -0.1625 -0.3135
17584TIP3    H174167   4.246   4.421   5.784 -1.4364 -1.3634 -2.6852
17584TIP3    H274168   4.160   4.542   5.814  0.2416 -0.3999 -1.6500
17585TIP3   OH274169   2.769   5.393   6.639  0.0934  0.4210 -0.2372
17585TIP3    H174170   2.779   5.455   6.711  1.2403  1.0165 -0.8897
17585TIP3    H274171   2.858   5.360   6.624 -0.2397 -0.1538 -0.9743
17586TIP3   OH274172   3.006   4.124  14.970  0.1222 -0.3465 -0.3694
17586TIP3    H174173   2.951   4.176  15.029  0.5907 -0.5084  0.2148
17586TIP3    H274174   2.944   4.068  14.923 -0.3216  0.2793 -0.5417
17587TIP3   OH274175   6.737   2.210   0.580  0.4851  0.4335 -0.7266
17587TIP3    H174176   6.648   2.237   0.556  1.2152  2.2475 -1.4490
17587TIP3    H274177   6.757   2.136   0.522 -0.4459  0.1804 -0.7334
17588TIP3   OH274178   3.459   1.799   3.419 -0.2160  0.0131 -0.3804
17588TIP3    H174179   3.405   1.725   3.444 -1.2909  0.5552 -1.0991
17588TIP3    H274180   3.425   1.872   3.471  1.6044 -0.2225  1.2304
17589TIP3   OH274181   5.930   2.903   1.984  0.0917 -0.4149 -0.3566
17589TIP3    H174182   6.015   2.936   1.956 -0.3861 -0.2201 -1.6077
17589TIP3    H274183   5.866   2.948   1.928 -0.9883  0.9112  1.8840
17590TIP3   OH274184   3.620   0.409  15.339 -0.4559  0.3449 -0.4749
17590TIP3    H174185   3.593   0.439  15.252 -0.2534  0.6861 -0.4213
17590TIP3    H274186   3.583   0.321  15.347 -0.7783  0.4529 -0.7648
17591TIP3   OH274187   3.829   1.629   1.762 -0.2915 -0.2267  0.2530
17591TIP3    H174188   3.778   1.682   1.701  1.9329 -0.2576 -1.7055
17591TIP3    H274189   3.765   1.569   1.802 -2.2496  1.7050  0.0711
17592TIP3   OH274190   2.537   1.917  14.557 -0.4487  0.0664 -0.5702
17592TIP3    H174191   2.457   1.867  14.544 -0.0378 -0.5342 -0.7981
17592TIP3    H274192   2.555   1.909  14.650 -0.8854  0.5598 -0.4417
17593TIP3   OH274193   1.022   1.763   5.152  0.4164  0.7962  0.2428
17593TIP3    H174194   1.009   1.735   5.061  0.9994 -1.1227  0.7367
17593TIP3    H274195   1.114   1.748   5.170  0.2213  0.7843  1.2905
17594TIP3   OH274196   0.770   4.103   1.655 -0.4186  0.2455  0.0616
17594TIP3    H174197   0.756   4.078   1.563  0.6203  0.6614 -0.2197
17594TIP3    H274198   0.807   4.025   1.695 -2.1991 -0.4093  0.4830
17595TIP3   OH274199   6.280   3.895  14.553  0.2268 -0.1884  0.0365
17595TIP3    H174200   6.254   3.820  14.500 -1.1642 -1.1852  2.0864
17595TIP3    H274201   6.336   3.858  14.622 -1.3244  0.4678  1.6868
17596TIP3   OH274202   4.708   1.614  11.451  0.8421 -0.3832  0.1106
17596TIP3    H174203   4.799   1.613  11.478  0.3502 -2.2189  1.8087
17596TIP3    H274204   4.658   1.599  11.532 -0.9034 -0.3770 -0.9313
17597TIP3   OH274205   6.030   2.136  15.338  0.0503 -0.8157 -0.0277
17597TIP3    H174206   5.973   2.082  15.283 -0.2071 -1.3253  0.7153
17597TIP3    H274207   6.042   2.084  15.418  1.3354 -0.5915 -0.0584
17598TIP3   OH274208   6.113   6.088   1.791  0.1073 -0.2160 -0.1253
17598TIP3    H174209   6.139   6.074   1.883  0.9478  0.2327 -0.2906
17598TIP3    H274210   6.018   6.098   1.795  0.1529 -0.0178  0.7263
17599TIP3   OH274211   3.517   2.108  13.392 -0.5637  0.3726  0.4789
17599TIP3    H174212   3.552   2.019  13.396 -1.5404 -0.0975 -0.9791
17599TIP3    H274213   3.589   2.160  13.357 -0.1980  0.0411  0.7291
17600TIP3   OH274214   4.074   5.071   5.806 -0.4159 -0.2599 -0.1261
17600TIP3    H174215   4.026   5.025   5.874  0.1742  0.5987  0.8883
17600TIP3    H274216   4.145   5.012   5.781  0.6838  0.3295  1.5784
17601TIP3   OH274217   3.520   2.626  15.320 -0.3721 -0.0321 -0.2993
17601TIP3    H174218   3.490   2.626  15.229 -0.4856  0.7441 -0.2677
17601TIP3    H274219   3.456   2.681  15.366 -0.0470 -0.0314  0.1529
17602TIP3   OH274220   1.565   5.756  13.972  0.4756 -0.3934 -0.6225
17602TIP3    H174221   1.604   5.720  14.051  0.6819 -0.8792 -0.9409
17602TIP3    H274222   1.624   5.827  13.946 -1.4102  2.0665  1.5588
17603TIP3   OH274223   0.105   3.770  10.900  0.0305 -0.6097  0.5235
17603TIP3    H174224   0.172   3.798  10.961 -0.5030 -0.9423  1.2752
17603TIP3    H274225   0.152   3.751  10.819  0.7538 -0.2602  0.8578
17604TIP3   OH274226   6.083   4.823   5.520 -0.3209  0.4451  0.3025
17604TIP3    H174227   6.172   4.834   5.552  0.5946  0.4965 -2.1434
17604TIP3    H274228   6.033   4.792   5.596  1.8602  0.0347  1.5965
17605TIP3   OH274229   6.054   0.926  13.732  0.1935 -0.0926 -0.0569
17605TIP3    H174230   6.084   0.877  13.809  1.3203 -0.8177 -0.9474
17605TIP3    H274231   6.118   0.996  13.723 -0.7775  0.8954  0.5355
17606TIP3   OH274232   4.837   2.343  10.429  0.1543  0.2222 -0.5913
17606TIP3    H174233   4.900   2.271  10.423 -0.8660 -0.4735 -3.8217
17606TIP3    H274234   4.814   2.363  10.338 -1.1403  3.2824  0.3282
17607TIP3   OH274235   6.631   0.737  16.693  0.9750  0.0965  0.1002
17607TIP3    H174236   6.668   0.695  16.771 -0.9475 -0.2173  0.8805
17607TIP3    H274237   6.648   0.675  16.622 -0.7870 -1.5283  1.0285
17608TIP3   OH274238   1.768   2.415  11.570 -0.1318 -0.1982 -0.2274
17608TIP3    H174239   1.791   2.486  11.631  0.3271 -1.2083  0.7944
17608TIP3    H274240   1.698   2.367  11.615  0.0398 -0.8069 -0.6085
17609TIP3   OH274241   6.085   0.371  15.340  0.3307  0.0854 -0.2387
17609TIP3    H174242   6.057   0.379  15.249  1.3804  0.7376 -0.5039
17609TIP3    H274243   6.101   0.460  15.369 -1.1270 -0.0100  0.9640
17610TIP3   OH274244   6.077   2.643  16.657 -0.0895 -0.1055 -0.1507
17610TIP3    H174245   5.995   2.623  16.703 -0.7813 -0.4027 -1.5042
17610TIP3    H274246   6.131   2.687  16.723 -1.0619 -0.5490  0.9571
17611TIP3   OH274247   1.600   0.629  16.402  0.1268 -0.5206  0.1926
17611TIP3    H174248   1.557   0.687  16.465 -2.0268 -1.4294 -0.3900
17611TIP3    H274249   1.682   0.674  16.380 -1.0519  1.8259  0.4778
17612TIP3   OH274250   3.005   4.683  11.091  0.0385  0.2297  0.1169
17612TIP3    H174251   2.952   4.752  11.131  0.6632  0.8275 -0.0670
17612TIP3    H274252   2.942   4.618  11.062 -0.4942  0.2467  1.2048
17613TIP3   OH274253   1.012   0.886   4.599 -1.1326 -0.4232 -0.0104
17613TIP3    H174254   1.005   0.922   4.510 -0.9642 -0.1535  0.0863
17613TIP3    H274255   1.045   0.797   4.586 -2.0510 -0.7286 -0.2854
17614TIP3   OH274256   6.149   0.095   0.737 -0.2582 -0.1023 -0.1077
17614TIP3    H174257   6.145  -0.001   0.739  1.8431 -0.2012  1.8487
17614TIP3    H274258   6.120   0.122   0.825  1.5743  0.9169  0.2032
17615TIP3   OH274259   3.239   4.186  11.740  0.2953  0.0196  0.0411
17615TIP3    H174260   3.203   4.205  11.826 -1.7540  0.6659 -0.9186
17615TIP3    H274261   3.205   4.257  11.684 -1.0626 -2.1378 -1.9647
17616TIP3   OH274262   5.077   2.381  16.914 -0.1089 -0.3233  0.1191
17616TIP3    H174263   5.074   2.325  16.837  2.2820 -1.5576  0.8692
17616TIP3    H274264   5.054   2.324  16.987  1.1718 -0.0771  0.7401
17617TIP3   OH274265   3.623   5.858  15.804  0.1925 -0.7335 -1.1684
17617TIP3    H174266   3.547   5.802  15.818  0.5857 -1.3667 -1.5259
17617TIP3    H274267   3.635   5.859  15.709  0.3363 -0.2382 -1.1467
17618TIP3   OH274268   0.616   1.468   2.447 -0.3826 -0.3317 -0.3872
17618TIP3    H174269   0.550   1.419   2.496 -0.0038 -0.3339  0.1184
17618TIP3    H274270   0.604   1.439   2.356  0.8636 -2.5675  0.1138
17619TIP3   OH274271   4.342   3.404  17.204  0.4810  0.3679  0.7033
17619TIP3    H174272   4.266   3.418  17.148  1.1405 -0.3509 -0.3838
17619TIP3    H274273   4.411   3.459  17.165  0.8805  0.0355  0.9380
17620TIP3   OH274274   4.445   2.482   1.064 -0.2945 -0.0524  0.1771
17620TIP3    H174275   4.419   2.512   0.977 -0.5401 -0.0925  0.2373
17620TIP3    H274276   4.381   2.520   1.123 -1.7502 -2.2078  0.0619
17621TIP3   OH274277   3.788   1.495  16.888 -0.0273  0.4313  0.6121
17621TIP3    H174278   3.856   1.449  16.839 -0.0492  2.5416 -1.4827
17621TIP3    H274279   3.725   1.426  16.911  2.8764 -1.5878  2.8231
17622TIP3   OH274280   1.123   3.308  13.957  0.5650  0.6929  0.2015
17622TIP3    H174281   1.161   3.357  14.030  0.5708 -1.1089  1.4354
17622TIP3    H274282   1.196   3.292  13.898  0.7109  1.5176  0.1475
17623TIP3   OH274283   0.694   0.929   0.681 -0.1247 -0.2115  0.3552
17623TIP3    H174284   0.752   0.995   0.720 -1.0072  0.7582  0.0154
17623TIP3    H274285   0.754   0.862   0.649  0.8345  0.8808 -0.1727
17624TIP3   OH274286   0.307   2.783   4.018 -0.1508  0.1879  0.2336
17624TIP3    H174287   0.374   2.780   3.950 -0.3476 -0.4888  0.0722
17624TIP3    H274288   0.344   2.840   4.086  0.4872 -0.0064  0.0425
17625TIP3   OH274289   4.508   0.659   0.858  0.5186 -0.3560  0.3648
17625TIP3    H174290   4.433   0.667   0.799  1.5367  1.2795 -0.7474
17625TIP3    H274291   4.469   0.658   0.945 -0.7535  1.9311 -0.1203
17626TIP3   OH274292   4.624   0.597  15.221  0.8659 -0.5736  0.4204
17626TIP3    H174293   4.640   0.629  15.310 -2.1277 -2.1929  1.6281
17626TIP3    H274294   4.627   0.501  15.229  0.5309 -0.7332 -1.1998
17627TIP3   OH274295   3.480   5.147  11.672  0.0899 -0.5440  0.1896
17627TIP3    H174296   3.449   5.202  11.744 -1.2045  0.3511 -1.0305
17627TIP3    H274297   3.522   5.073  11.716 -2.2145 -0.9228  1.9077
17628TIP3   OH274298   6.167   3.792  16.122 -0.7829 -0.1142  0.4120
17628TIP3    H174299   6.079   3.828  16.128 -0.8326 -0.3579  1.3011
17628TIP3    H274300   6.192   3.776  16.213 -0.7571 -2.3163  0.0365
17629TIP3   OH274301   3.177   2.754  14.163  0.3494  0.2023  0.2496
17629TIP3    H174302   3.122   2.796  14.097 -1.9563 -0.7628  1.4864
17629TIP3    H274303   3.211   2.826  14.216 -0.6851  0.7418  0.1947
17630TIP3   OH274304   6.667   3.615   4.953 -0.1740  0.0662 -0.0830
17630TIP3    H174305   6.742   3.665   4.922  1.0107 -0.5837  1.6707
17630TIP3    H274306   6.651   3.647   5.042 -1.0923 -0.7617  0.0616
17631TIP3   OH274307   3.750   6.727   1.716 -0.3704  0.0685  0.1110
17631TIP3    H174308   3.843   6.733   1.738 -0.4785 -0.8326  0.8498
17631TIP3    H274309   3.706   6.778   1.784 -0.4661 -0.1565  0.2217
17632TIP3   OH274310   2.254   5.115  13.033 -0.4945  0.0027  0.2309
17632TIP3    H174311   2.341   5.143  13.063  0.0127 -1.4018  0.1295
17632TIP3    H274312   2.208   5.090  13.113  0.2746 -2.1393  0.0515
17633TIP3   OH274313   0.663   2.576  16.089  0.0634  0.2780 -0.1434
17633TIP3    H174314   0.592   2.515  16.110 -1.0203  1.5414 -0.0832
17633TIP3    H274315   0.684   2.618  16.173  1.6664 -0.8758  0.0725
17634TIP3   OH274316   6.589   0.690   4.638  0.1583 -0.1964 -0.3364
17634TIP3    H174317   6.598   0.609   4.587 -0.0655 -0.7538  0.4877
17634TIP3    H274318   6.588   0.660   4.729  0.7811  0.8078 -0.0005
17635TIP3   OH274319   0.193   3.429  14.519 -0.1247  0.0042 -0.0615
17635TIP3    H174320   0.239   3.504  14.481  0.3090 -0.8149 -1.1898
17635TIP3    H274321   0.184   3.367  14.446 -1.3318 -0.6413  0.6114
17636TIP3   OH274322   3.316   6.534   3.375  0.7344  0.1533 -0.1728
17636TIP3    H174323   3.294   6.478   3.301  0.5402 -0.0247  0.0193
17636TIP3    H274324   3.357   6.475   3.439  0.0552  0.1256  0.2454
17637TIP3   OH274325   1.964   4.034  17.012  0.1206  0.4200 -0.5282
17637TIP3    H174326   1.906   4.091  16.961 -0.7516 -0.4357 -0.5100
17637TIP3    H274327   1.939   3.945  16.986  0.3883  0.0050  0.6085
17638TIP3   OH274328   5.527   5.599   2.469  0.8030  0.1190  0.0132
17638TIP3    H174329   5.488   5.632   2.388  0.5331  0.4848  0.2898
17638TIP3    H274330   5.619   5.628   2.464  0.7645  0.2236 -0.1178
17639TIP3   OH274331   4.812   5.133   3.332 -0.3048  0.1510 -0.4978
17639TIP3    H174332   4.723   5.105   3.310 -0.4719  0.5956 -0.3945
17639TIP3    H274333   4.866   5.055   3.318 -0.7927 -0.2723 -0.0201
17640TIP3   OH274334   5.831   2.773   2.589  0.2718 -0.2152  0.1984
17640TIP3    H174335   5.761   2.831   2.560  0.9952  1.0553  0.9729
17640TIP3    H274336   5.896   2.831   2.628  2.2411 -1.2855 -1.4132
17641TIP3   OH274337   5.993   5.371  14.213 -0.4315 -0.0916 -0.5821
17641TIP3    H174338   5.973   5.448  14.267  0.2430  0.9722 -1.8072
17641TIP3    H274339   5.914   5.356  14.162 -1.0881 -1.1294  0.7247
17642TIP3   OH274340   4.629   1.629   2.012 -0.3299 -0.3288 -0.4803
17642TIP3    H174341   4.648   1.702   2.071 -2.8369 -0.4093  0.5222
17642TIP3    H274342   4.689   1.560   2.039  1.7475  1.1681 -1.1294
17643TIP3   OH274343   4.333   4.299  10.462  0.8121 -0.0201 -0.6971
17643TIP3    H174344   4.427   4.281  10.472  0.8859  0.5743 -0.3000
17643TIP3    H274345   4.293   4.212  10.455  1.3174 -0.3003 -0.1502
17644TIP3   OH274346   1.815   6.068   3.184 -0.3579  0.3244  0.4488
17644TIP3    H174347   1.720   6.080   3.175 -0.2907 -0.3735 -1.3814
17644TIP3    H274348   1.842   6.029   3.101  1.4870  0.1841  1.0994
17645TIP3   OH274349   3.299   4.264   1.765 -0.3410  0.3343  0.0562
17645TIP3    H174350   3.278   4.314   1.687  1.1223  1.4427  0.3557
17645TIP3    H274351   3.220   4.213   1.783 -1.1719  1.1081 -1.3385
17646TIP3   OH274352   0.560   0.829   4.753 -0.5304 -0.3674 -0.2456
17646TIP3    H174353   0.634   0.890   4.748 -1.7187  1.1185  0.1248
17646TIP3    H274354   0.588   0.754   4.701  1.0687  0.3599 -0.4756
17647TIP3   OH274355   2.198   1.215   6.273 -0.6101  0.4075 -0.0721
17647TIP3    H174356   2.214   1.165   6.353  0.8021 -1.1189 -1.2737
17647TIP3    H274357   2.110   1.251   6.284  0.6696  2.7442  3.4705
17648TIP3   OH274358   6.716   5.200   6.766  0.7326  0.6194 -0.3119
17648TIP3    H174359   6.644   5.210   6.828  1.1595 -1.5256  0.6034
17648TIP3    H274360   6.758   5.286   6.763 -0.7960  1.4073  0.4858
17649TIP3   OH274361   3.551   3.046   0.465 -0.3662 -0.5987 -0.1174
17649TIP3    H174362   3.498   2.966   0.469 -2.3058  0.6293 -0.7155
17649TIP3    H274363   3.538   3.088   0.550 -0.7788 -0.0227 -0.4656
17650TIP3   OH274364   3.179   6.415  10.949 -0.3790  0.0127 -0.1690
17650TIP3    H174365   3.131   6.496  10.934  1.6503  1.3069  0.0417
17650TIP3    H274366   3.141   6.380  11.030 -1.2951  0.7417 -0.2675
17651TIP3   OH274367   2.186   6.463  14.789 -0.6385 -0.3794  0.4250
17651TIP3    H174368   2.196   6.534  14.852  0.0575 -0.2784  0.2067
17651TIP3    H274369   2.111   6.488  14.736  0.0873  0.5871 -0.1656
17652TIP3   OH274370   6.522   5.236  15.847  0.2614 -0.0594 -0.4570
17652TIP3    H174371   6.508   5.293  15.772 -0.2520  1.8252  1.0394
17652TIP3    H274372   6.450   5.257  15.907  0.4670 -1.7823  0.4195
17653TIP3   OH274373   4.113   4.918   5.381  0.0632 -0.3252  0.3982
17653TIP3    H174374   4.127   5.004   5.420  2.0855  0.1960 -1.3775
17653TIP3    H274375   4.162   4.858   5.438 -1.1989 -0.3056  1.5306
17654TIP3   OH274376   5.791   5.971   4.831 -0.0281  0.5809  0.1348
17654TIP3    H174377   5.790   6.021   4.912  0.2954  1.8460 -0.6414
17654TIP3    H274378   5.770   6.034   4.762  1.7175 -0.0454 -1.0138
17655TIP3   OH274379   2.585   1.054  16.733  0.0660  0.1336  0.0262
17655TIP3    H174380   2.532   0.995  16.680  2.0106 -1.0194 -0.6503
17655TIP3    H274381   2.675   1.038  16.706  0.8232  1.7956  1.4344
17656TIP3   OH274382   0.172   2.729   2.295 -0.3697 -0.1345  0.3657
17656TIP3    H174383   0.077   2.721   2.293 -0.6327  1.5715  3.0675
17656TIP3    H274384   0.190   2.775   2.377  2.8385 -1.0583  0.2362
17657TIP3   OH274385   1.605   3.098  15.304 -0.0581 -0.1695 -0.1965
17657TIP3    H174386   1.548   3.093  15.228 -0.5027 -0.2670  0.1432
17657TIP3    H274387   1.647   3.012  15.308 -0.7815 -0.5081  0.2477
17658TIP3   OH274388   1.533   3.062  13.425 -0.8348 -0.8152  0.3024
17658TIP3    H174389   1.524   2.982  13.477  2.1352 -1.8786 -0.7097
17658TIP3    H274390   1.535   3.031  13.335 -1.6912  0.6087 -0.2098
17659TIP3   OH274391   4.328   3.258   2.884  0.0234 -0.0592  0.1883
17659TIP3    H174392   4.294   3.169   2.895 -0.7567 -0.2356 -3.0951
17659TIP3    H274393   4.300   3.304   2.963 -3.5952 -1.4933 -0.1558
17660TIP3   OH274394   3.227   2.495  11.759  0.0201 -0.0710 -0.6197
17660TIP3    H174395   3.253   2.530  11.844  0.9557 -1.0121 -0.5065
17660TIP3    H274396   3.215   2.401  11.775  1.0482 -0.3955 -1.7119
17661TIP3   OH274397   6.688   5.009   4.056 -0.6685  0.2692 -0.1619
17661TIP3    H174398   6.701   5.005   4.151 -0.4571  1.2254 -0.1411
17661TIP3    H274399   6.637   4.931   4.035 -0.3123 -0.1936  0.6710
17662TIP3   OH274400   1.009   2.986   5.174  0.3410 -0.1370  0.5902
17662TIP3    H174401   0.981   3.061   5.227  0.1748  0.0942  0.1788
17662TIP3    H274402   1.069   3.023   5.110 -2.5030  0.2855 -1.9268
17663TIP3   OH274403   0.593   1.466   5.464  0.2860  0.0281  0.2220
17663TIP3    H174404   0.649   1.420   5.527 -0.5849 -0.0501  0.9598
17663TIP3    H274405   0.508   1.422   5.472 -0.3609  1.3124  0.4179
17664TIP3   OH274406   0.635   0.636   1.138 -0.2976 -0.1233 -0.5099
17664TIP3    H174407   0.661   0.697   1.208 -0.6305 -0.1135 -0.3934
17664TIP3    H274408   0.679   0.669   1.060 -0.3616  0.1837 -0.4173
17665TIP3   OH274409   0.533   0.944   5.139  0.0501  0.2001  0.0084
17665TIP3    H174410   0.499   1.004   5.206 -1.0085 -0.6457  0.2296
17665TIP3    H274411   0.493   0.974   5.058 -2.0904 -1.4342  0.4247
17666TIP3   OH274412   3.397   5.028   4.567  0.4720  0.2449  1.0595
17666TIP3    H174413   3.334   5.025   4.639  1.3247 -1.3136  1.7682
17666TIP3    H274414   3.453   4.952   4.581  0.1695 -0.5439 -1.7217
17667TIP3   OH274415   4.984   3.060  16.607  0.4332  0.0256 -0.3634
17667TIP3    H174416   4.988   3.104  16.522 -0.9290  0.7124 -0.0929
17667TIP3    H274417   4.937   2.978  16.589 -1.0701  0.8051 -0.0288
17668TIP3   OH274418   1.934   2.237  11.455 -0.2500 -0.2082 -0.1369
17668TIP3    H174419   1.957   2.175  11.525  0.0671 -0.3729 -0.3852
17668TIP3    H274420   1.882   2.304  11.499 -1.6031 -1.2674 -0.0812
17669TIP3   OH274421   1.526   1.559   2.084  0.3882 -0.0081  1.0637
17669TIP3    H174422   1.506   1.470   2.053 -0.9900  0.5240  0.3694
17669TIP3    H274423   1.497   1.559   2.175  1.7647 -0.7063  1.5167
17670TIP3   OH274424   4.557   5.403  11.754 -0.2209 -0.4126 -0.0695
17670TIP3    H174425   4.565   5.308  11.748  0.8644 -0.2877 -0.7258
17670TIP3    H274426   4.466   5.419  11.777 -0.2853 -1.6380  0.5315
17671TIP3   OH274427   5.352   4.457   2.030  0.0752  0.2634  0.1133
17671TIP3    H174428   5.292   4.419   2.094 -0.8951 -0.6925 -1.3403
17671TIP3    H274429   5.431   4.404   2.037 -0.9790 -1.5488 -1.3321
17672TIP3   OH274430   3.822   6.219   5.524  0.1073  0.3793  0.4728
17672TIP3    H174431   3.748   6.158   5.526  0.2379  0.1963 -0.1694
17672TIP3    H274432   3.802   6.278   5.451 -0.4753  1.6819  1.6623
17673TIP3   OH274433   4.243   2.915   1.534  0.3111  0.0985  0.2165
17673TIP3    H174434   4.320   2.971   1.541  0.6550 -0.4639  0.9599
17673TIP3    H274435   4.221   2.892   1.624 -0.5040 -0.0478 -0.0132
17674TIP3   OH274436   6.537   6.771   4.374 -0.6291 -0.2710  0.1042
17674TIP3    H174437   6.538   6.816   4.458  0.2754  0.8762 -0.5095
17674TIP3    H274438   6.474   6.700   4.385 -1.1025  0.3615  1.4935
17675TIP3   OH274439   4.830   1.431   0.109  0.0126 -0.1502  0.5053
17675TIP3    H174440   4.875   1.498   0.057 -0.0502 -0.7915 -0.3806
17675TIP3    H274441   4.870   1.437   0.196  0.8812  0.1790  0.0825
17676TIP3   OH274442   1.765   3.530   0.319  0.4352 -0.2134  0.2029
17676TIP3    H174443   1.764   3.560   0.409  3.0886  0.5324  0.0360
17676TIP3    H274444   1.763   3.610   0.267  0.1256 -0.5996 -0.3882
17677TIP3   OH274445   3.405   6.178   5.354 -0.0554 -0.2709 -0.8189
17677TIP3    H174446   3.395   6.182   5.259  0.7932  0.6382 -0.8771
17677TIP3    H274447   3.485   6.127   5.367 -0.3651 -0.7049 -0.5677
17678TIP3   OH274448   3.683   1.363  16.469 -0.0712 -0.6109  0.1606
17678TIP3    H174449   3.726   1.449  16.476  1.1561 -1.2628  0.8005
17678TIP3    H274450   3.727   1.309  16.535 -0.8782 -1.7176 -0.1980
17679TIP3   OH274451   1.836   6.032  10.786 -0.0252  0.6755  0.3363
17679TIP3    H174452   1.928   6.034  10.813  0.1765 -0.3995 -0.2299
17679TIP3    H274453   1.801   6.117  10.813  0.5840  0.2718  2.4710
17680TIP3   OH274454   1.185   0.145   0.558 -0.6235  0.6046 -0.3637
17680TIP3    H174455   1.262   0.178   0.604 -0.7343  1.4148 -0.7614
17680TIP3    H274456   1.200   0.050   0.553  1.7093  1.0382 -2.8445
17681TIP3   OH274457   2.036   2.857   1.316  0.3554  0.2880  0.5425
17681TIP3    H174458   2.080   2.816   1.391 -1.2569 -1.3605  0.6257
17681TIP3    H274459   1.952   2.811   1.310 -1.1957  3.0512  0.1274
17682TIP3   OH274460   0.491   0.014   2.952  0.0619  0.8295  0.3942
17682TIP3    H174461   0.454   0.057   3.030 -0.0560  0.7633  0.3752
17682TIP3    H274462   0.452   0.060   2.878 -1.7125 -0.6872  0.3606
17683TIP3   OH274463   2.971   1.416  15.967  0.3803  0.1408 -0.1920
17683TIP3    H174464   2.890   1.366  15.977 -0.2590  1.0122 -0.9771
17683TIP3    H274465   3.022   1.396  16.046 -0.1767 -1.1715 -0.1521
17684TIP3   OH274466   5.416   3.157  14.845 -0.4475 -0.1997 -0.6985
17684TIP3    H174467   5.402   3.245  14.880  0.3132 -1.6482  3.5210
17684TIP3    H274468   5.507   3.157  14.816 -0.6279  0.5463 -1.2978
17685TIP3   OH274469   3.468   6.775  10.603 -0.3749 -0.1096  0.1177
17685TIP3    H174470   3.395   6.733  10.647  1.0295 -2.7752  0.0121
17685TIP3    H274471   3.451   6.762  10.510 -0.7337  1.0031  0.0164
17686TIP3   OH274472   6.073   5.878   2.343  0.2330 -0.0169  0.0461
17686TIP3    H174473   5.987   5.919   2.350  1.9151  3.9360 -1.0139
17686TIP3    H274474   6.056   5.792   2.303 -2.8393  2.4786 -4.4217
17687TIP3   OH274475   3.099   6.507  15.597 -0.0127 -0.2297  0.1767
17687TIP3    H174476   3.176   6.563  15.594 -1.7856  2.2548 -0.4212
17687TIP3    H274477   3.109   6.458  15.679  2.1110  0.1606  0.1785
17688TIP3   OH274478   0.508   2.362  16.108 -0.1885  0.4935 -0.2146
17688TIP3    H174479   0.534   2.274  16.080 -1.0229  0.8359 -2.2267
17688TIP3    H274480   0.433   2.347  16.165  0.4832 -0.1634  0.5042
17689TIP3   OH274481   3.255   6.399   3.844  0.2555 -0.1082 -0.5803
17689TIP3    H174482   3.328   6.338   3.837 -0.3003 -0.7978 -0.3894
17689TIP3    H274483   3.297   6.485   3.847  1.0328 -0.4626 -1.0350
17690TIP3   OH274484   3.676   1.067   0.016 -0.6045 -0.2874 -0.5035
17690TIP3    H174485   3.757   1.060   0.067 -0.7673 -2.7326 -0.4831
17690TIP3    H274486   3.665   1.160  -0.001  2.6764 -0.0069 -1.2635
17691TIP3   OH274487   2.925   1.544   3.418 -0.2279  0.7003 -0.6458
17691TIP3    H174488   2.985   1.608   3.458  0.8928 -0.4478 -0.4751
17691TIP3    H274489   2.904   1.582   3.333  1.4682  0.6963 -1.0964
17692TIP3   OH274490   2.334   1.676  16.878 -0.0687  0.1365  0.0842
17692TIP3    H174491   2.243   1.704  16.886  0.4526  1.5924  1.1822
17692TIP3    H274492   2.372   1.736  16.813 -0.2270 -1.3495 -1.4031
17693TIP3   OH274493   1.357   4.605   2.654  0.1569 -0.3192 -0.1034
17693TIP3    H174494   1.422   4.655   2.604  0.0435 -0.2856 -0.2200
17693TIP3    H274495   1.335   4.661   2.728  1.4824 -1.0453  0.8387
17694TIP3   OH274496   6.371   4.217   4.784 -0.2690  0.2866 -0.0313
17694TIP3    H174497   6.280   4.247   4.782 -0.5495 -0.6400 -1.4426
17694TIP3    H274498   6.401   4.240   4.872 -2.0068  0.1909  0.6090
17695TIP3   OH274499   0.359   1.282   0.717 -0.0311 -0.1645  0.4382
17695TIP3    H174500   0.303   1.212   0.750  1.5978 -0.6982  2.1363
17695TIP3    H274501   0.419   1.238   0.657 -1.1503  0.3400 -1.0673
17696TIP3   OH274502   3.163   3.666   3.894 -1.0942  0.1248  0.2039
17696TIP3    H174503   3.084   3.685   3.843 -0.4346 -1.5604 -1.5100
17696TIP3    H274504   3.235   3.697   3.840 -0.4484 -0.4704  0.7074
17697TIP3   OH274505   0.624   3.822  12.255  0.2854  0.0303  0.3574
17697TIP3    H174506   0.596   3.877  12.181 -0.0214 -1.6405 -0.7974
17697TIP3    H274507   0.545   3.775  12.281  0.5035  0.2640  1.4669
17698TIP3   OH274508   2.562   6.015   2.740 -0.1218 -0.2578  0.2961
17698TIP3    H174509   2.584   6.098   2.783 -1.9219  0.4335 -0.0671
17698TIP3    H274510   2.502   6.040   2.670  1.0194 -1.6284 -1.2211
17699TIP3   OH274511   3.830   2.066   1.044 -0.0052 -0.6797  0.1836
17699TIP3    H174512   3.793   2.020   0.968 -1.5754 -0.4678  0.7958
17699TIP3    H274513   3.761   2.126   1.072  1.2789  0.6256  0.6244
17700TIP3   OH274514   0.460   1.722   0.569  0.3819 -0.7621  0.5779
17700TIP3    H174515   0.385   1.668   0.593 -2.0330  1.9195 -0.5609
17700TIP3    H274516   0.507   1.737   0.651 -0.2675 -2.5232  1.2934
17701TIP3   OH274517   2.554   3.261   1.455 -0.1786 -0.5814  0.7480
17701TIP3    H174518   2.648   3.245   1.443 -0.3443 -1.1083  0.1121
17701TIP3    H274519   2.548   3.354   1.476  0.5685 -0.7457  1.7705
17702TIP3   OH274520   4.206   4.601  14.636  0.0049 -0.2734  0.5103
17702TIP3    H174521   4.221   4.510  14.611 -0.0035 -0.3821  0.9053
17702TIP3    H274522   4.153   4.637  14.564  1.3244 -0.1518 -0.4157
17703TIP3   OH274523   1.413   5.154  14.416  0.2227  0.0344  0.1927
17703TIP3    H174524   1.496   5.126  14.378 -0.2485 -1.4871  0.2452
17703TIP3    H274525   1.358   5.176  14.341 -0.1468 -1.3813  0.0142
17704TIP3   OH274526   0.629   5.299   5.388 -0.0749  0.1281 -0.2288
17704TIP3    H174527   0.691   5.371   5.378  1.3379 -0.7345  2.1553
17704TIP3    H274528   0.683   5.220   5.386 -1.2769 -0.7161  0.1665
17705TIP3   OH274529   6.426   3.947  12.072 -0.4377  0.0841  0.1850
17705TIP3    H174530   6.445   3.976  12.162 -1.8397  0.8039  0.2536
17705TIP3    H274531   6.511   3.950  12.028  0.1663  0.2588  1.3379
17706TIP3   OH274532   4.676   6.638  12.521  0.7459  0.2817 -0.1632
17706TIP3    H174533   4.629   6.560  12.494  2.8391 -0.9709 -0.2779
17706TIP3    H274534   4.744   6.606  12.580  0.9432  2.1399  0.6643
17707TIP3   OH274535   2.169   4.185  14.003  0.3358 -0.2892 -0.2885
17707TIP3    H174536   2.191   4.141  14.085 -0.2062 -0.2510 -0.1191
17707TIP3    H274537   2.101   4.248  14.027  1.1310  0.6715 -0.5178
17708TIP3   OH274538   0.466   0.090  13.860 -0.3060  0.2542 -0.1360
17708TIP3    H174539   0.465   0.077  13.955  1.7379 -3.2787 -0.5335
17708TIP3    H274540   0.373   0.100  13.836 -0.8204  1.5822  2.2125
17709TIP3   OH274541   4.089   0.930  12.587 -0.2067  0.5350  0.8327
17709TIP3    H174542   4.085   1.013  12.635 -0.0587 -0.3904  2.4974
17709TIP3    H274543   4.056   0.866  12.649 -0.7909 -0.5972 -0.6176
17710TIP3   OH274544   0.660   5.923   3.682  0.2677 -0.4709 -0.0297
17710TIP3    H174545   0.727   5.862   3.713  0.8806 -0.7505 -1.8475
17710TIP3    H274546   0.655   5.908   3.588 -0.4431  1.4537 -0.3273
17711TIP3   OH274547   5.007   0.210  11.193  0.5255 -0.4667 -0.1519
17711TIP3    H174548   5.009   0.301  11.223  1.3512 -0.5440  0.0534
17711TIP3    H274549   5.073   0.206  11.124 -1.5624 -0.2309 -2.2130
17712TIP3   OH274550   0.785   5.465  13.344 -0.6207  0.1609  0.3894
17712TIP3    H174551   0.838   5.540  13.317  0.1397 -0.0819  1.1744
17712TIP3    H274552   0.846   5.408  13.391 -1.3476 -0.6222  0.3983
17713TIP3   OH274553   4.046   1.178   5.466 -0.1465 -0.2605 -0.1229
17713TIP3    H174554   4.007   1.145   5.385 -0.9688  1.9403 -0.6602
17713TIP3    H274555   4.032   1.272   5.463  1.4889  0.0869  1.7040
17714TIP3   OH274556   0.447   2.391   6.354 -0.1108  0.1098  0.4869
17714TIP3    H174557   0.400   2.367   6.433 -1.4418  1.0530 -0.0063
17714TIP3    H274558   0.389   2.452   6.308  1.7350  1.6073  0.0634
17715TIP3   OH274559   5.547   0.718   3.466 -0.7039 -0.8488  0.0465
17715TIP3    H174560   5.505   0.765   3.539  0.7733 -0.4664  0.6586
17715TIP3    H274561   5.554   0.783   3.397  1.6505 -0.0226  1.0113
17716TIP3   OH274562   4.115   2.080  14.610  0.0121  0.0231  0.5845
17716TIP3    H174563   4.184   2.126  14.562  0.8671 -1.8077  0.0502
17716TIP3    H274564   4.068   2.150  14.655  3.4942  1.1383  2.6698
17717TIP3   OH274565   3.763   3.263  15.207 -0.1251 -0.2745 -0.4192
17717TIP3    H174566   3.741   3.345  15.163 -0.3983 -0.6381 -0.9812
17717TIP3    H274567   3.849   3.239  15.172 -0.4715 -0.7134 -0.9941
17718TIP3   OH274568   4.487   5.510   1.855  0.2801  0.2122  0.6121
17718TIP3    H174569   4.529   5.520   1.770  2.0825 -1.5013  1.2671
17718TIP3    H274570   4.408   5.564   1.850  0.9964  1.0669 -1.7097
17719TIP3   OH274571   2.382   2.769  14.746 -0.0117  0.5320 -0.0779
17719TIP3    H174572   2.383   2.674  14.753  1.3513  0.6499  1.8042
17719TIP3    H274573   2.289   2.792  14.743 -0.3482 -0.8876 -1.4190
17720TIP3   OH274574   4.975   0.818  12.920 -0.2019  0.3324 -0.2720
17720TIP3    H174575   4.933   0.746  12.966  1.8545 -1.4129 -1.0572
17720TIP3    H274576   4.998   0.880  12.989 -1.6795  0.1202  0.4430
17721TIP3   OH274577   4.398   6.406  13.483  0.0725 -0.4139  0.1330
17721TIP3    H174578   4.487   6.434  13.505 -0.4226  0.2725  1.3340
17721TIP3    H274579   4.357   6.389  13.568 -1.2327  0.1741 -0.3638
17722TIP3   OH274580   5.283   0.205   3.056  0.1365  0.1448  0.2522
17722TIP3    H174581   5.377   0.220   3.045  0.0419  0.8779  0.4182
17722TIP3    H274582   5.242   0.286   3.026 -0.4034  0.1602  1.0103
17723TIP3   OH274583   1.828   5.621   5.569  0.0535 -0.7694  0.1820
17723TIP3    H174584   1.850   5.714   5.573 -0.5552 -0.5350 -1.6659
17723TIP3    H274585   1.818   5.602   5.476 -0.1049 -2.6271  0.5551
17724TIP3   OH274586   2.961   1.158  14.831  0.4960  0.6519  0.1241
17724TIP3    H174587   2.977   1.095  14.901 -1.9040  1.2396  1.2613
17724TIP3    H274588   2.997   1.240  14.864  0.5216  0.6467  0.1085
17725TIP3   OH274589   5.543   4.368   2.515  0.2076 -0.2484  0.5645
17725TIP3    H174590   5.508   4.336   2.432 -0.9296 -1.3344  1.4502
17725TIP3    H274591   5.465   4.390   2.567  0.8696 -1.2165  1.9812
17726TIP3   OH274592   0.831   3.919  14.600  0.1359 -0.8907 -0.4882
17726TIP3    H174593   0.821   3.896  14.507  1.7476 -1.3427 -0.5640
17726TIP3    H274594   0.924   3.906  14.618 -0.1009 -0.4635  1.1107
17727TIP3   OH274595   0.354   6.559   5.054  0.2803 -0.0997  0.0486
17727TIP3    H174596   0.354   6.521   4.966  1.5784  1.2597 -0.5596
17727TIP3    H274597   0.430   6.617   5.055 -0.9430  1.5061  1.3946
17728TIP3   OH274598   5.723   5.658  11.204  0.0512  0.2310  0.3675
17728TIP3    H174599   5.671   5.609  11.140 -0.9642  0.4851  0.9861
17728TIP3    H274600   5.661   5.721  11.241  1.3528  2.0288 -0.4539
17729TIP3   OH274601   0.297   1.773   4.609 -0.2399 -0.1775 -0.2185
17729TIP3    H174602   0.300   1.810   4.521  0.0462 -0.9619 -0.5520
17729TIP3    H274603   0.261   1.842   4.664  0.7981  0.7823 -0.7223
17730TIP3   OH274604   4.233   4.232   1.494 -0.5374 -0.3427 -0.4380
17730TIP3    H174605   4.288   4.275   1.428  0.9137  0.2086  1.1125
17730TIP3    H274606   4.275   4.147   1.508 -0.0945  0.0611  0.7161
17731TIP3   OH274607   4.027   1.529   0.420  0.3739  0.5332 -0.6276
17731TIP3    H174608   4.069   1.550   0.337  0.2442  2.7579 -0.1730
17731TIP3    H274609   4.078   1.577   0.485  1.2014 -2.1369  0.7338
17732TIP3   OH274610   4.974   6.227  13.885 -0.0389 -0.3408  0.4047
17732TIP3    H174611   4.891   6.222  13.838  0.1314 -1.7893  0.2584
17732TIP3    H274612   5.034   6.270  13.823 -0.9281  1.6981  0.9074
17733TIP3   OH274613   3.923   4.479  14.135  0.0912  0.3095 -0.0913
17733TIP3    H174614   3.839   4.525  14.140 -0.1949 -0.2048 -0.2431
17733TIP3    H274615   3.902   4.388  14.154  0.6673  0.2363  0.2113
17734TIP3   OH274616   0.470   2.605   0.251  0.2725  0.0990  0.2381
17734TIP3    H174617   0.470   2.523   0.301 -0.9373 -0.6544 -0.9735
17734TIP3    H274618   0.385   2.646   0.272  0.3339  0.4337 -0.1611
17735TIP3   OH274619   6.301   0.496   3.998 -0.3501  0.0998  0.0353
17735TIP3    H174620   6.349   0.552   4.059 -0.3578  0.2684 -0.1103
17735TIP3    H274621   6.209   0.509   4.021 -0.2695 -1.3682  1.2987
17736TIP3   OH274622   3.120   3.523  16.993 -0.1431  0.4458 -0.0574
17736TIP3    H174623   3.049   3.551  16.935  0.4478 -0.1398 -1.0751
17736TIP3    H274624   3.128   3.429  16.979  0.1116  0.3174  0.8751
17737TIP3   OH274625   0.105   0.373  15.244 -0.2925 -0.0587 -0.0819
17737TIP3    H174626   0.036   0.385  15.309 -0.1892 -0.0144  0.0203
17737TIP3    H274627   0.098   0.450  15.188  0.0856  0.2722  0.3129
17738TIP3   OH274628   0.268   3.417  14.187 -0.7797 -0.6068  0.1632
17738TIP3    H174629   0.315   3.350  14.138 -0.3210 -0.2457  0.1066
17738TIP3    H274630   0.197   3.445  14.129  0.3848  0.5593 -0.7091
17739TIP3   OH274631   5.502   5.816   4.537  0.1586  0.0105  0.4256
17739TIP3    H174632   5.482   5.878   4.466  0.1214  0.3206  0.7066
17739TIP3    H274633   5.444   5.842   4.608  1.2356  0.6275  1.0893
17740TIP3   OH274634   5.495   6.592  15.041 -0.3829  0.2742  0.0491
17740TIP3    H174635   5.518   6.502  15.065  3.3299  0.7670 -1.3593
17740TIP3    H274636   5.449   6.583  14.958  1.0873 -0.2793 -0.7278
17741TIP3   OH274637   0.076   2.349   2.466 -0.0093 -0.6377 -0.5762
17741TIP3    H174638  -0.002   2.401   2.487 -1.4246 -2.1298 -2.0638
17741TIP3    H274639   0.073   2.277   2.529  1.0978  0.1898  0.4490
17742TIP3   OH274640   5.996   2.335  14.956  0.1872  0.2400  0.1624
17742TIP3    H174641   6.066   2.390  14.920  1.7846 -0.9794  1.3191
17742TIP3    H274642   5.937   2.396  14.999 -0.1148  1.4104 -1.8427
17743TIP3   OH274643   4.593   1.528   5.922 -0.3706  0.5919  0.0514
17743TIP3    H174644   4.668   1.469   5.929 -0.9325 -0.2499 -0.8561
17743TIP3    H274645   4.610   1.597   5.986  0.2345 -0.6166  1.1980
17744TIP3   OH274646   6.625   5.089  16.660  0.4903  0.4057 -0.4195
17744TIP3    H174647   6.664   5.126  16.581 -1.3138 -0.1736 -1.6185
17744TIP3    H274648   6.698   5.046  16.705  1.8218  1.9701 -1.0218
17745TIP3   OH274649   3.935   2.663   0.050  0.2696 -0.5776  0.5413
17745TIP3    H174650   3.841   2.647   0.046  0.1455  0.2239  0.1139
17745TIP3    H274651   3.948   2.714   0.130  0.1379  0.5866 -0.1636
17746TIP3   OH274652   3.862   3.199   4.326  0.3288  0.0894 -0.9575
17746TIP3    H174653   3.827   3.277   4.370  0.0614 -0.9144  0.6517
17746TIP3    H274654   3.924   3.234   4.261 -0.0211  1.6548 -0.4762
17747TIP3   OH274655   4.783   5.162   1.625 -0.5423  0.1852  0.5558
17747TIP3    H174656   4.752   5.212   1.700 -0.3865 -1.1228  1.5025
17747TIP3    H274657   4.721   5.090   1.616 -0.7512  0.5062 -0.7844
17748TIP3   OH274658   1.063   5.971   0.631 -0.3332 -0.0317 -0.0477
17748TIP3    H174659   1.009   6.047   0.607  1.8111  1.1867 -1.2545
17748TIP3    H274660   1.078   5.926   0.548  0.6994 -0.1974  0.2200
17749TIP3   OH274661   2.649   3.211   5.410  0.5020  0.0320 -0.6682
17749TIP3    H174662   2.684   3.297   5.390  0.4528 -0.0368 -1.0554
17749TIP3    H274663   2.721   3.165   5.455  0.5552  0.2440 -0.5388
17750TIP3   OH274664   6.751   6.281   0.263  0.6072  0.4859 -0.3903
17750TIP3    H174665   6.719   6.315   0.180 -0.3747  0.6924  0.0731
17750TIP3    H274666   6.673   6.251   0.309  1.1643  0.2113  0.3892
17751TIP3   OH274667   3.347   1.417   2.268 -0.6355  0.3345  0.3548
17751TIP3    H174668   3.339   1.490   2.329 -3.1351 -1.6171  2.4370
17751TIP3    H274669   3.434   1.380   2.287 -0.7761  0.6597  1.6930
17752TIP3   OH274670   4.969   0.249  16.241 -0.1703  0.5268 -0.0155
17752TIP3    H174671   5.060   0.220  16.242  0.1223  1.4423  0.3199
17752TIP3    H274672   4.973   0.343  16.225 -1.1180  0.3706 -1.2760
17753TIP3   OH274673   6.518   3.652  15.813  0.5550  0.0113  0.1089
17753TIP3    H174674   6.488   3.714  15.880 -0.7518  1.0956 -1.4688
17753TIP3    H274675   6.612   3.644  15.829  0.5045  1.3809  1.1621
17754TIP3   OH274676   5.755   2.887  10.722  0.5341 -0.0768  0.4390
17754TIP3    H174677   5.668   2.919  10.697  0.2157 -1.9349 -0.9537
17754TIP3    H274678   5.753   2.885  10.818 -1.1609 -0.5978  0.4153
17755TIP3   OH274679   0.428   1.306  16.129  0.3514 -0.0857 -0.2007
17755TIP3    H174680   0.393   1.361  16.059  2.6183  0.7181 -0.7442
17755TIP3    H274681   0.400   1.217  16.106 -1.3540  0.5178 -0.5542
17756TIP3   OH274682   1.355   6.111  15.638  0.1788 -0.5854 -0.0929
17756TIP3    H174683   1.283   6.048  15.633 -0.5371  0.0662  1.6791
17756TIP3    H274684   1.423   6.066  15.687  0.1751 -0.4549  0.0315
17757TIP3   OH274685   5.861   3.439   5.130 -0.3908 -0.4843 -0.2730
17757TIP3    H174686   5.790   3.501   5.146 -0.1304 -0.1886 -0.2549
17757TIP3    H274687   5.924   3.455   5.201 -0.3602 -0.8253 -0.2211
17758TIP3   OH274688   6.636   4.023  15.263  0.4307  0.5859 -0.2529
17758TIP3    H174689   6.546   3.991  15.253  0.4243 -0.0091  1.6608
17758TIP3    H274690   6.681   3.989  15.185 -0.7421  0.0059 -0.7002
17759TIP3   OH274691   3.959   0.509   1.555 -0.4842  0.0495 -0.1058
17759TIP3    H174692   3.975   0.589   1.604  0.1408 -0.4860  0.5696
17759TIP3    H274693   4.005   0.522   1.472  0.0783  0.1694  0.2220
17760TIP3   OH274694   4.414   3.041   5.712 -0.7073 -0.4542 -0.0106
17760TIP3    H174695   4.505   3.068   5.701 -0.6053 -1.0885 -0.7270
17760TIP3    H274696   4.412   2.999   5.799 -0.5137  0.3495  0.3859
17761TIP3   OH274697   4.162   3.055   0.603  0.1198 -0.3862 -0.4633
17761TIP3    H174698   4.223   2.982   0.609  1.0532  0.5845  3.0197
17761TIP3    H274699   4.177   3.106   0.683 -1.5521  2.7894 -2.0540
17762TIP3   OH274700   0.937   0.724   2.004  0.3345  0.4100 -0.1486
17762TIP3    H174701   1.022   0.757   2.032  0.1625  0.4310  0.3554
17762TIP3    H274702   0.958   0.655   1.941  0.7748 -0.8080  1.2974
17763TIP3   OH274703   5.372   1.550   4.796  0.3040  0.4546  0.2817
17763TIP3    H174704   5.359   1.644   4.800  1.1935  0.5832  0.2814
17763TIP3    H274705   5.289   1.515   4.762 -0.5348  1.0954  1.6583
17764TIP3   OH274706   5.515   2.440  13.623 -0.2312 -0.1818  0.3842
17764TIP3    H174707   5.561   2.419  13.542 -0.3352 -1.2797  0.6085
17764TIP3    H274708   5.437   2.488  13.595 -0.3417 -0.6877 -0.1706
17765TIP3   OH274709   0.992   5.278  13.834 -0.2109  0.1538 -0.0643
17765TIP3    H174710   0.929   5.275  13.762 -2.7160 -0.1540  2.0531
17765TIP3    H274711   1.000   5.371  13.855 -0.9953  0.0896  0.5296
17766TIP3   OH274712   6.591   5.918   3.684  0.0929 -0.5772  0.3057
17766TIP3    H174713   6.621   6.007   3.701  0.5581 -0.9296  1.4002
17766TIP3    H274714   6.545   5.893   3.764  0.0867 -1.3695  0.0610
17767TIP3   OH274715   4.147   5.282   0.941 -0.3367  0.1168 -0.4298
17767TIP3    H174716   4.238   5.275   0.911  0.2209  1.3367  0.9259
17767TIP3    H274717   4.132   5.376   0.952 -0.9532 -0.2078  1.7885
17768TIP3   OH274718   0.869   4.370   0.113  0.2825 -0.5287  0.1093
17768TIP3    H174719   0.944   4.366   0.053  1.5523 -0.2810  1.6488
17768TIP3    H274720   0.819   4.446   0.084  1.3455  0.0931 -0.1136
17769TIP3   OH274721   2.004   1.191  15.504 -0.2514 -0.6282  0.4375
17769TIP3    H174722   1.946   1.248  15.453  1.7188  0.6655 -0.4358
17769TIP3    H274723   2.025   1.242  15.582  0.9159 -0.4523  0.0162
17770TIP3   OH274724   5.279   3.946   3.926  0.3493  0.2722 -0.1181
17770TIP3    H174725   5.362   3.902   3.909  0.6100  0.1302  1.4852
17770TIP3    H274726   5.271   4.011   3.855  1.6505  0.0519 -0.4679
17771TIP3   OH274727   5.951   0.705  11.505 -0.2785 -0.2802 -0.2183
17771TIP3    H174728   6.023   0.767  11.514  0.1261 -0.8602  0.5660
17771TIP3    H274729   5.993   0.619  11.507 -0.8547 -0.5937 -1.0858
17772TIP3   OH274730   3.990   1.822  16.794 -0.2067 -0.4681 -0.0906
17772TIP3    H174731   3.966   1.914  16.809 -1.4647 -1.0976  1.9259
17772TIP3    H274732   3.982   1.781  16.880  0.0658 -2.5509 -1.0328
17773TIP3   OH274733   4.686   6.149  15.548 -0.0025  0.0372 -0.3335
17773TIP3    H174734   4.754   6.215  15.562 -0.5088  0.2659  1.2143
17773TIP3    H274735   4.604   6.198  15.550 -0.3155 -0.4753 -0.3932
17774TIP3   OH274736   0.772   1.237  15.041 -0.1708  0.5489  0.2831
17774TIP3    H174737   0.694   1.261  15.092 -0.9106 -1.2863  0.0659
17774TIP3    H274738   0.808   1.161  15.087 -0.9531 -1.2469 -1.9970
17775TIP3   OH274739   1.414   2.324   1.915  0.5003  0.0671  0.1973
17775TIP3    H174740   1.446   2.269   1.987  1.2963  0.4726  0.1587
17775TIP3    H274741   1.466   2.404   1.921  1.1427 -0.2279 -1.3332
17776TIP3   OH274742   3.834   1.819   5.621  0.5582 -0.3259 -0.1219
17776TIP3    H174743   3.878   1.761   5.684 -0.0879 -0.5735  0.1047
17776TIP3    H274744   3.772   1.869   5.674  2.0517  1.5641 -0.0884
17777TIP3   OH274745   1.253   0.989  16.172 -0.4730  0.1312 -0.2266
17777TIP3    H174746   1.215   1.048  16.107 -0.4077 -0.1983 -0.5658
17777TIP3    H274747   1.345   0.981  16.147 -0.2541  0.6633  0.3971
17778TIP3   OH274748   1.397   2.533   3.295 -0.7914  0.4418  0.1589
17778TIP3    H174749   1.302   2.528   3.305 -0.9103  1.9469 -0.1540
17778TIP3    H274750   1.431   2.528   3.385 -1.1481 -0.4171  0.2474
17779TIP3   OH274751   1.283   3.947  13.421  0.3597 -0.0728  0.5438
17779TIP3    H174752   1.344   3.912  13.486  0.7457  2.2388  1.4614
17779TIP3    H274753   1.196   3.935  13.461  0.4845  0.0135  0.8409
17780TIP3   OH274754   0.419   2.256  12.592  0.7655 -0.5254  0.4013
17780TIP3    H174755   0.477   2.285  12.661  0.4533  0.1579  0.3750
17780TIP3    H274756   0.437   2.315  12.518  0.8597 -1.0350  0.0116
17781TIP3   OH274757   1.212   5.372  15.769  0.0817 -0.0428 -0.4591
17781TIP3    H174758   1.216   5.445  15.706 -1.5435  0.2420 -0.2668
17781TIP3    H274759   1.119   5.352  15.776  0.2210  0.0160  1.9613
17782TIP3   OH274760   1.305   6.466   1.652  0.0298 -0.3618  0.2428
17782TIP3    H174761   1.390   6.506   1.634  0.2190 -0.3276  1.2095
17782TIP3    H274762   1.323   6.397   1.716 -0.7546  0.0796  0.9526
17783TIP3   OH274763   6.352   5.686  15.578 -0.4470  1.0721  0.2047
17783TIP3    H174764   6.412   5.630  15.529  0.5141  2.4430 -0.1994
17783TIP3    H274765   6.265   5.647  15.563  0.1458  0.0009 -0.4873
17784TIP3   OH274766   3.063   1.964  13.314 -0.7277 -0.3079  0.4607
17784TIP3    H174767   2.983   1.962  13.261  0.4355  2.8252 -1.4994
17784TIP3    H274768   3.124   1.908  13.266 -1.0382 -1.0277  0.8804
17785TIP3   OH274769   3.853   2.031  12.357 -0.6119 -0.2700  0.1594
17785TIP3    H174770   3.793   1.957  12.370 -0.6421 -0.5773 -1.6948
17785TIP3    H274771   3.940   1.995  12.374 -0.6491 -0.6801 -0.4866
17786TIP3   OH274772   4.641   2.869  16.277 -0.3716  0.7036  0.9410
17786TIP3    H174773   4.615   2.924  16.203  0.1124 -1.8362 -1.1892
17786TIP3    H274774   4.563   2.866  16.333 -0.8866  2.3056  0.3338
17787TIP3   OH274775   2.191   4.090  13.575  0.2847  0.4324  0.7593
17787TIP3    H174776   2.160   4.044  13.497 -1.8885 -1.0410  2.4462
17787TIP3    H274777   2.188   4.183  13.551  0.7290 -0.0620 -1.2799
17788TIP3   OH274778   2.633   0.170   2.185 -0.5765 -0.0332  0.1035
17788TIP3    H174779   2.710   0.217   2.151 -0.4059  1.4488  2.4441
17788TIP3    H274780   2.664   0.129   2.265 -1.9773 -0.2452  0.5369
17789TIP3   OH274781   2.384   3.962   3.164 -1.1534  0.2920 -0.0915
17789TIP3    H174782   2.405   3.886   3.109  1.0644  1.4992 -0.9631
17789TIP3    H274783   2.424   3.942   3.248 -1.0337  0.2451 -0.1591
17790TIP3   OH274784   0.553   6.348  15.899 -0.2664  0.8158 -0.3066
17790TIP3    H174785   0.634   6.387  15.933 -1.5446  2.6529  0.7183
17790TIP3    H274786   0.518   6.414  15.840 -1.6274  0.5581  0.1854
17791TIP3   OH274787   1.726   2.367   3.093 -0.3623  0.1503 -0.3007
17791TIP3    H174788   1.784   2.331   3.160 -1.6998  4.7419  3.5411
17791TIP3    H274789   1.785   2.394   3.022  1.3981 -1.7376  0.3722
17792TIP3   OH274790   5.980   0.232   0.392 -0.4245 -0.7690  0.3968
17792TIP3    H174791   5.944   0.230   0.481  2.2384 -0.1166  1.5339
17792TIP3    H274792   5.949   0.315   0.355 -0.9334 -0.6979  0.9843
17793TIP3   OH274793   0.383   5.231  14.872 -0.8830 -0.3039  0.2211
17793TIP3    H174794   0.359   5.248  14.963 -3.0619 -1.0390 -0.1911
17793TIP3    H274795   0.478   5.240  14.870 -0.8428 -0.0213  2.5141
17794TIP3   OH274796   2.152   0.035  12.650  0.0168 -0.1982 -0.1467
17794TIP3    H174797   2.215   0.033  12.578  1.3091 -0.6802  0.9942
17794TIP3    H274798   2.107   0.119  12.640  0.7591  0.1006 -1.0372
17795TIP3   OH274799   3.221   6.199   2.708  0.7890 -0.1708 -0.1051
17795TIP3    H174800   3.260   6.116   2.734 -0.9890 -0.9730  0.0944
17795TIP3    H274801   3.132   6.196   2.743  0.4128  1.4456 -0.8484
17796TIP3   OH274802   3.295   1.561  11.117 -0.2514 -0.3948  0.1410
17796TIP3    H174803   3.270   1.653  11.108 -1.2197 -0.6793 -0.0986
17796TIP3    H274804   3.285   1.525  11.029 -1.4925 -1.1292  0.5670
17797TIP3   OH274805   1.454   2.213  15.072 -0.0745  0.2725  0.0523
17797TIP3    H174806   1.359   2.227  15.078 -0.3923 -1.6832  0.1819
17797TIP3    H274807   1.487   2.234  15.159 -0.5060  0.2218  0.2300
17798TIP3   OH274808   0.425   5.139   3.130 -0.1626 -0.4489 -0.2002
17798TIP3    H174809   0.483   5.065   3.147  0.1966 -0.3469 -0.9616
17798TIP3    H274810   0.473   5.215   3.162  1.2195 -0.0501 -3.0710
17799TIP3   OH274811   0.247   3.825   2.615  0.1200 -0.0459 -0.0143
17799TIP3    H174812   0.311   3.759   2.588  0.4915  0.4270 -0.2973
17799TIP3    H274813   0.268   3.842   2.707 -0.3170 -0.7061  0.2141
17800TIP3   OH274814   4.314   0.121  15.717  0.1490 -0.2802  0.2039
17800TIP3    H174815   4.291   0.214  15.717 -0.2815 -0.3190 -3.6037
17800TIP3    H274816   4.231   0.076  15.729  0.4388 -0.2582  2.7638
17801TIP3   OH274817   5.637   0.174   1.503  0.3958  0.0986  0.2468
17801TIP3    H174818   5.556   0.128   1.481  0.7607 -1.4475  2.0770
17801TIP3    H274819   5.686   0.176   1.421 -0.5541 -0.8820 -0.3576
17802TIP3   OH274820   0.202   0.354   3.121 -0.4454  0.3360  0.5229
17802TIP3    H174821   0.150   0.428   3.089  0.2790 -0.0185 -1.5401
17802TIP3    H274822   0.291   0.389   3.128 -0.1892 -0.2119 -0.0058
17803TIP3   OH274823   0.352   5.802  15.207  0.5875  0.6257  0.3150
17803TIP3    H174824   0.426   5.784  15.266 -0.4877 -0.2930  1.4008
17803TIP3    H274825   0.307   5.876  15.247 -0.3074 -0.1795  0.8188
17804TIP3   OH274826   4.396   6.758   0.229 -0.3600  0.3690 -0.0348
17804TIP3    H174827   4.431   6.688   0.174  0.0864  0.9900 -0.5405
17804TIP3    H274828   4.375   6.714   0.312  2.5074  0.1460  0.6256
17805TIP3   OH274829   5.767   4.928   1.911 -0.0624  0.3223  0.0973
17805TIP3    H174830   5.859   4.944   1.889  0.4303  0.5279  2.2053
17805TIP3    H274831   5.730   4.888   1.833  1.9182 -0.0903 -0.6517
17806TIP3   OH274832   6.147   0.303  12.801 -0.3654  0.3217 -0.0144
17806TIP3    H174833   6.213   0.256  12.851  0.7925  1.0284 -0.8575
17806TIP3    H274834   6.139   0.388  12.844 -1.1612  0.0202  0.4424
17807TIP3   OH274835   4.444   1.382   2.534 -0.1423 -0.7097 -0.2059
17807TIP3    H174836   4.409   1.410   2.619 -1.0821 -0.5313 -0.6414
17807TIP3    H274837   4.526   1.337   2.555  0.2591  0.4189  0.6926
17808TIP3   OH274838   0.418   1.453  13.617 -0.6067  0.4577  0.2075
17808TIP3    H174839   0.388   1.369  13.582 -0.7457  0.3370  0.6133
17808TIP3    H274840   0.445   1.433  13.707  0.7686  0.5426 -0.1673
17809TIP3   OH274841   0.497   4.841   0.144  0.4527  0.1028 -0.0987
17809TIP3    H174842   0.584   4.850   0.104  0.7154 -0.6752  0.2798
17809TIP3    H274843   0.513   4.857   0.237  0.0817  0.5591 -0.1133
17810TIP3   OH274844   3.573   1.897  16.561 -0.4559  0.1350 -0.3601
17810TIP3    H174845   3.541   1.987  16.552 -0.2451  0.0266 -2.3407
17810TIP3    H274846   3.668   1.905  16.567 -0.4336  0.0405 -0.5843
17811TIP3   OH274847   1.213   3.631   5.708  0.6516 -0.0152  0.1941
17811TIP3    H174848   1.229   3.569   5.638  0.9339  0.1745  0.0888
17811TIP3    H274849   1.152   3.586   5.767 -0.4275  0.2433 -0.7220
17812TIP3   OH274850   3.606   4.985   5.868  0.3542 -0.2523 -0.4197
17812TIP3    H174851   3.545   4.912   5.875  1.8261 -1.4370  0.0575
17812TIP3    H274852   3.559   5.050   5.814 -1.3765 -1.0751  0.0722
17813TIP3   OH274853   4.147   2.306   2.986  0.3747 -0.9197 -0.0464
17813TIP3    H174854   4.212   2.247   3.024 -1.2469 -2.0434  1.0502
17813TIP3    H274855   4.148   2.383   3.042  2.1017 -0.1142 -1.1555
17814TIP3   OH274856   4.647   5.504  14.513  0.0364  0.0162  0.1545
17814TIP3    H174857   4.609   5.583  14.552  2.1247  0.5271  1.2390
17814TIP3    H274858   4.695   5.536  14.437  1.4755 -0.0961  1.0005
17815TIP3   OH274859   1.371   0.384  11.655  0.4816 -0.4289 -0.3403
17815TIP3    H174860   1.423   0.431  11.720  0.3856 -1.9000  0.8276
17815TIP3    H274861   1.285   0.376  11.695  0.4578 -1.4468 -0.5752
17816TIP3   OH274862   0.323   4.568  12.857  0.1996  0.0668 -0.2280
17816TIP3    H174863   0.354   4.515  12.931  0.9996 -0.1704 -0.7250
17816TIP3    H274864   0.229   4.553  12.854  0.7437 -3.5101 -2.0206
17817TIP3   OH274865   3.712   0.261   2.091 -0.3821 -0.6009 -0.3695
17817TIP3    H174866   3.638   0.237   2.147 -0.5257 -1.8800 -1.1068
17817TIP3    H274867   3.700   0.355   2.074 -0.8479 -0.4080  0.9686
17818TIP3   OH274868   4.090   2.805  12.434 -0.1222  0.6856 -0.1089
17818TIP3    H174869   4.114   2.832  12.346  0.4397  0.4540 -0.0343
17818TIP3    H274870   4.043   2.722  12.422  0.4886  0.3420 -0.1511
17819TIP3   OH274871   5.586   6.391  14.375  0.1437 -0.1240 -0.0350
17819TIP3    H174872   5.678   6.418  14.371 -0.0367  0.4787 -0.1156
17819TIP3    H274873   5.585   6.304  14.335  0.6082  0.0655 -0.4692
17820TIP3   OH274874   1.368   1.871   1.671 -0.3139  0.2230 -0.5575
17820TIP3    H174875   1.333   1.930   1.738  2.9215  3.8216 -1.8686
17820TIP3    H274876   1.431   1.817   1.717 -1.9475 -1.0034  0.2896
17821TIP3   OH274877   4.005   4.220   4.611 -0.2226 -0.1541  0.2226
17821TIP3    H174878   4.004   4.186   4.700  2.1846 -2.2342 -0.4701
17821TIP3    H274879   4.061   4.297   4.615 -1.5822  0.8304  0.8162
17822TIP3   OH274880   4.346   1.779  12.331  0.4716 -0.0189  0.5951
17822TIP3    H174881   4.325   1.871  12.315 -1.9555 -0.9847 -2.4682
17822TIP3    H274882   4.429   1.765  12.286 -1.1571 -0.1981 -2.5183
17823TIP3   OH274883   3.999   1.853   3.612 -0.2403  0.5085  0.1822
17823TIP3    H174884   4.036   1.827   3.528 -1.9753 -1.2186 -0.0788
17823TIP3    H274885   4.072   1.843   3.674 -0.0635 -2.2627 -0.4071
17824TIP3   OH274886   3.933   4.388  15.935 -0.5335  0.0517 -0.2334
17824TIP3    H174887   4.008   4.428  15.892 -0.4262  0.2900  0.1714
17824TIP3    H274888   3.901   4.323  15.873  1.5309 -1.8117  0.5896
17825TIP3   OH274889   0.807   0.060  13.959 -0.3524  0.4945 -0.3147
17825TIP3    H174890   0.813  -0.029  13.996  0.9584  0.8280  0.3000
17825TIP3    H274891   0.737   0.101  14.009  0.9050  0.6947  1.3284
17826TIP3   OH274892   4.073   2.880   5.795 -0.1920  0.2930  0.8133
17826TIP3    H174893   3.981   2.907   5.796 -0.4400 -0.5414  0.5133
17826TIP3    H274894   4.120   2.957   5.762 -0.7816  0.7156  0.9490
17827TIP3   OH274895   5.222   4.470   0.080 -0.7208  0.6119 -0.1082
17827TIP3    H174896   5.309   4.509   0.072 -0.4198 -0.3859 -1.9916
17827TIP3    H274897   5.213   4.452   0.173  1.3389  0.2007  0.0492
17828TIP3   OH274898   1.687   2.668  14.783 -0.3065 -1.1354  0.0125
17828TIP3    H174899   1.649   2.604  14.843 -1.8709 -0.5764 -0.3781
17828TIP3    H274900   1.612   2.712  14.743  0.7479  0.2761 -0.4507
17829TIP3   OH274901   0.305   4.792  11.916  0.8438  0.4223  0.0689
17829TIP3    H174902   0.369   4.770  11.849  0.2359 -1.2533  0.0217
17829TIP3    H274903   0.222   4.798  11.870  0.5686  0.1377  0.5144
17830TIP3   OH274904   6.547   1.479  16.656 -0.0323  0.0786 -0.1923
17830TIP3    H174905   6.510   1.425  16.587 -0.9905  0.1960  0.2276
17830TIP3    H274906   6.499   1.454  16.735 -1.6661  2.6949 -0.2952
17831TIP3   OH274907   4.730   6.779  13.750 -0.6865 -0.1599 -0.1086
17831TIP3    H174908   4.697   6.692  13.773 -2.3809  0.2153 -1.0140
17831TIP3    H274909   4.763   6.769  13.660  0.4360 -0.1967  0.2989
17832TIP3   OH274910   4.418   6.639   3.059  0.3416 -0.6401  0.3167
17832TIP3    H174911   4.333   6.668   3.026  0.6735 -1.3914 -1.2170
17832TIP3    H274912   4.397   6.563   3.114  0.0869 -1.2056 -0.5655
17833TIP3   OH274913   2.566   6.361   1.631  1.0222  0.4669  0.5241
17833TIP3    H174914   2.621   6.361   1.553  0.9472  2.4457  0.4580
17833TIP3    H274915   2.477   6.348   1.598  1.0925  0.3434  0.3799
17834TIP3   OH274916   4.235   0.286   5.061  0.4780  0.5997  0.3330
17834TIP3    H174917   4.155   0.236   5.047  0.9018 -0.2800  1.0480
17834TIP3    H274918   4.212   0.349   5.129  0.7984 -0.5974  1.5636
17835TIP3   OH274919   1.978   4.342  14.132  0.0171 -0.1420  0.4940
17835TIP3    H174920   1.951   4.434  14.134 -0.8524 -0.3687 -0.6832
17835TIP3    H274921   1.912   4.298  14.078  0.1456 -1.5576  1.4736
17836TIP3   OH274922   4.052   4.983   3.815  0.0210  0.1728  0.2020
17836TIP3    H174923   4.090   5.017   3.896 -1.8067  1.6558  0.4647
17836TIP3    H274924   4.105   5.021   3.745  0.7829 -0.0499  0.6581
17837TIP3   OH274925   5.480   4.714  12.157 -0.3608  0.2788 -0.3589
17837TIP3    H174926   5.386   4.697  12.150 -0.4006 -0.0520  0.8248
17837TIP3    H274927   5.502   4.764  12.078 -1.6233  0.7725 -0.3976
17838TIP3   OH274928   2.465   1.276  13.601  0.9576  0.0963  0.0867
17838TIP3    H174929   2.494   1.245  13.687  3.5750  1.7368 -0.1741
17838TIP3    H274930   2.435   1.365  13.616  0.8600  0.1821 -0.6018
17839TIP3   OH274931   4.522   1.357  15.153  0.4259  0.0424 -0.0576
17839TIP3    H174932   4.604   1.401  15.131  0.9451 -0.8192  0.1230
17839TIP3    H274933   4.498   1.392  15.239  0.5448  0.3710 -0.1561
17840TIP3   OH274934   0.943   6.226  12.695 -0.1733 -0.2717  0.7256
17840TIP3    H174935   0.998   6.269  12.761 -0.6722 -1.0366  1.6602
17840TIP3    H274936   0.855   6.230  12.732 -0.5071 -0.4363 -0.0496
17841TIP3   OH274937   6.507   5.082  15.420  1.0304 -0.0064 -0.2787
17841TIP3    H174938   6.413   5.074  15.405  1.2506 -0.4016 -1.4422
17841TIP3    H274939   6.515   5.154  15.483 -0.0687 -0.2137  0.1082
17842TIP3   OH274940   3.919   5.683  12.798  0.1946 -0.0284  0.1462
17842TIP3    H174941   3.920   5.776  12.779  0.5042  0.2631  1.5498
17842TIP3    H274942   3.838   5.651  12.757 -0.4105  1.0265  0.4951
17843TIP3   OH274943   6.348   5.764   2.791 -0.1546 -0.3570  0.7028
17843TIP3    H174944   6.345   5.766   2.696  0.2833  0.5447  0.7027
17843TIP3    H274945   6.421   5.705   2.812  1.2325  1.2268  0.4483
17844TIP3   OH274946   6.077   4.844   2.336 -0.1767 -0.1270 -0.0850
17844TIP3    H174947   6.113   4.875   2.419 -0.2995  2.2011 -0.8579
17844TIP3    H274948   5.985   4.827   2.355 -0.3282  0.9104  0.1572
17845TIP3   OH274949   3.602   3.900  11.913  1.2831  0.1199  0.0947
17845TIP3    H174950   3.690   3.877  11.941  2.1192  1.7378 -1.0912
17845TIP3    H274951   3.569   3.821  11.870  2.3344 -0.3434  0.1219
17846TIP3   OH274952   6.722   2.796  12.372  0.2139  0.4130 -0.3778
17846TIP3    H174953   6.744   2.726  12.435 -0.4836  0.2978 -0.2619
17846TIP3    H274954   6.737   2.756  12.286  1.0864  0.5426 -0.2969
17847TIP3   OH274955   0.560   0.101  11.921 -0.3448 -0.2122 -0.7767
17847TIP3    H174956   0.549   0.127  12.013 -1.0736 -0.9671 -0.6469
17847TIP3    H274957   0.626   0.031  11.925 -0.5648 -0.4212 -0.8009
17848TIP3   OH274958   3.559   4.670  15.555 -0.4420 -0.3551 -0.3353
17848TIP3    H174959   3.532   4.713  15.473  0.6579  1.1789  0.0834
17848TIP3    H274960   3.503   4.708  15.622  1.0201  0.9978  0.1506
17849TIP3   OH274961   4.190   1.630   4.283 -0.3523  0.0414  0.1254
17849TIP3    H174962   4.103   1.653   4.250  0.7699  1.4996 -1.9030
17849TIP3    H274963   4.221   1.560   4.225 -0.3515 -0.8382  1.1604
17850TIP3   OH274964   5.445   3.237  11.459  0.3794  0.4299 -0.2476
17850TIP3    H174965   5.434   3.232  11.364  0.2655  0.2783 -0.2262
17850TIP3    H274966   5.492   3.320  11.472  1.2972 -0.0345 -0.5171
17851TIP3   OH274967   5.473   3.398   0.675 -0.1953  0.5283 -0.2111
17851TIP3    H174968   5.399   3.397   0.735 -1.3458  0.9572 -1.5946
17851TIP3    H274969   5.514   3.484   0.689 -0.1318  0.4104  0.3383
17852TIP3   OH274970   5.396   2.704   5.120 -0.0671  0.0852 -0.4047
17852TIP3    H174971   5.380   2.659   5.037  2.4840 -0.5479 -0.5692
17852TIP3    H274972   5.340   2.782   5.115  0.2914  0.2375 -2.8556
17853TIP3   OH274973   5.993   5.382  11.189  1.1473 -0.2275  0.2061
17853TIP3    H174974   6.005   5.421  11.276  1.2053 -0.5661  0.3532
17853TIP3    H274975   5.901   5.355  11.187  0.7993  0.9533 -0.3319
17854TIP3   OH274976   5.240   5.723  16.382 -0.0190 -0.1646 -0.1542
17854TIP3    H174977   5.160   5.704  16.431 -1.0694 -0.5859 -1.9979
17854TIP3    H274978   5.257   5.815  16.399 -0.4820 -0.2495  0.8234
17855TIP3   OH274979   0.175   1.099  10.383 -0.0867  0.3339 -0.3442
17855TIP3    H174980   0.132   1.175  10.422  0.5541 -0.2243  1.4955
17855TIP3    H274981   0.236   1.137  10.319  0.0945  1.3784  0.4290
17856TIP3   OH274982   0.866   5.190   6.051 -0.2576  0.3590  0.2555
17856TIP3    H174983   0.868   5.133   5.975  1.5645 -0.8184  1.1809
17856TIP3    H274984   0.924   5.263   6.029 -2.4350  1.8420 -0.8485
17857TIP3   OH274985   5.169   1.637  11.939 -0.4441 -0.3774 -0.2444
17857TIP3    H174986   5.150   1.550  11.903  1.3948 -1.4928  1.4249
17857TIP3    H274987   5.084   1.669  11.970 -1.4317 -0.8510 -2.3300
17858TIP3   OH274988   1.588   0.768   2.767 -0.7385 -0.3426  0.0136
17858TIP3    H174989   1.669   0.801   2.728 -0.3752 -0.1060  0.9593
17858TIP3    H274990   1.548   0.845   2.808 -1.2065 -0.5508 -0.0511
17859TIP3   OH274991   2.274   1.849   5.416 -0.0306 -0.5133 -0.0938
17859TIP3    H174992   2.317   1.767   5.395  2.5662  0.7181  0.2558
17859TIP3    H274993   2.313   1.876   5.499  1.0040  2.3168 -1.4507
17860TIP3   OH274994   2.781   1.683  15.204 -0.1424 -0.0180 -0.1612
17860TIP3    H174995   2.841   1.643  15.267  0.3846  2.1472  0.7914
17860TIP3    H274996   2.709   1.717  15.257 -1.9559 -2.0914 -1.2450
17861TIP3   OH274997   5.364   1.775  11.778 -0.5602 -0.4958  0.1186
17861TIP3    H174998   5.313   1.837  11.727 -0.0855 -0.0246  0.2190
17861TIP3    H274999   5.303   1.744  11.845 -0.9608 -0.5609 -0.2688
17862TIP3   OH275000   0.586   1.785   0.826  0.6032  0.2234  0.2836
17862TIP3    H175001   0.522   1.825   0.885 -2.0052 -1.1849 -1.5168
17862TIP3    H275002   0.622   1.711   0.877 -0.9126 -0.3929  0.4950
17863TIP3   OH275003   5.422   2.941  11.094 -0.2456  0.5636 -0.0459
17863TIP3    H175004   5.461   2.947  11.006 -1.4707  2.2645 -0.5055
17863TIP3    H275005   5.373   2.858  11.092  0.7355 -0.0184 -0.5361
17864TIP3   OH275006   1.593   4.169  11.835  0.4191  0.5080  0.1476
17864TIP3    H175007   1.532   4.149  11.906  1.6969  0.5465  1.2789
17864TIP3    H275008   1.633   4.252  11.861 -0.1238  1.2602 -1.3317
17865TIP3   OH275009   6.020   0.992  12.260  0.3813 -0.2869  0.0149
17865TIP3    H175010   6.018   0.949  12.345  0.5546 -0.8159 -0.2445
17865TIP3    H275011   5.983   0.928  12.200  1.5539 -0.4580 -0.5418
17866TIP3   OH275012   1.560   0.126   2.389 -0.1963 -0.0819  0.5285
17866TIP3    H175013   1.581   0.219   2.390  0.3844 -0.1943 -0.4256
17866TIP3    H275014   1.493   0.117   2.321 -0.0506 -0.4004  0.4248
17867TIP3   OH275015   1.082   5.749   1.061  0.0375 -0.6592 -0.0018
17867TIP3    H175016   1.080   5.667   1.111 -0.5717 -0.0924  0.9043
17867TIP3    H275017   1.175   5.759   1.037  0.1362 -1.5510 -0.0358
17868TIP3   OH275018   6.339   1.418   5.392 -0.4316 -0.5269  0.3240
17868TIP3    H175019   6.313   1.388   5.305  0.7038  1.1565 -0.6207
17868TIP3    H275020   6.260   1.458   5.428 -0.2033  1.1232 -0.9893
17869TIP3   OH275021   6.693   6.048   4.448 -0.3008  0.4736  0.1194
17869TIP3    H175022   6.636   6.046   4.524  0.1222 -2.2434  0.4190
17869TIP3    H275023   6.675   5.967   4.401  3.7938 -0.8652  0.6400
17870TIP3   OH275024   5.895   3.681   3.821  0.0631 -0.2342  0.0271
17870TIP3    H175025   5.982   3.646   3.842  0.2304 -1.3565 -2.3425
17870TIP3    H275026   5.904   3.712   3.730 -1.4698  1.4782  0.4356
17871TIP3   OH275027   1.469   3.024  14.419 -0.0232  0.1129 -0.0846
17871TIP3    H175028   1.504   3.076  14.346 -1.2948  1.7363  0.4322
17871TIP3    H275029   1.474   2.934  14.388  0.6446  0.6694 -1.6860
17872TIP3   OH275030   0.607   1.075   2.700  0.3397 -0.3981 -0.4271
17872TIP3    H175031   0.661   1.123   2.638 -0.5597 -1.8822 -2.4210
17872TIP3    H275032   0.518   1.083   2.666 -0.1993 -1.0944  0.7599
17873TIP3   OH275033   0.293   4.961  12.604  0.6328 -0.0756  0.1171
17873TIP3    H175034   0.225   5.006  12.554  1.0068  1.1352  0.6889
17873TIP3    H275035   0.368   4.957  12.544  0.1582 -1.1998 -0.4293
17874TIP3   OH275036   1.619   1.763  15.147 -0.5804  0.1732  0.0623
17874TIP3    H175037   1.682   1.820  15.103 -2.4228  0.4089 -2.3794
17874TIP3    H275038   1.651   1.674  15.130  0.4014  0.3392  0.9434
17875TIP3   OH275039   5.838   1.496  15.186 -0.0157  0.1252 -0.3629
17875TIP3    H175040   5.792   1.436  15.128 -0.4415 -0.0308  0.1220
17875TIP3    H275041   5.928   1.464  15.190 -0.1619 -0.2802 -0.3748
17876TIP3   OH275042   1.192   0.955   0.215  0.0013  0.1505 -0.0018
17876TIP3    H175043   1.207   0.949   0.120 -1.7219 -1.4019 -0.1820
17876TIP3    H275044   1.099   0.941   0.226  0.4273 -1.1803  2.0787
17877TIP3   OH275045   4.134   2.487   1.904 -0.1258 -0.4802  0.5758
17877TIP3    H175046   4.053   2.493   1.853  0.3166  0.2222 -0.0609
17877TIP3    H275047   4.203   2.482   1.838  0.4233  0.0759  1.1041
17878TIP3   OH275048   4.525   2.961   4.093 -0.0295 -0.1055  0.6754
17878TIP3    H175049   4.477   3.042   4.107  2.4271  1.5082  0.1348
17878TIP3    H275050   4.504   2.907   4.170 -1.7554  0.9975  0.9990
17879TIP3   OH275051   3.757   5.967   3.893  0.2381  0.1423  0.1819
17879TIP3    H175052   3.795   5.888   3.855  0.7116 -0.1839  1.3180
17879TIP3    H275053   3.832   6.024   3.911 -0.1883  1.4525 -1.8883
17880TIP3   OH275054   1.733   1.354  14.139  0.3377 -0.0052 -0.3471
17880TIP3    H175055   1.810   1.311  14.175  0.1882 -0.7055 -0.8597
17880TIP3    H275056   1.757   1.377  14.050  1.5159  3.7903  0.8736
17881TIP3   OH275057   6.459   6.209   0.052  0.0791  0.2324  0.1843
17881TIP3    H175058   6.399   6.223  -0.022 -0.7449  0.2290  0.8375
17881TIP3    H275059   6.514   6.136   0.025  0.2093  0.6481 -0.6903
17882TIP3   OH275060   6.541   0.870   0.294  0.0518  0.0937  0.5387
17882TIP3    H175061   6.554   0.961   0.267  0.8404  0.2012  1.2545
17882TIP3    H275062   6.595   0.861   0.373 -0.5436 -0.8086  0.8437
17883TIP3   OH275063   6.441   4.236   3.344  0.4456 -0.0048  0.0619
17883TIP3    H175064   6.414   4.322   3.312  2.7024  0.6320 -0.1514
17883TIP3    H275065   6.525   4.220   3.302  1.8772 -0.6420  3.0707
17884TIP3   OH275066   0.275   5.895  16.362  0.0090  0.2346  0.1719
17884TIP3    H175067   0.180   5.880  16.367  0.3245 -2.3928 -1.2669
17884TIP3    H275068   0.287   5.948  16.283 -0.1830 -0.0921 -0.0767
17885TIP3   OH275069   5.493   5.345  13.523 -0.3869 -0.2192 -0.4310
17885TIP3    H175070   5.569   5.313  13.474  0.5078  0.5699  0.3946
17885TIP3    H275071   5.487   5.437  13.499  0.5916  0.3976  1.5426
17886TIP3   OH275072   5.314   3.929  14.223 -0.1962  0.5341  0.0184
17886TIP3    H175073   5.274   3.931  14.136  2.0430  0.9921 -1.0361
17886TIP3    H275074   5.323   3.836  14.243 -1.8034  0.4275  0.2903
17887TIP3   OH275075   5.236   5.646  13.854 -0.0651  0.1118 -0.3153
17887TIP3    H175076   5.232   5.608  13.767  0.7357 -0.5254 -0.0799
17887TIP3    H275077   5.229   5.740  13.839 -3.1492 -0.1597 -0.8087
17888TIP3   OH275078   4.110   3.688  16.471 -0.9650  0.2902  0.2181
17888TIP3    H175079   4.114   3.781  16.448 -1.0269  0.3492  0.4481
17888TIP3    H275080   4.190   3.672  16.521 -0.5452  0.0274 -0.5235
17889TIP3   OH275081   0.198   3.169   2.793  0.0187  0.3110 -0.2768
17889TIP3    H175082   0.277   3.145   2.744  0.7126  0.6962  0.6449
17889TIP3    H275083   0.162   3.085   2.821  1.8476  0.2430  2.0095
17890TIP3   OH275084   5.926   6.036  14.164 -0.5934 -0.7411 -0.2996
17890TIP3    H175085   5.979   5.962  14.194  1.5307  1.5813  1.9501
17890TIP3    H275086   5.960   6.055  14.077  0.6561 -0.7877  0.1635
17891TIP3   OH275087   6.484   1.752   4.641  0.3882 -0.5094  0.1978
17891TIP3    H175088   6.438   1.833   4.661 -0.0684 -0.4673 -0.9912
17891TIP3    H275089   6.449   1.725   4.556  1.7115 -1.0841 -0.1740
17892TIP3   OH275090   3.841   3.294   4.840 -0.5371  0.8313 -0.5949
17892TIP3    H175091   3.884   3.370   4.801 -0.5932  0.4651 -1.3914
17892TIP3    H275092   3.878   3.219   4.793  0.0971  0.3023  0.7273
17893TIP3   OH275093   5.197   3.649   5.951  0.2215 -0.3020  0.1670
17893TIP3    H175094   5.156   3.563   5.960 -1.4590  0.5083  0.5162
17893TIP3    H275095   5.286   3.630   5.922 -0.0300 -2.1671  0.5375
17894TIP3   OH275096   1.816   0.366   2.825  0.1601 -0.4037  0.4263
17894TIP3    H175097   1.777   0.453   2.820  2.4308  0.6128  0.0972
17894TIP3    H275098   1.781   0.320   2.748  2.0640  1.5395 -1.6640
17895TIP3   OH275099   1.498   5.577  13.399 -0.0373  0.1737 -0.2436
17895TIP3    H175100   1.588   5.574  13.430  0.5243 -1.6793 -1.9690
17895TIP3    H275101   1.445   5.589  13.479  1.5826 -0.7255  0.9792
17896TIP3   OH275102   1.968   4.871  11.581  0.0101 -0.0375  0.7139
17896TIP3    H175103   2.057   4.835  11.574  0.0880  0.0904  1.0449
17896TIP3    H275104   1.914   4.796  11.608 -0.6007 -0.9691 -2.8670
17897TIP3   OH275105   4.966   1.747   4.768 -0.2337 -0.1495 -0.1821
17897TIP3    H175106   5.010   1.662   4.778  1.0844  0.4225 -1.0484
17897TIP3    H275107   4.893   1.729   4.708 -0.2780 -0.7756  0.0507
17898TIP3   OH275108   1.269   4.765  11.479 -0.1978  0.6293  0.1181
17898TIP3    H175109   1.243   4.698  11.543  1.1611  0.2738  0.3113
17898TIP3    H275110   1.235   4.733  11.396 -0.4010  0.1871  0.3694
17899TIP3   OH275111   4.729   2.091  12.327  0.0571 -0.4617  0.4485
17899TIP3    H175112   4.644   2.046  12.330 -0.1330 -0.1011  0.4533
17899TIP3    H275113   4.714   2.175  12.370 -0.0496  0.3527 -1.1348
17900TIP3   OH275114   0.696   1.720  14.476 -0.0936  0.2046  0.2098
17900TIP3    H175115   0.748   1.716  14.396 -0.7431 -1.2700 -0.1452
17900TIP3    H275116   0.707   1.635  14.517 -0.7812  0.5133  1.0558
17901TIP3   OH275117   3.450   4.489  14.617  0.2753  0.0112  1.2570
17901TIP3    H175118   3.413   4.497  14.704 -0.5122  0.8185  0.8640
17901TIP3    H275119   3.434   4.575  14.576  1.0795 -0.1827  0.4975
17902TIP3   OH275120   0.394   0.570   0.648  0.2763  0.2894  0.3032
17902TIP3    H175121   0.436   0.527   0.574 -0.3022  0.7943 -0.3293
17902TIP3    H275122   0.386   0.662   0.621  0.4944  0.5803  1.1847
17903TIP3   OH275123   3.966   5.914  15.427 -0.5613  0.0233  0.0737
17903TIP3    H175124   4.009   5.892  15.510 -0.3928 -2.7387 -0.7258
17903TIP3    H275125   3.873   5.918  15.449 -0.4079  0.5917  0.6558
17904TIP3   OH275126   2.449   3.072  14.377 -0.3848  0.0124 -0.4679
17904TIP3    H175127   2.368   3.062  14.328 -0.6383 -0.6737  0.0690
17904TIP3    H275128   2.506   3.125  14.321 -1.2530  0.6187 -0.7810
17905TIP3   OH275129   0.095   2.154  14.332 -0.8035 -0.3768 -0.1483
17905TIP3    H175130   0.048   2.072  14.346 -1.3417  0.0530  0.5780
17905TIP3    H275131   0.186   2.134  14.355 -1.0915 -0.5380  0.8430
17906TIP3   OH275132   6.022   6.168   3.085  0.2364  0.0954  0.5290
17906TIP3    H175133   6.049   6.186   3.175 -0.0234 -0.3787  0.7056
17906TIP3    H275134   6.013   6.072   3.081 -0.8431  0.1936  0.3201
17907TIP3   OH275135   2.136   5.651   2.752 -0.3106 -0.8124  0.2276
17907TIP3    H175136   2.056   5.682   2.794  0.0009 -1.7950  1.5819
17907TIP3    H275137   2.204   5.657   2.820  0.8966  0.4976 -1.0515
17908TIP3   OH275138   3.171   6.244  15.154 -0.2230 -0.3849 -0.2984
17908TIP3    H175139   3.105   6.220  15.089 -0.4877 -1.0770  0.2139
17908TIP3    H275140   3.255   6.233  15.108 -0.4526  0.2251 -0.8617
17909TIP3   OH275141   5.573   3.426  17.067 -0.6132  0.3682 -0.1403
17909TIP3    H175142   5.535   3.340  17.047 -1.3811  0.9509 -1.2057
17909TIP3    H275143   5.537   3.449  17.153  0.4051 -0.8278  0.6333
17910TIP3   OH275144   2.442   3.297   2.473 -0.1112 -0.3567 -0.3423
17910TIP3    H175145   2.367   3.238   2.473 -0.9207  0.6378 -1.3852
17910TIP3    H275146   2.445   3.331   2.384  0.2184  1.3180  0.2943
17911TIP3   OH275147   5.789   4.154  13.968 -0.1756  0.0533 -0.1606
17911TIP3    H175148   5.752   4.202  14.042  0.1648  0.5243 -0.2921
17911TIP3    H275149   5.789   4.217  13.896  0.4905 -0.0673 -0.2705
17912TIP3   OH275150   3.931   4.167   5.210 -0.2056  0.0718 -0.1762
17912TIP3    H175151   3.948   4.098   5.146 -1.5047  0.3140 -0.8249
17912TIP3    H275152   3.835   4.168   5.218 -0.1368  1.0954  0.5988
17913TIP3   OH275153   1.561   1.520  17.084 -0.2848  0.0281  0.2235
17913TIP3    H175154   1.630   1.534  17.148 -1.6400 -0.6428  1.8838
17913TIP3    H275155   1.538   1.427  17.094 -0.5528 -0.0680 -1.1883
17914TIP3   OH275156   5.806   2.929  13.894 -0.8368  0.3276 -0.3171
17914TIP3    H175157   5.771   2.857  13.947  0.5679  0.1243  0.3627
17914TIP3    H275158   5.871   2.888  13.838  0.3961  1.1538  0.4917
17915TIP3   OH275159   1.256   3.318   5.222  0.0679  0.1142 -0.0683
17915TIP3    H175160   1.260   3.344   5.130 -1.3177 -1.5429 -0.6438
17915TIP3    H275161   1.324   3.251   5.231  0.8235  0.9397  0.3453
17916TIP3   OH275162   5.149   6.766  13.003  0.0918  0.0122 -0.4586
17916TIP3    H175163   5.091   6.795  12.934  1.3050 -0.3437 -1.6503
17916TIP3    H275164   5.195   6.845  13.032 -2.2227  0.6299  1.7381
17917TIP3   OH275165   0.624   1.662  16.531 -0.0008 -0.0383  0.5325
17917TIP3    H175166   0.653   1.706  16.611 -2.8935  1.1507  0.9845
17917TIP3    H275167   0.547   1.712  16.503 -0.6487 -2.0964 -1.4813
17918TIP3   OH275168   2.750   3.912   1.403 -0.1040  0.1046 -0.0745
17918TIP3    H175169   2.734   3.857   1.479  2.1685 -1.2116 -0.5016
17918TIP3    H275170   2.776   3.996   1.440  0.6596 -0.4225  0.6183
17919TIP3   OH275171   0.112   4.256   2.404 -0.4360 -0.1816 -0.1266
17919TIP3    H175172   0.079   4.168   2.425 -0.8806 -0.2458 -1.0712
17919TIP3    H275173   0.148   4.247   2.315  0.3089  0.3811  0.1150
17920TIP3   OH275174   1.255   3.443   5.471  0.6258  0.4383 -0.0935
17920TIP3    H175175   1.240   3.524   5.421 -0.6957  0.6292  0.5862
17920TIP3    H275176   1.268   3.376   5.404  1.2283  1.1125 -0.6698
17921TIP3   OH275177   4.485   4.432   0.247  0.7202  0.1853 -0.1750
17921TIP3    H175178   4.478   4.441   0.152  0.0839 -1.2364 -0.2620
17921TIP3    H275179   4.536   4.509   0.274  0.1958  1.0420 -1.5620
17922TIP3   OH275180   6.674   0.907  10.204 -0.0885  0.1517  0.1424
17922TIP3    H175181   6.727   0.977  10.166  0.2598  0.8124  1.8150
17922TIP3    H275182   6.590   0.948  10.223 -1.1514 -0.8119 -2.1999
17923TIP3   OH275183   4.095   0.417   1.294  0.4179  0.0258 -0.1082
17923TIP3    H175184   4.179   0.385   1.327 -0.0501 -0.9016  0.2012
17923TIP3    H275185   4.115   0.448   1.205  1.3117  0.8742  0.3859
17924TIP3   OH275186   3.284   3.044  11.715 -0.5684 -0.0920 -0.0583
17924TIP3    H175187   3.215   3.009  11.772  0.0321 -0.6668  0.3122
17924TIP3    H275188   3.305   3.129  11.754  0.3775 -0.8124  1.0312
17925TIP3   OH275189   3.688   2.543   5.491  0.3583 -0.3086 -0.1743
17925TIP3    H175190   3.739   2.521   5.570  1.2030  1.1023 -0.3034
17925TIP3    H275191   3.736   2.501   5.420 -0.4565 -1.6637  0.0569
17926TIP3   OH275192   4.575   5.341  16.804  0.5695  0.6993 -0.2118
17926TIP3    H175193   4.541   5.261  16.845 -1.2122  1.1137 -0.8404
17926TIP3    H275194   4.660   5.355  16.846  1.1884 -1.8613 -0.5294
17927TIP3   OH275195   2.394   4.058  12.829  0.8303 -0.3661 -0.0483
17927TIP3    H175196   2.353   4.017  12.752  2.5538 -0.1429 -1.1170
17927TIP3    H275197   2.422   3.984  12.883 -0.8849 -0.5208  0.6591
17928TIP3   OH275198   0.720   6.568  14.104 -0.2446  0.2196  0.1856
17928TIP3    H175199   0.650   6.539  14.162 -1.3051  0.1693 -1.1105
17928TIP3    H275200   0.792   6.507  14.120 -1.1075 -0.7782  0.2641
17929TIP3   OH275201   0.567   5.606   3.630 -0.6256  0.2501 -0.1970
17929TIP3    H175202   0.479   5.639   3.612  0.1877  2.4217 -0.3070
17929TIP3    H275203   0.618   5.629   3.552  0.1831 -0.5446  0.0817
17930TIP3   OH275204   4.293   2.322   0.459 -0.0366 -0.3728 -0.0380
17930TIP3    H175205   4.197   2.328   0.461 -0.0500 -0.9803  1.4175
17930TIP3    H275206   4.314   2.308   0.366 -1.4920 -2.4332 -0.0905
17931TIP3   OH275207   4.969   5.728   5.986  0.3671  0.5899  0.4156
17931TIP3    H175208   4.981   5.641   6.024 -0.4709 -0.9445 -2.6745
17931TIP3    H275209   5.058   5.758   5.967  0.6155 -0.0085  0.6222
17932TIP3   OH275210   3.194   4.810  16.746 -0.1585 -0.0336 -0.2831
17932TIP3    H175211   3.214   4.863  16.824 -1.9527  0.6854 -0.2821
17932TIP3    H275212   3.279   4.790  16.708  0.6028  2.1431  0.2037
17933TIP3   OH275213   2.443   1.129   6.519  0.9622 -0.2291 -0.4023
17933TIP3    H175214   2.525   1.080   6.519  0.8277 -0.4572 -0.1322
17933TIP3    H275215   2.465   1.212   6.477  1.9370  0.6824  1.8109
17934TIP3   OH275216   1.280   2.875   0.738 -0.0761 -0.1942 -0.0547
17934TIP3    H175217   1.327   2.948   0.698 -0.7664  0.1451 -0.2376
17934TIP3    H275218   1.326   2.860   0.821 -0.0262  0.5426  0.0516
17935TIP3   OH275219   6.493   4.070   5.058  0.1434 -0.1214 -0.9797
17935TIP3    H175220   6.521   4.035   5.143  1.2221 -1.7363 -1.9544
17935TIP3    H275221   6.477   3.992   5.005  2.1353  0.8297 -3.0943
17936TIP3   OH275222   4.547   2.299  15.635 -0.1889 -0.0937 -0.0323
17936TIP3    H175223   4.601   2.230  15.673 -1.9973 -1.8942 -0.5778
17936TIP3    H275224   4.473   2.252  15.596  0.1358  1.8923 -3.2424
17937TIP3   OH275225   4.531   4.544  10.933 -0.3077 -0.0100  0.2943
17937TIP3    H175226   4.566   4.586  10.854  0.1602  2.2849  1.7011
17937TIP3    H275227   4.606   4.502  10.973 -0.4136 -0.5688 -0.0803
17938TIP3   OH275228   2.476   5.936  17.105 -0.2838  0.0759 -0.3961
17938TIP3    H175229   2.506   6.026  17.093 -0.1642  0.1384  0.3797
17938TIP3    H275230   2.497   5.915  17.195  0.8621 -1.1868 -0.9381
17939TIP3   OH275231   5.421   1.442  10.350 -0.3740 -0.4456  0.3211
17939TIP3    H175232   5.407   1.350  10.324 -0.1294 -0.1842 -0.7552
17939TIP3    H275233   5.342   1.464  10.399 -1.0532 -0.8340 -0.5620
17940TIP3   OH275234   0.880   0.885   2.433 -0.9870  0.4084  0.0054
17940TIP3    H175235   0.827   0.853   2.506 -0.6642 -0.4902 -0.1530
17940TIP3    H275236   0.856   0.830   2.359  0.5781 -0.3995  0.0745
17941TIP3   OH275237   2.109   4.473   1.089 -0.1648 -0.2059 -0.6890
17941TIP3    H175238   2.156   4.435   1.163  2.1057 -0.3570 -2.1947
17941TIP3    H275239   2.150   4.436   1.011 -1.2613  1.4032 -2.0791
17942TIP3   OH275240   0.381   2.152   3.696  0.1516  0.2609 -0.2759
17942TIP3    H175241   0.319   2.193   3.635  1.1037  1.1688 -0.6452
17942TIP3    H275242   0.419   2.080   3.646 -2.5076 -1.9747  0.8136
17943TIP3   OH275243   1.351   1.241   3.191  0.4338 -0.1439 -0.2657
17943TIP3    H175244   1.382   1.154   3.215 -2.1527 -0.4682  2.0263
17943TIP3    H275245   1.305   1.229   3.108 -2.3556 -1.5159  1.4341
17944TIP3   OH275246   3.852   2.086  16.832  0.3108 -0.3107 -0.4042
17944TIP3    H175247   3.774   2.085  16.777 -0.7391 -0.7864  1.0582
17944TIP3    H275248   3.888   2.174  16.822 -0.2205 -0.1987 -1.3426
17945TIP3   OH275249   2.589   5.265  13.932 -0.3042 -0.6217  0.4715
17945TIP3    H175250   2.681   5.290  13.946 -0.4193  0.2588 -0.2774
17945TIP3    H275251   2.564   5.220  14.013  1.3964 -2.7002 -0.1099
17946TIP3   OH275252   5.980   3.709  16.464  0.1036  0.3884 -0.3005
17946TIP3    H175253   5.910   3.736  16.405 -0.6849  1.6340  1.1519
17946TIP3    H275254   6.054   3.765  16.441 -0.7695  2.1692  1.0659
17947TIP3   OH275255   3.974   1.294  12.094 -0.6528  0.4538  0.0200
17947TIP3    H175256   3.989   1.350  12.018  2.9288  0.0766  0.3215
17947TIP3    H275257   3.926   1.219  12.060  0.2024  0.6698 -1.7491
17948TIP3   OH275258   6.475   0.175   4.170  0.4433  0.4620 -0.1002
17948TIP3    H175259   6.560   0.198   4.131  1.0408  0.7210  1.3083
17948TIP3    H275260   6.496   0.103   4.230 -0.5970 -0.4948 -0.8560
17949TIP3   OH275261   1.798   3.296   2.431  0.3454 -0.2422  0.2332
17949TIP3    H175262   1.846   3.276   2.512 -2.2031  2.7071  2.5922
17949TIP3    H275263   1.706   3.292   2.456 -0.4933  0.6822 -2.5550
17950TIP3   OH275264   3.649   0.667   3.530 -0.0627  0.1697  0.2346
17950TIP3    H175265   3.568   0.634   3.491  0.2972 -0.5116  0.0592
17950TIP3    H275266   3.631   0.759   3.549  0.0997  0.7692 -2.4165
17951TIP3   OH275267   2.125   6.036  15.950  0.5694 -0.4327 -0.3021
17951TIP3    H175268   2.208   6.014  15.907  0.2905 -0.0154 -1.0641
17951TIP3    H275269   2.143   6.117  15.996  0.5672 -0.3115 -0.5153
17952TIP3   OH275270   4.542   6.471   1.989  0.4302  0.0907  0.1887
17952TIP3    H175271   4.512   6.560   1.974 -0.2804 -0.3625 -1.1612
17952TIP3    H275272   4.489   6.439   2.062  1.1515  0.9806  1.1255
17953TIP3   OH275273   3.052   3.000  12.797 -0.3361  0.2434 -0.2624
17953TIP3    H175274   3.130   2.985  12.850 -1.4503  0.2628  1.3876
17953TIP3    H275275   3.061   3.090  12.767 -0.5164  0.7694  1.2495
17954TIP3   OH275276   6.019   4.163  14.326  0.0849 -0.0597 -0.8168
17954TIP3    H175277   5.968   4.096  14.280  0.2742 -0.1819 -0.8522
17954TIP3    H275278   6.087   4.188  14.264  1.1059 -1.1315 -0.1561
17955TIP3   OH275279   5.293   0.283   3.519  0.0127  0.2841 -0.1810
17955TIP3    H175280   5.373   0.243   3.486 -0.9784 -0.4241 -1.7680
17955TIP3    H275281   5.229   0.212   3.520 -0.7545  0.9711  0.5430
17956TIP3   OH275282   1.307   0.246   5.356 -0.2841  0.6104 -0.1951
17956TIP3    H175283   1.340   0.204   5.276 -1.0736  0.4845 -0.4668
17956TIP3    H275284   1.212   0.251   5.342 -0.2515  2.1034  0.0187
17957TIP3   OH275285   6.607   1.120   0.248  0.3485  0.1756  0.3127
17957TIP3    H175286   6.619   1.170   0.168 -3.4381 -0.9401 -1.0463
17957TIP3    H275287   6.621   1.183   0.319  1.0125  1.8074 -1.2404
17958TIP3   OH275288   5.717   3.932   0.130  0.0320  0.4227 -0.0854
17958TIP3    H175289   5.635   3.949   0.176  0.4434  1.3328  0.3035
17958TIP3    H275290   5.701   3.849   0.085 -1.2044  0.7241 -0.2354
17959TIP3   OH275291   5.430   6.132  13.762 -0.2526 -0.6875  0.2714
17959TIP3    H175292   5.367   6.204  13.771 -0.1180 -0.5817  0.3711
17959TIP3    H275293   5.484   6.138  13.840  0.2692 -0.4009 -0.1118
17960TIP3   OH275294   0.524   1.900   2.134 -0.2368  0.4612 -0.1373
17960TIP3    H175295   0.430   1.905   2.114 -0.1063  0.3487 -0.8137
17960TIP3    H275296   0.528   1.894   2.229 -0.8961  0.9812 -0.0690
17961TIP3   OH275297   4.728   0.666  15.491  0.0703 -0.0484  0.0351
17961TIP3    H175298   4.679   0.654  15.572 -0.6601  0.9380 -0.2515
17961TIP3    H275299   4.777   0.748  15.505 -0.0434  0.1121 -0.5097
17962TIP3   OH275300   6.215   6.610  16.926 -0.3846  0.4184  0.4974
17962TIP3    H175301   6.250   6.533  16.883  1.7067  1.1494  0.8434
17962TIP3    H275302   6.161   6.576  16.998 -0.0070 -0.7103  0.2435
17963TIP3   OH275303   0.734   1.728  14.052  0.1163  0.0681  0.4168
17963TIP3    H175304   0.699   1.697  13.968 -0.7896  0.9426  0.4689
17963TIP3    H275305   0.662   1.777  14.091  1.7141  2.7596  0.0644
17964TIP3   OH275306   2.928   3.356  16.611 -0.2364 -0.0664 -0.1364
17964TIP3    H175307   2.868   3.293  16.571  1.0543 -0.9028 -0.7940
17964TIP3    H275308   2.983   3.303  16.669  1.5523  0.2599 -1.4793
17965TIP3   OH275309   5.808   1.388  11.727 -0.2374  0.1503  0.3382
17965TIP3    H175310   5.861   1.437  11.790 -0.6775  0.2338  0.6426
17965TIP3    H275311   5.718   1.405  11.753 -0.3833 -1.6674  1.0764
17966TIP3   OH275312   3.386   6.718  11.327  0.2552 -0.4464  0.7140
17966TIP3    H175313   3.453   6.761  11.380 -2.1892  1.6730  2.1804
17966TIP3    H275314   3.347   6.653  11.386 -0.0882 -0.5246  0.4013
17967TIP3   OH275315   3.272   2.138  12.092  0.1431 -0.6559 -0.0524
17967TIP3    H175316   3.220   2.084  12.152  0.4985 -0.4045  0.4884
17967TIP3    H275317   3.296   2.215  12.144  1.3034 -0.9146 -0.2036
17968TIP3   OH275318   5.401   0.595   0.966  0.4099  0.0470  0.4613
17968TIP3    H175319   5.471   0.535   0.993  0.6023 -0.2387 -0.6451
17968TIP3    H275320   5.322   0.540   0.963  0.8778 -0.5516 -2.1055
17969TIP3   OH275321   4.635   2.661   0.840 -0.4200  0.0054 -0.2601
17969TIP3    H175322   4.634   2.663   0.745  1.8087 -0.7959 -0.3209
17969TIP3    H275323   4.567   2.724   0.866 -0.3763  0.9498 -2.3455
17970TIP3   OH275324   3.993   6.725  16.681  0.6127  0.1923  0.0442
17970TIP3    H175325   4.042   6.771  16.749  0.5986  0.0255  0.1691
17970TIP3    H275326   3.905   6.713  16.718  0.2301  1.2121 -0.4931
17971TIP3   OH275327   3.786   5.981  12.164 -0.2885 -0.4194  0.2362
17971TIP3    H175328   3.722   5.989  12.093 -0.0757 -1.0350 -0.0272
17971TIP3    H275329   3.871   5.981  12.119 -0.0549  1.1373  0.6293
17972TIP3   OH275330   3.959   5.836  14.666  0.3768  0.5996 -0.0795
17972TIP3    H175331   3.990   5.768  14.606  1.1456 -1.1017  2.1803
17972TIP3    H275332   3.866   5.817  14.679 -0.2229  2.0070 -2.0142
17973TIP3   OH275333   0.975   4.356  14.323 -0.5706 -0.0405 -0.6392
17973TIP3    H175334   1.001   4.304  14.399 -1.4313 -0.3420 -0.5401
17973TIP3    H275335   1.049   4.350  14.263  0.2681  0.5206  0.3363
17974TIP3   OH275336   5.702   2.441   1.488  0.2930  0.3523 -0.5211
17974TIP3    H175337   5.712   2.351   1.457 -0.2997  0.4886 -1.1183
17974TIP3    H275338   5.790   2.467   1.516  0.6822 -0.0152 -1.4016
17975TIP3   OH275339   4.662   0.075  14.389 -0.3246  0.3212 -0.2019
17975TIP3    H175340   4.683  -0.015  14.413  0.2101  0.2997 -0.7376
17975TIP3    H275341   4.673   0.078  14.294  3.6825  2.0096  0.2189
17976TIP3   OH275342   5.627   4.578   6.366 -0.5582 -0.1406 -0.4320
17976TIP3    H175343   5.541   4.535   6.360 -0.0501 -1.0778 -1.0830
17976TIP3    H275344   5.607   4.671   6.364 -1.7271 -0.3163  1.6860
17977TIP3   OH275345   2.509   4.643   4.632  0.0754  0.4736  0.0363
17977TIP3    H175346   2.503   4.593   4.551 -0.0725  0.6523 -0.0624
17977TIP3    H275347   2.588   4.610   4.675  0.4749  0.7883 -0.4559
17978TIP3   OH275348   1.066   4.383  13.948  0.0242 -0.5624 -0.1467
17978TIP3    H175349   1.126   4.456  13.963 -0.3456 -0.5864  1.5698
17978TIP3    H275350   1.089   4.319  14.015  0.9186 -2.4056 -2.1996
17979TIP3   OH275351   1.428   4.313  14.459  0.4112  0.0999  0.9575
17979TIP3    H175352   1.335   4.333  14.450  0.2271 -1.4013 -0.6640
17979TIP3    H275353   1.432   4.240  14.520  0.5063  0.0896  0.9395
17980TIP3   OH275354   4.242   3.157   4.707  0.1502  0.3891 -1.0053
17980TIP3    H175355   4.242   3.089   4.774 -3.2635  0.9508 -0.3129
17980TIP3    H275356   4.267   3.111   4.627  1.0084 -1.0006  0.0274
17981TIP3   OH275357   3.460   0.459  10.825 -0.2304  0.3180 -0.2314
17981TIP3    H175358   3.555   0.453  10.838 -0.4490  1.2061  2.1652
17981TIP3    H275359   3.449   0.530  10.762  0.7171 -0.1419 -0.9272
17982TIP3   OH275360   1.046   2.378  11.194 -0.4287  0.3792  0.0426
17982TIP3    H175361   1.031   2.473  11.198 -2.2197  0.1255 -0.2608
17982TIP3    H275362   1.054   2.360  11.100  2.2703  0.5611  0.2103
17983TIP3   OH275363   0.816   1.878  11.143 -0.1072 -0.3205 -0.6595
17983TIP3    H175364   0.878   1.813  11.175 -0.8873  0.0249  1.5911
17983TIP3    H275365   0.731   1.834  11.148 -0.5931  0.7438  0.5079
17984TIP3   OH275366   4.815   4.582  13.722  0.1410  0.1631  0.3165
17984TIP3    H175367   4.879   4.653  13.733 -0.5142  0.6340  1.1309
17984TIP3    H275368   4.811   4.540  13.808 -1.1740  0.5905  0.4709
17985TIP3   OH275369   5.053   5.199  16.916  0.5162 -0.6310 -0.2561
17985TIP3    H175370   4.995   5.225  16.844  0.4243 -1.1265 -0.3623
17985TIP3    H275371   5.101   5.278  16.939 -0.4925 -0.1110  0.0956
17986TIP3   OH275372   4.712   0.757  11.098 -0.2224  0.4931 -0.3537
17986TIP3    H175373   4.719   0.673  11.053 -0.0520 -0.1699  0.8993
17986TIP3    H275374   4.640   0.746  11.159  0.6153  0.8276  0.7222
17987TIP3   OH275375   5.803   2.752   3.518  0.2987  0.3112 -0.1459
17987TIP3    H175376   5.778   2.776   3.429 -1.0303  0.1576  0.1680
17987TIP3    H275377   5.763   2.820   3.573 -1.0206 -0.9515  0.5118
17988TIP3   OH275378   0.120   4.836  12.814  0.5996 -0.0636 -0.3737
17988TIP3    H175379   0.048   4.887  12.776 -0.4327 -1.5613 -0.4523
17988TIP3    H275380   0.196   4.860  12.762 -0.0759  0.6103 -1.0728
17989TIP3   OH275381   5.729   0.648   3.657  0.4130 -0.1624 -0.4686
17989TIP3    H175382   5.810   0.635   3.607  0.5698  0.8568 -0.4748
17989TIP3    H275383   5.664   0.671   3.590  0.2869 -0.2441 -0.3738
17990TIP3   OH275384   4.482   0.821  13.011 -0.2140  0.2343  0.0114
17990TIP3    H175385   4.553   0.797  12.952 -0.6141  1.5410 -1.0177
17990TIP3    H275386   4.481   0.751  13.076  1.7552 -0.0052 -0.1805
17991TIP3   OH275387   0.793   0.902   6.066 -0.0675 -0.3655  0.3063
17991TIP3    H175388   0.750   0.951   6.136 -1.9236 -0.9661 -0.4043
17991TIP3    H275389   0.786   0.811   6.093  1.4813 -0.4256  0.5643
17992TIP3   OH275390   5.164   0.927   2.591  0.1049 -0.0944  0.4794
17992TIP3    H175391   5.191   0.885   2.509 -1.8932  0.1332 -0.3098
17992TIP3    H275392   5.105   0.997   2.564 -1.8198 -0.9957  2.2094
17993TIP3   OH275393   1.071   3.360   2.782  0.2197 -0.3280  0.0710
17993TIP3    H175394   1.091   3.426   2.717 -0.9197 -0.5459 -0.5115
17993TIP3    H275395   0.983   3.330   2.760  0.2696 -1.2134  1.0205
17994TIP3   OH275396   6.169   2.763  12.767  0.2118 -0.1769 -0.0124
17994TIP3    H175397   6.116   2.843  12.763  0.8441  0.2252 -0.5354
17994TIP3    H275398   6.209   2.765  12.854 -0.2133 -0.2093  0.1837
17995TIP3   OH275399   2.536   3.778  16.259  0.5318 -0.0470 -0.0537
17995TIP3    H175400   2.577   3.845  16.204  2.5240 -0.5395  0.8172
17995TIP3    H275401   2.532   3.701  16.203 -0.5755  0.4165 -0.6295
17996TIP3   OH275402   2.944   3.917  14.611  0.1969 -0.0114  0.0457
17996TIP3    H175403   2.899   3.960  14.684 -0.8058 -0.6439 -0.1873
17996TIP3    H275404   2.940   3.980  14.539 -1.3789 -0.5245 -0.3305
17997TIP3   OH275405   5.312   2.169  15.032 -0.0973 -0.1101 -0.1241
17997TIP3    H175406   5.319   2.091  14.977  2.1505 -0.1910  0.2106
17997TIP3    H275407   5.309   2.135  15.122  1.1426  0.1526  0.0361
17998TIP3   OH275408   5.148   5.989  14.425  0.3645 -0.3934 -0.8060
17998TIP3    H175409   5.231   5.960  14.385  0.9913  0.9395 -0.5031
17998TIP3    H275410   5.164   5.985  14.519  0.0139 -0.3126 -0.7426
17999TIP3   OH275411   1.230   0.454   5.002 -0.2860 -0.3045 -0.2309
17999TIP3    H175412   1.308   0.451   4.947 -0.8855 -0.8158 -1.0664
17999TIP3    H275413   1.235   0.375   5.055 -0.4973 -0.6155 -0.6647
18000TIP3   OH275414   0.216   2.206   1.922  0.1965 -0.5744  0.1648
18000TIP3    H175415   0.150   2.184   1.857 -1.7771  0.3099  1.8407
18000TIP3    H275416   0.197   2.149   1.996  1.4574 -0.4778  0.5791
18001TIP3   OH275417   5.501   5.272   3.890  0.0033 -0.3100  0.3987
18001TIP3    H175418   5.445   5.255   3.966  2.3630 -3.3077  1.5824
18001TIP3    H275419   5.565   5.201   3.892  1.2777  0.6491 -3.3340
18002TIP3   OH275420   1.745   0.149  11.563 -0.4106 -0.5118  0.1526
18002TIP3    H175421   1.753   0.188  11.651  0.0752 -1.9208  0.7517
18002TIP3    H275422   1.652   0.128  11.555 -0.7246  0.9509 -0.2726
18003TIP3   OH275423   0.377   6.212   0.183  0.4450  0.1613 -0.1735
18003TIP3    H175424   0.436   6.138   0.196 -0.0240 -0.2850 -0.5206
18003TIP3    H275425   0.434   6.286   0.164  0.9706  0.0949  1.1059
18004TIP3   OH275426   6.561   5.963  17.215  0.3342 -0.1214  0.2104
18004TIP3    H175427   6.653   5.971  17.187  0.0444 -2.9237 -1.8613
18004TIP3    H275428   6.566   5.919  17.300  0.9192 -0.8524 -0.1907
18005TIP3   OH275429   6.596   4.310  11.656 -0.2227 -0.0011 -0.0748
18005TIP3    H175430   6.600   4.308  11.752  0.8537  2.3667 -0.0286
18005TIP3    H275431   6.508   4.280  11.635 -1.2321  1.5828  1.7706
18006TIP3   OH275432   5.291   3.056   2.900  0.3903  0.7240  0.3462
18006TIP3    H175433   5.330   3.049   2.987  0.0763 -1.7242  0.3268
18006TIP3    H275434   5.366   3.060   2.841  0.7117 -2.9302  0.3867
18007TIP3   OH275435   2.155   5.129  15.071  0.4525 -0.2562  0.4175
18007TIP3    H175436   2.219   5.147  15.139  3.2260 -2.2928 -1.5345
18007TIP3    H275437   2.151   5.210  15.019 -0.3739  0.6872  1.9098
18008TIP3   OH275438   6.716   3.752  11.677 -0.3490  0.3491 -0.2382
18008TIP3    H175439   6.646   3.689  11.690 -0.3107 -0.0502 -1.9571
18008TIP3    H275440   6.682   3.834  11.715 -0.4623 -0.6138  1.8242
18009TIP3   OH275441   4.453   5.693   4.184  0.0833 -0.8922 -0.0483
18009TIP3    H175442   4.487   5.667   4.270  0.8355 -2.0424 -0.6931
18009TIP3    H275443   4.503   5.771   4.161 -0.2969 -0.4258  0.6598
18010TIP3   OH275444   3.088   0.482   5.078 -0.3078  0.0890 -0.4706
18010TIP3    H175445   3.051   0.484   4.990 -0.6407 -2.4508 -0.4140
18010TIP3    H275446   3.156   0.549   5.076  0.6576 -0.8933 -3.1286
18011TIP3   OH275447   6.393   2.825  11.865  0.1160 -0.3652  0.0439
18011TIP3    H175448   6.325   2.807  11.930  0.1941 -1.0153 -0.0467
18011TIP3    H275449   6.370   2.769  11.791 -0.7341  1.3525 -1.0185
18012TIP3   OH275450   0.523   0.144  13.169  0.4859  0.3571  0.5085
18012TIP3    H175451   0.446   0.189  13.204  0.3520  0.5975 -0.1018
18012TIP3    H275452   0.587   0.214  13.155  1.5767 -0.0783  2.9852
18013TIP3   OH275453   6.260   3.583  16.943  0.1262  0.2502  0.1768
18013TIP3    H175454   6.191   3.587  16.876  0.7543  0.8064 -0.4516
18013TIP3    H275455   6.306   3.501  16.925 -2.0425 -1.5005  2.2965
18014TIP3   OH275456   2.802   0.510  14.103 -0.0745  0.0494 -0.4365
18014TIP3    H175457   2.763   0.596  14.090  1.3743  0.9264  0.7578
18014TIP3    H275458   2.839   0.487  14.018 -0.7493  0.4473 -0.8457
18015TIP3   OH275459   4.492   2.990  13.280  0.3129  0.5553 -0.2896
18015TIP3    H175460   4.492   3.081  13.251 -0.3399  0.8826  0.7191
18015TIP3    H275461   4.553   2.988  13.353 -0.7667  0.4990  0.6267
18016TIP3   OH275462   1.578   5.773   1.449 -0.3961  0.3588  0.0863
18016TIP3    H175463   1.607   5.687   1.479 -1.5681  0.5688  1.9122
18016TIP3    H275464   1.621   5.785   1.364  0.0591 -1.8635 -0.0238
18017TIP3   OH275465   1.416   6.075  14.504 -0.2884  0.8717 -0.2874
18017TIP3    H175466   1.480   6.005  14.515 -0.3220  0.8879  0.0215
18017TIP3    H275467   1.453   6.150  14.550  0.1540  1.3192 -1.3769
18018TIP3   OH275468   2.868   6.526   4.169 -0.1638  1.2138  0.1330
18018TIP3    H175469   2.938   6.518   4.106 -1.5036 -1.2725 -1.0992
18018TIP3    H275470   2.911   6.558   4.249  2.1755  0.6032 -0.8462
18019TIP3   OH275471   1.848   1.544   2.316  0.3315  0.0912  0.3546
18019TIP3    H175472   1.916   1.489   2.355 -0.2713  0.3390  1.7907
18019TIP3    H275473   1.766   1.497   2.334  0.0156  0.3595 -0.3660
18020TIP3   OH275474   5.469   3.026  13.154 -0.0028  0.0503  0.8890
18020TIP3    H175475   5.405   3.031  13.083  2.4731 -2.4831 -1.6397
18020TIP3    H275476   5.449   3.103  13.209 -1.0178  3.0221 -3.3576
18021TIP3   OH275477   4.797   5.773   4.608 -0.8774 -0.2848  0.3776
18021TIP3    H175478   4.738   5.706   4.642 -2.8794  0.4301 -1.5890
18021TIP3    H275479   4.740   5.833   4.559  1.1006  1.9260  0.6912
18022TIP3   OH275480   6.648   2.128   3.222 -0.1237 -0.0726  0.2463
18022TIP3    H175481   6.697   2.181   3.285 -0.3484 -0.8005  1.0367
18022TIP3    H275482   6.664   2.170   3.137 -1.5598  2.2182  1.0534
18023TIP3   OH275483   5.359   2.498  10.859 -0.4166 -0.2577  0.5455
18023TIP3    H175484   5.450   2.486  10.832 -0.2503  1.6118  0.2492
18023TIP3    H275485   5.331   2.577  10.813 -2.1361 -0.7235  0.7815
18024TIP3   OH275486   6.046   1.357   3.637 -0.0009  0.0706  0.1291
18024TIP3    H175487   6.062   1.286   3.575 -1.6059  1.0109 -1.4050
18024TIP3    H275488   6.087   1.328   3.718  2.5374 -1.0111 -1.4687
18025TIP3   OH275489   3.683   4.180   0.978 -0.3665  0.1912 -0.5886
18025TIP3    H175490   3.712   4.094   1.006  1.1648  1.3097  1.3480
18025TIP3    H275491   3.763   4.228   0.958 -1.2020  1.1670 -1.6889
18026TIP3   OH275492   6.131   3.721   0.313 -0.5159  0.2000 -0.3810
18026TIP3    H175493   6.146   3.634   0.275  1.6107 -0.1654  1.1978
18026TIP3    H275494   6.088   3.770   0.244  0.9269 -1.2260 -2.3465
18027TIP3   OH275495   1.370   6.087  12.969 -0.1271  0.3554  0.3354
18027TIP3    H175496   1.402   6.134  12.893 -0.5912  1.1488  0.6259
18027TIP3    H275497   1.449   6.064  13.019  0.0179  2.0318  0.9000
18028TIP3   OH275498   3.642   4.557  10.461 -0.4049 -0.2957 -0.3542
18028TIP3    H175499   3.580   4.610  10.411  0.8079  1.9910  0.4997
18028TIP3    H275500   3.649   4.601  10.545  0.0356 -2.2921  0.6938
18029TIP3   OH275501   5.258   2.559  16.786  0.6008 -0.1807 -0.0199
18029TIP3    H175502   5.291   2.489  16.730  1.2209 -0.4875  0.7171
18029TIP3    H275503   5.195   2.516  16.844  0.3722  0.0262 -0.1149
18030TIP3   OH275504   4.790   3.277   4.883  0.0139  0.0027 -0.4909
18030TIP3    H175505   4.804   3.216   4.956  1.6841  0.5085 -0.3606
18030TIP3    H275506   4.755   3.356   4.924  0.8940  0.2649 -0.2270
18031TIP3   OH275507   4.902   4.289  10.445 -0.4290  0.3318  0.1621
18031TIP3    H175508   4.877   4.234  10.519  0.2120 -0.7426 -0.4091
18031TIP3    H275509   4.925   4.227  10.375 -0.0082  1.3215 -0.5910
18032TIP3   OH275510   5.780   5.496  14.487 -0.2799 -0.0243 -0.6300
18032TIP3    H175511   5.754   5.406  14.507  0.5343  0.0348  0.8400
18032TIP3    H275512   5.722   5.550  14.540 -0.7499  0.3166 -1.4911
18033TIP3   OH275513   3.532   1.416   5.162  1.0081  0.2772  0.4858
18033TIP3    H175514   3.582   1.382   5.236 -0.0698  2.4137  2.2640
18033TIP3    H275515   3.578   1.496   5.137  0.4638  0.4088 -0.1215
18034TIP3   OH275516   3.859   2.934   1.140  0.1375 -0.1186 -0.1350
18034TIP3    H175517   3.887   2.953   1.229 -0.3756  1.5598 -0.3197
18034TIP3    H275518   3.939   2.941   1.088  0.0913  0.7603 -0.0851
18035TIP3   OH275519   0.908   0.555  13.322 -0.3063 -0.1682  0.6278
18035TIP3    H175520   0.911   0.530  13.414 -1.2133 -1.8011  0.2440
18035TIP3    H275521   0.993   0.526  13.287 -0.7308 -1.3455  0.5384
18036TIP3   OH275522   4.869   2.990  14.400  0.0627 -0.1911 -0.0063
18036TIP3    H175523   4.793   2.987  14.341 -0.0115 -0.9172  0.1247
18036TIP3    H275524   4.846   3.058  14.463  0.1880  0.6691 -0.8710
18037TIP3   OH275525   0.570   2.860   1.589  0.1941  0.4837  0.0502
18037TIP3    H175526   0.661   2.888   1.577  1.0017 -2.2409 -0.5295
18037TIP3    H275527   0.542   2.832   1.501  0.1585 -2.4354  0.9253
18038TIP3   OH275528   3.276   4.428  11.587  0.0730  0.2985  0.7423
18038TIP3    H175529   3.345   4.449  11.650  1.0442 -0.1259 -0.1479
18038TIP3    H275530   3.321   4.429  11.502 -1.2323  0.9908  0.0479
18039TIP3   OH275531   5.326   0.980   0.222 -0.0538 -0.1651 -0.2822
18039TIP3    H175532   5.267   1.024   0.283 -0.1904  0.5476 -0.9259
18039TIP3    H275533   5.308   0.887   0.235 -1.1188  0.0366 -0.2662
18040TIP3   OH275534   1.816   1.746   6.658 -0.0676 -0.1185  0.0646
18040TIP3    H175535   1.724   1.756   6.679 -0.3122 -0.9073 -0.6013
18040TIP3    H275536   1.847   1.836   6.643 -0.7838  0.1252  0.0226
18041TIP3   OH275537   3.928   5.680   6.264  0.1558 -0.3339  0.2211
18041TIP3    H175538   4.004   5.630   6.233 -1.1798 -1.7384 -0.8401
18041TIP3    H275539   3.873   5.691   6.187 -2.0132 -1.6809  1.5268
18042TIP3   OH275540   1.182   2.357  15.375 -0.6584 -0.2858 -0.0987
18042TIP3    H175541   1.138   2.442  15.383  1.3659  0.8781 -0.9847
18042TIP3    H275542   1.119   2.301  15.330 -2.5245  0.3432  1.6797
18043TIP3   OH275543   5.235   3.538  11.127  0.0416  0.6465 -0.3060
18043TIP3    H175544   5.182   3.508  11.054  0.1330  1.7492 -0.8345
18043TIP3    H275545   5.241   3.633  11.116 -0.5207  0.9245  1.5117
18044TIP3   OH275546   2.511   5.827  15.333  0.6646  0.2029 -0.5879
18044TIP3    H175547   2.580   5.824  15.266  1.7162 -0.0440  0.4787
18044TIP3    H275548   2.537   5.760  15.396 -0.6091  0.0541 -0.2012
18045TIP3   OH275549   4.511   4.038   5.545 -0.2107 -0.3261 -0.3509
18045TIP3    H175550   4.529   4.025   5.452  0.3904 -0.9160 -0.1525
18045TIP3    H275551   4.511   4.133   5.556 -0.3184 -0.2517 -0.9533
18046TIP3   OH275552   2.370   3.378  15.905 -0.7060 -0.2803 -0.4073
18046TIP3    H175553   2.353   3.456  15.852 -0.2665  1.0691  1.4102
18046TIP3    H275554   2.314   3.310  15.866 -0.8162  0.8154 -2.2308
18047TIP3   OH275555   4.537   0.089   1.630  0.1514 -0.1679 -0.1535
18047TIP3    H175556   4.581   0.070   1.713 -0.7234 -2.3099 -0.1435
18047TIP3    H275557   4.609   0.098   1.567  0.7214 -1.6082  0.2569
18048TIP3   OH275558   1.519   2.217  15.857  0.1632  0.0547  0.2714
18048TIP3    H175559   1.573   2.265  15.795 -0.2544 -0.1676 -0.2685
18048TIP3    H275560   1.493   2.138  15.810 -0.5895  0.1380  0.5397
18049TIP3   OH275561   0.003   1.645  12.783  0.2678  0.3337 -1.0102
18049TIP3    H175562   0.095   1.620  12.780  0.2751  0.1126  0.5821
18049TIP3    H275563  -0.026   1.619  12.871 -0.9550  1.6333 -1.0197
18050TIP3   OH275564   1.025   6.467  10.648 -0.0122  0.2283 -0.0827
18050TIP3    H175565   1.068   6.546  10.614 -0.2892  0.4132 -0.0039
18050TIP3    H275566   0.978   6.432  10.574 -0.7671  0.7330  0.1516
18051TIP3   OH275567   2.192   2.185  12.691 -0.1267  0.0562 -0.4959
18051TIP3    H175568   2.150   2.256  12.643  0.1534  0.5956  0.0524
18051TIP3    H275569   2.158   2.192  12.780  0.6155  0.0921 -0.2061
18052TIP3   OH275570   2.816   1.669   2.455  0.1900 -0.1475  0.8848
18052TIP3    H175571   2.910   1.668   2.436  0.1965  0.2391  0.8890
18052TIP3    H275572   2.779   1.727   2.388  0.0087  0.0208  1.1268
18053TIP3   OH275573   5.060   3.323   6.135  0.1485  0.4142  0.8162
18053TIP3    H175574   5.050   3.255   6.069  0.9020  1.2121 -0.1376
18053TIP3    H275575   5.112   3.281   6.204  1.6612  0.3566 -0.3132
18054TIP3   OH275576   1.352   5.758  13.624 -0.1322 -0.0291  0.2646
18054TIP3    H175577   1.283   5.800  13.572  1.1442  0.6905 -0.9082
18054TIP3    H275578   1.434   5.791  13.585  0.8659 -0.7131  1.7422
18055TIP3   OH275579   6.335   5.063   3.234 -0.4064 -0.7529 -0.8090
18055TIP3    H175580   6.293   4.989   3.190  0.7338 -2.1766  0.4702
18055TIP3    H275581   6.426   5.036   3.246  0.4174  1.4941 -1.7320
18056TIP3   OH275582   1.451   6.474  16.137 -0.1074 -0.1571 -0.8756
18056TIP3    H175583   1.502   6.505  16.212 -1.8635 -0.4400  0.4968
18056TIP3    H275584   1.516   6.453  16.070  1.3092  3.9838 -0.9499
18057TIP3   OH275585   1.646   0.282  14.854 -0.0858 -0.3909 -0.0323
18057TIP3    H175586   1.720   0.252  14.799 -0.6780 -0.3629 -0.8502
18057TIP3    H275587   1.677   0.363  14.894  0.0880 -0.0138 -0.9117
18058TIP3   OH275588   3.815   1.773   2.873  0.1276  0.7393 -0.3651
18058TIP3    H175589   3.907   1.755   2.853 -0.4929 -1.1080 -1.6676
18058TIP3    H275590   3.766   1.727   2.804 -1.8342 -0.0683  1.5228
18059TIP3   OH275591   0.843   1.447   3.413 -0.6323 -0.9732 -0.4048
18059TIP3    H175592   0.810   1.406   3.332 -3.2049 -0.9424  0.6007
18059TIP3    H275593   0.782   1.418   3.481 -0.1871  1.3566  1.0254
18060TIP3   OH275594   5.728   5.519   0.889  0.4052 -0.6923  0.8994
18060TIP3    H175595   5.665   5.469   0.942  1.3957 -2.1416  0.7486
18060TIP3    H275596   5.723   5.479   0.802  0.1827  0.4109  0.4036
18061TIP3   OH275597   3.008   5.533   1.089  0.2108 -0.4760 -0.2958
18061TIP3    H175598   3.028   5.590   1.015  1.6829 -1.8898 -1.0389
18061TIP3    H275599   2.914   5.516   1.082  0.1032  0.4330 -1.0944
18062TIP3   OH275600   0.886   2.275  12.415 -0.0338 -0.3872 -0.6356
18062TIP3    H175601   0.913   2.246  12.328  0.9213 -0.1214 -0.4378
18062TIP3    H275602   0.834   2.203  12.450  0.9737 -1.1998 -0.7810
18063TIP3   OH275603   5.426   4.106   1.557 -0.2354 -0.1986  0.3690
18063TIP3    H175604   5.459   4.141   1.640  0.4984 -1.9822  0.8593
18063TIP3    H275605   5.503   4.100   1.501 -0.7597  1.1449 -0.5000
18064TIP3   OH275606   2.820   6.190   1.730 -0.0326  0.2031  0.2330
18064TIP3    H175607   2.866   6.273   1.738 -0.6353  0.6613 -0.8972
18064TIP3    H275608   2.753   6.206   1.663 -1.0313 -0.8021  0.9791
18065TIP3   OH275609   6.206   6.001   4.798  0.1903  0.5237 -0.1813
18065TIP3    H175610   6.203   5.989   4.703  0.0938 -0.2149 -0.0838
18065TIP3    H275611   6.140   5.942   4.833 -0.2679  1.3128  0.3033
18066TIP3   OH275612   4.243   3.437   3.997 -0.0131 -0.0671 -0.4345
18066TIP3    H175613   4.153   3.433   3.964  0.2415 -1.5465 -0.9766
18066TIP3    H275614   4.264   3.530   3.997 -2.0553  0.4396  1.0839
18067TIP3   OH275615   3.725   1.474   1.468 -0.1376 -0.0853  0.3839
18067TIP3    H175616   3.655   1.518   1.515 -0.5379  0.1473 -0.4159
18067TIP3    H275617   3.687   1.390   1.442 -0.3945  0.3612 -0.7272
18068TIP3   OH275618   6.532   6.184   0.359  0.0215 -0.0873 -0.8214
18068TIP3    H175619   6.512   6.253   0.422  1.6244  1.0679 -1.5510
18068TIP3    H275620   6.449   6.170   0.313 -1.6282 -2.0553  2.5212
18069TIP3   OH275621   2.473   2.194  16.348  0.0458  0.9037  0.5189
18069TIP3    H175622   2.530   2.139  16.402  0.6383  2.6798  1.7820
18069TIP3    H275623   2.529   2.225  16.277 -0.7935 -1.6136 -1.3015
18070TIP3   OH275624   2.472   2.879   5.148 -0.4627  0.9748 -0.0028
18070TIP3    H175625   2.516   2.869   5.063  2.2122  0.9330  1.3447
18070TIP3    H275626   2.494   2.968   5.175 -1.0826  0.8921  0.7761
18071TIP3   OH275627   4.901   6.720   4.304  0.1893  0.1499 -0.4385
18071TIP3    H175628   4.824   6.733   4.359 -0.1669 -0.1299 -0.8599
18071TIP3    H275629   4.873   6.747   4.217  1.4775  2.8862 -0.0384
18072TIP3   OH275630   1.110   5.042  14.898  0.5145  0.5374  0.4985
18072TIP3    H175631   1.102   5.052  14.993  0.2311  1.0064  0.4285
18072TIP3    H275632   1.126   5.131  14.867 -2.3335  0.8689 -0.1773
18073TIP3   OH275633   1.727   2.495   5.489 -0.2068  0.1519 -0.2789
18073TIP3    H175634   1.717   2.552   5.565  1.0300 -1.6440  1.2814
18073TIP3    H275635   1.804   2.530   5.443 -1.2670  1.5548 -1.0340
18074TIP3   OH275636   1.927   5.207   3.229  0.5873  0.1467  0.2022
18074TIP3    H175637   1.940   5.298   3.200  1.4155  0.0131  0.1453
18074TIP3    H275638   1.939   5.155   3.149  1.4008 -0.1092  0.4857
18075TIP3   OH275639   3.910   2.069   4.258  0.1224  0.1482 -0.0227
18075TIP3    H175640   3.958   1.988   4.277  0.3265  0.5004  0.9716
18075TIP3    H275641   3.891   2.107   4.343 -1.0035  0.5649 -0.4427
18076TIP3   OH275642   0.198   3.294  12.750 -0.2463  0.0668  0.2012
18076TIP3    H175643   0.202   3.363  12.684 -1.3555 -1.2256 -1.2382
18076TIP3    H275644   0.219   3.213  12.703 -2.9060 -1.1339  0.9913
18077TIP3   OH275645   5.689   6.526  10.925 -0.2925 -0.2418  0.2861
18077TIP3    H175646   5.779   6.525  10.958 -0.2709 -1.4390  0.2268
18077TIP3    H275647   5.636   6.492  10.997 -0.9089  1.8619  0.8542
18078TIP3   OH275648   6.108   6.626   4.213 -0.6657 -0.0541 -0.8709
18078TIP3    H175649   6.029   6.602   4.166 -1.4769  0.1869  0.3443
18078TIP3    H275650   6.157   6.544   4.222 -0.8960 -0.2488 -1.4067
18079TIP3   OH275651   3.175   5.419  14.249  0.3158 -0.1718  0.1064
18079TIP3    H175652   3.264   5.453  14.239  0.4438 -0.0464  1.6686
18079TIP3    H275653   3.171   5.344  14.189  1.6635 -0.5569  0.4983
18080TIP3   OH275654   5.748   0.243   6.028 -0.4797 -0.4473 -0.0918
18080TIP3    H175655   5.706   0.255   6.113  0.5526 -0.4816  0.4258
18080TIP3    H275656   5.740   0.328   5.985 -0.3388 -0.2117  0.3414
18081TIP3   OH275657   2.298   6.697   2.718  0.0029 -0.5356 -0.7999
18081TIP3    H175658   2.346   6.732   2.643  0.0621  2.0722  0.3841
18081TIP3    H275659   2.206   6.715   2.698  0.1817  2.8454  0.9362
18082TIP3   OH275660   2.361   1.702  12.706 -0.2118 -0.1897  0.4556
18082TIP3    H175661   2.342   1.792  12.680  0.1379 -0.3831 -0.4690
18082TIP3    H275662   2.456   1.697  12.709 -0.1934 -0.9815 -1.1056
18083TIP3   OH275663   3.824   5.443   3.174 -0.3377  0.1352 -0.4246
18083TIP3    H175664   3.781   5.379   3.118 -1.1648  0.9046 -0.6738
18083TIP3    H275665   3.810   5.527   3.130  0.5789  0.5149 -0.0057
18084TIP3   OH275666   1.244   0.614  14.726 -0.2759  0.9203  0.1379
18084TIP3    H175667   1.251   0.646  14.816 -0.1441  2.7810 -0.5098
18084TIP3    H275668   1.333   0.622  14.691 -0.6012  1.4558 -0.5669
18085TIP3   OH275669   5.254   3.215  11.045  0.3601 -0.2198  0.1062
18085TIP3    H175670   5.300   3.183  10.968  0.1036  3.0806 -1.5002
18085TIP3    H275671   5.321   3.258  11.098  0.2195 -0.9112  0.8585
18086TIP3   OH275672   3.949   2.579  12.401  0.2675 -0.2228 -0.7252
18086TIP3    H175673   3.967   2.486  12.397  3.3550  0.3054 -0.5833
18086TIP3    H275674   3.882   2.594  12.334  0.5668 -2.3555 -1.5132
18087TIP3   OH275675   5.281   3.877  16.294  0.1781  0.6905  0.1206
18087TIP3    H175676   5.291   3.818  16.219  2.1457  1.6260 -0.3902
18087TIP3    H275677   5.247   3.822  16.364 -0.8656 -0.3867 -1.2097
18088TIP3   OH275678   2.270   5.512   4.052 -0.4875 -0.7039  0.1457
18088TIP3    H175679   2.242   5.597   4.017 -1.0461 -1.2034 -0.6399
18088TIP3    H275680   2.347   5.532   4.105  1.0313 -0.0518 -2.2231
18089TIP3   OH275681   1.854   3.053  16.064  0.0785  0.0278  0.2911
18089TIP3    H175682   1.763   3.059  16.090  0.0350  1.3340 -0.1099
18089TIP3    H275683   1.889   3.142  16.077  1.3201 -0.4929  0.5933
18090TIP3   OH275684   3.418   2.482   1.299 -0.1786 -0.7655 -0.0950
18090TIP3    H175685   3.432   2.528   1.216  1.7389 -1.1571 -0.0152
18090TIP3    H275686   3.505   2.478   1.339 -1.1729  0.0500  2.2793
18091TIP3   OH275687   2.289   4.677   3.176  0.1042  0.3096  0.1065
18091TIP3    H175688   2.326   4.683   3.088  0.3364  2.4927  0.3201
18091TIP3    H275689   2.348   4.619   3.224  0.8364  0.3493 -0.7474
18092TIP3   OH275690   4.579   5.965   1.897 -0.5092  0.3767 -0.3342
18092TIP3    H175691   4.531   6.027   1.844  0.9798  1.9079  0.0487
18092TIP3    H275692   4.525   5.953   1.975 -1.6858 -0.2540 -1.2341
18093TIP3   OH275693   4.546   5.650   4.479 -0.2573 -0.3493 -0.3751
18093TIP3    H175694   4.547   5.561   4.444 -0.4213 -0.5279  0.0622
18093TIP3    H275695   4.560   5.638   4.573  1.8523  0.2271 -0.5908
18094TIP3   OH275696   0.445   0.718  13.170 -0.3035 -0.1214 -0.6684
18094TIP3    H175697   0.486   0.656  13.109 -0.3477 -1.1590  0.3351
18094TIP3    H275698   0.498   0.797  13.162  1.7962 -1.3627  0.4293
18095TIP3   OH275699   1.756   1.766  11.274  0.5126  0.0536 -0.4140
18095TIP3    H175700   1.808   1.799  11.202  0.7608 -0.5981 -0.5357
18095TIP3    H275701   1.798   1.801  11.353 -0.0550  1.1792 -0.5989
18096TIP3   OH275702   4.877   4.659  10.921  0.4167 -0.5116  0.1361
18096TIP3    H175703   4.935   4.643  10.846  2.7905 -0.2894  1.8686
18096TIP3    H275704   4.892   4.585  10.979  0.4497  0.5438  1.5002
18097TIP3   OH275705   1.141   3.904  16.330 -0.6594 -0.1940  0.0201
18097TIP3    H175706   1.134   3.986  16.282 -2.1072 -0.5180 -0.3413
18097TIP3    H275707   1.086   3.916  16.407  0.3600 -0.2694  0.7768
18098TIP3   OH275708   0.232   6.044  17.231  0.4389 -0.1536 -0.5923
18098TIP3    H175709   0.308   6.017  17.178  0.5828 -1.9202  0.4604
18098TIP3    H275710   0.270   6.079  17.311  0.2110  2.2653 -1.5203
18099TIP3   OH275711   5.342   3.046   4.827  0.4698 -0.3069 -0.2372
18099TIP3    H175712   5.250   3.073   4.822  0.0307 -1.8280 -0.6362
18099TIP3    H275713   5.388   3.110   4.772 -0.3962  0.2351 -0.3483
18100TIP3   OH275714   5.620   3.514   3.189 -0.5495  0.1201  0.4869
18100TIP3    H175715   5.704   3.544   3.152 -1.3404  0.4351 -1.0977
18100TIP3    H275716   5.554   3.566   3.144 -1.9411 -3.6372 -2.1025
18101TIP3   OH275717   3.261   1.063  11.802  0.2157 -0.7687 -0.2852
18101TIP3    H175718   3.186   1.106  11.842 -0.1334 -1.6328  0.0104
18101TIP3    H275719   3.333   1.077  11.864 -0.0187 -1.0391  0.0506
18102TIP3   OH275720   0.745   1.296   3.183 -0.3970  0.1340  0.0570
18102TIP3    H175721   0.716   1.305   3.092 -0.9967  0.3748  0.2745
18102TIP3    H275722   0.825   1.243   3.177  0.1681  1.0536 -0.7156
18103TIP3   OH275723   5.995   0.332  11.214 -0.0930 -0.5540  0.4784
18103TIP3    H175724   5.972   0.274  11.141 -1.4577 -0.2039  0.6250
18103TIP3    H275725   5.966   0.419  11.187 -3.3422 -0.8788  2.6016
18104TIP3   OH275726   6.785   2.347  15.752  0.1682  0.4942  0.0733
18104TIP3    H175727   6.740   2.431  15.744 -2.7659 -1.2186 -2.4845
18104TIP3    H275728   6.827   2.351  15.838  0.0879  4.5202  0.0498
18105TIP3   OH275729   6.041   3.955   5.578  0.7132 -0.5974  0.0730
18105TIP3    H175730   6.111   3.990   5.522  0.3787 -1.5390 -0.9597
18105TIP3    H275731   6.082   3.885   5.628  1.2959  1.0070  1.8796
18106TIP3   OH275732   3.033   1.854   4.110 -0.3430  0.0322  0.3254
18106TIP3    H175733   3.018   1.943   4.139 -1.2549 -0.0307  0.0625
18106TIP3    H275734   2.963   1.803   4.150 -0.5488 -0.3534 -0.4957
18107TIP3   OH275735   6.334   0.079  15.584 -0.3335 -0.3302 -0.1700
18107TIP3    H175736   6.318   0.109  15.673 -0.9209 -0.8431 -0.0956
18107TIP3    H275737   6.246   0.074  15.545 -0.1950 -1.3583 -0.3598
18108TIP3   OH275738   4.314   4.389  14.177 -0.1968 -0.6075 -0.5902
18108TIP3    H175739   4.221   4.373  14.192 -0.0216 -0.1268  1.0134
18108TIP3    H275740   4.340   4.452  14.244  1.3625 -0.9906 -0.8009
18109TIP3   OH275741   1.684   0.950  16.630  0.2252 -0.3568 -0.1556
18109TIP3    H175742   1.608   0.961  16.573  0.1842  0.2146  0.0060
18109TIP3    H275743   1.696   1.035  16.671  0.0615 -0.8477  0.9349
18110TIP3   OH275744   4.180   5.571  11.747  0.3799 -0.0025 -0.1637
18110TIP3    H175745   4.237   5.503  11.785  1.0760 -0.0685 -1.3009
18110TIP3    H275746   4.124   5.524  11.686 -1.1021  0.0263  1.1293
18111TIP3   OH275747   6.211   5.227   2.226 -0.1586 -0.1067  0.1754
18111TIP3    H175748   6.290   5.256   2.180  1.5002  0.2999  3.1560
18111TIP3    H275749   6.233   5.140   2.259 -1.7113 -0.8412 -0.6539
18112TIP3   OH275750   0.258   1.084  16.470 -0.1122  0.0351  0.4747
18112TIP3    H175751   0.272   1.129  16.553 -1.0870 -2.0631  1.8112
18112TIP3    H275752   0.164   1.066  16.468 -0.1013  0.0474 -1.0985
18113TIP3   OH275753   1.129   4.533  16.528 -0.3171 -0.5230 -0.2455
18113TIP3    H175754   1.061   4.598  16.509  0.4868  0.4975  0.2873
18113TIP3    H275755   1.129   4.474  16.453 -2.0400 -0.7519 -0.0828
18114TIP3   OH275756   5.832   0.077   6.375 -0.2329  0.1165  0.4110
18114TIP3    H175757   5.794   0.164   6.379 -0.6674  0.0723 -2.0592
18114TIP3    H275758   5.759   0.019   6.355  0.3119 -0.6274  0.5286
18115TIP3   OH275759   2.078   5.709   0.697 -0.0529 -0.1020  0.1782
18115TIP3    H175760   2.058   5.649   0.769  2.2736 -1.4273 -0.2352
18115TIP3    H275761   2.089   5.652   0.621 -0.1600  1.0788 -0.7385
18116TIP3   OH275762   1.026   5.139  13.135 -0.1219 -0.0128 -0.0251
18116TIP3    H175763   1.117   5.135  13.104 -0.2476 -3.0690 -0.2289
18116TIP3    H275764   1.032   5.178  13.222  1.2999  0.5396 -0.3546
18117TIP3   OH275765   6.603   1.672  15.478 -0.4920  0.2032 -0.5126
18117TIP3    H175766   6.690   1.681  15.440 -0.6647  2.6598 -0.4096
18117TIP3    H275767   6.544   1.711  15.413 -1.3143  0.2530  0.2493
18118TIP3   OH275768   4.675   5.363   2.952 -0.5207 -0.3113 -0.1730
18118TIP3    H175769   4.704   5.449   2.922 -1.1819 -0.2077 -0.5317
18118TIP3    H275770   4.652   5.376   3.044 -2.1478  0.2802 -0.6505
18119TIP3   OH275771   2.123   5.757  16.130  0.6171 -0.1380 -0.6601
18119TIP3    H175772   2.181   5.794  16.197 -1.3540 -0.0445  1.0695
18119TIP3    H275773   2.144   5.805  16.050  2.6852  0.0957 -0.0061
18120TIP3   OH275774   5.748   2.560   0.732 -0.0350  0.2373  0.3620
18120TIP3    H175775   5.815   2.620   0.763 -1.7817  1.7032  1.4592
18120TIP3    H275776   5.683   2.617   0.690 -1.0567 -1.0248  0.2033
18121TIP3   OH275777   1.937   1.681   1.408  0.2692 -0.3929 -0.3118
18121TIP3    H175778   1.916   1.588   1.416 -1.0647 -0.0308  0.5123
18121TIP3    H275779   2.032   1.683   1.394  0.2384 -1.8884 -0.7662
18122TIP3   OH275780   2.512   3.836  15.676  0.1019 -0.3441 -0.0600
18122TIP3    H175781   2.541   3.747  15.696  1.2877 -0.0530 -0.4628
18122TIP3    H275782   2.505   3.839  15.581 -1.5055 -0.4751  0.0337
18123TIP3   OH275783   6.442   5.440  12.923  0.0550  0.3435  0.5138
18123TIP3    H175784   6.390   5.422  13.001 -0.2474 -1.9035 -0.1524
18123TIP3    H275785   6.510   5.372  12.924  0.0622  0.2964 -1.1448
18124TIP3   OH275786   2.454   1.264  11.863 -0.4376 -0.1786 -0.4546
18124TIP3    H175787   2.395   1.313  11.919  0.4501  1.4160 -0.8916
18124TIP3    H275788   2.425   1.284  11.774 -0.5507 -1.0543 -0.6181
18125TIP3   OH275789   0.502   6.195   2.380  0.1743  0.5767 -0.0605
18125TIP3    H175790   0.449   6.247   2.439 -1.5212  1.1841 -2.0516
18125TIP3    H275791   0.580   6.172   2.431 -0.8286  1.7955  2.0828
18126TIP3   OH275792   3.740   1.204  14.381 -0.2644  0.2294 -1.0238
18126TIP3    H175793   3.779   1.245  14.458 -0.8302  1.3376 -1.3275
18126TIP3    H275794   3.755   1.110  14.395  1.3202  0.5357 -0.4884
18127TIP3   OH275795   1.371   3.868   2.731  0.2418 -0.0471 -0.2327
18127TIP3    H175796   1.312   3.809   2.778  1.2743  0.6745  2.0573
18127TIP3    H275797   1.314   3.939   2.701 -0.9684 -2.0523 -2.8175
18128TIP3   OH275798   6.681   4.421  15.283  0.2633 -0.1288 -0.1064
18128TIP3    H175799   6.717   4.473  15.211  1.5870  0.9609  1.3028
18128TIP3    H275800   6.599   4.386  15.249  1.4659 -0.6651 -2.5729
18129TIP3   OH275801   0.664   3.898   1.409  0.0036  0.6830  0.3308
18129TIP3    H175802   0.621   3.814   1.396 -0.6015  1.1162 -0.5009
18129TIP3    H275803   0.704   3.918   1.325  2.8056 -0.2251  1.3764
18130TIP3   OH275804   5.742   1.823  14.981  0.0863  0.3885 -0.3756
18130TIP3    H175805   5.737   1.878  14.903 -1.7128 -1.7951 -1.8756
18130TIP3    H275806   5.803   1.753  14.958 -0.0556  0.0199  0.3507
18131TIP3   OH275807   5.543   2.669  11.458  0.0208 -0.1679  0.1468
18131TIP3    H175808   5.454   2.674  11.424 -0.1674 -0.6650  0.5579
18131TIP3    H275809   5.559   2.755  11.498  0.1243  0.3022 -0.8937
18132TIP3   OH275810   0.830   0.190  16.864 -0.2007 -0.3643  0.0496
18132TIP3    H175811   0.850   0.224  16.777  0.3540  1.3532  0.8193
18132TIP3    H275812   0.892   0.234  16.922 -1.4539 -0.4507  1.4988
18133TIP3   OH275813   2.885   6.253  12.108  0.1763  0.2836  0.2610
18133TIP3    H175814   2.925   6.231  12.193  0.4886 -0.3041 -0.0345
18133TIP3    H275815   2.816   6.187  12.098 -0.2521  0.7219  0.3358
18134TIP3   OH275816   0.916   2.543  11.511 -0.1564  0.2147  0.4405
18134TIP3    H175817   0.834   2.499  11.533 -0.0806 -0.0919  0.1102
18134TIP3    H275818   0.900   2.581  11.425  0.6092 -1.2526 -0.3522
18135TIP3   OH275819   4.145   5.342   4.293  0.1860  0.2962  0.2431
18135TIP3    H175820   4.131   5.436   4.284 -0.7488  0.0876 -0.5708
18135TIP3    H275821   4.229   5.325   4.251 -0.0879  0.6340 -0.4468
18136TIP3   OH275822   4.026   4.515   4.645 -0.5744  0.2822  0.2348
18136TIP3    H175823   4.074   4.549   4.720  1.0768 -3.5591  1.0682
18136TIP3    H275824   3.943   4.484   4.682 -1.2225  1.5483 -0.1534
18137TIP3   OH275825   6.376   2.614  16.767  0.0812 -0.1817 -0.6249
18137TIP3    H175826   6.384   2.699  16.811  1.4463 -0.5486 -0.1668
18137TIP3    H275827   6.320   2.563  16.825 -2.8439  1.2044 -2.1107
18138TIP3   OH275828   4.982   2.354   0.196  0.0260 -0.7361  0.4662
18138TIP3    H175829   5.030   2.386   0.273 -1.0614  0.1570  0.7876
18138TIP3    H275830   4.899   2.322   0.231 -2.5216  4.0227 -0.7856
18139TIP3   OH275831   4.704   2.503  14.437  0.1728  0.0451  0.2098
18139TIP3    H175832   4.703   2.523  14.344 -0.0935  0.3295  0.2741
18139TIP3    H275833   4.792   2.527  14.466  0.1271  0.3225  0.1132
18140TIP3   OH275834   6.360   0.738  13.428 -0.2661  0.4063  0.1148
18140TIP3    H175835   6.368   0.783  13.512  0.7285 -0.4710  0.5077
18140TIP3    H275836   6.275   0.766  13.393 -1.4860 -0.6126  2.2141
18141TIP3   OH275837   3.646   4.398   2.338  0.1401  0.2411 -0.1230
18141TIP3    H175838   3.632   4.470   2.400  1.8355  0.9605 -0.5433
18141TIP3    H275839   3.589   4.418   2.264  0.1796  0.8550  0.0081
18142TIP3   OH275840   0.008   1.954   5.198  0.0398  0.1030 -0.0263
18142TIP3    H175841  -0.029   1.866   5.203 -1.2342  0.6786  1.1421
18142TIP3    H275842   0.018   1.981   5.290 -0.3960  1.4981 -0.3725
18143TIP3   OH275843   2.960   6.239  12.382 -0.3204  0.4273  0.3013
18143TIP3    H175844   2.957   6.334  12.390  0.5274  0.5121 -0.2883
18143TIP3    H275845   2.881   6.208  12.427 -2.2137  1.5852 -2.1045
18144TIP3   OH275846   4.319   5.745   0.248 -0.1344  0.4116 -0.1059
18144TIP3    H175847   4.364   5.797   0.314 -0.2404 -1.4875  1.5266
18144TIP3    H275848   4.226   5.755   0.268 -0.2010  0.4173 -0.4122
18145TIP3   OH275849   0.989   4.017  13.082 -0.0337  0.4251 -0.1084
18145TIP3    H175850   0.972   4.069  13.003  0.3605  1.0493  0.2253
18145TIP3    H275851   1.005   4.081  13.151 -2.2469 -0.0916  0.9117
18146TIP3   OH275852   5.615   3.318   3.724  0.5488  0.8365 -0.3117
18146TIP3    H175853   5.611   3.358   3.637  2.7385 -0.4547 -1.0510
18146TIP3    H275854   5.706   3.291   3.734  0.1838  0.3890  2.1359
18147TIP3   OH275855   5.351   4.076   1.875  0.4108  0.4674  0.2294
18147TIP3    H175856   5.401   4.154   1.851  0.2155  1.0386  1.6475
18147TIP3    H275857   5.260   4.099   1.856  0.3161  0.7184  0.9630
18148TIP3   OH275858   3.477   4.534   4.362 -0.0109 -0.0683  0.2296
18148TIP3    H175859   3.535   4.555   4.435  0.4952  0.6090 -0.3520
18148TIP3    H275860   3.452   4.620   4.327 -0.0326 -0.3876 -0.5534
18149TIP3   OH275861   5.513   3.810  10.905  0.0086 -0.3196  0.2420
18149TIP3    H175862   5.537   3.888  10.855  1.5979 -1.1369 -0.3027
18149TIP3    H275863   5.534   3.832  10.996  0.5191 -0.1433  0.0800
18150TIP3   OH275864   1.058   3.803   5.828  0.2359 -0.1050  0.1295
18150TIP3    H175865   1.075   3.799   5.922 -1.3945  0.5712  0.4603
18150TIP3    H275866   1.137   3.766   5.788  0.8786 -0.5296  1.7596
18151TIP3   OH275867   3.109   6.528   2.138  0.2970 -0.2587  0.2699
18151TIP3    H175868   3.060   6.610   2.135  0.9591  0.2080  1.9258
18151TIP3    H275869   3.065   6.475   2.204  0.7741 -0.6374  0.2933
18152TIP3   OH275870   1.280   1.665  13.215  0.5964 -0.3044  0.5690
18152TIP3    H175871   1.304   1.686  13.124 -1.9736 -2.2969 -0.6267
18152TIP3    H275872   1.201   1.717  13.231  0.6024 -0.5584  1.4212
18153TIP3   OH275873   1.072   6.033  11.219 -0.3605  0.6564  0.4040
18153TIP3    H175874   1.046   5.947  11.185 -2.2566  1.3057  0.1082
18153TIP3    H275875   1.074   6.021  11.314 -0.4027  0.2117  0.3501
18154TIP3   OH275876   0.237   6.577   4.235  0.4181 -0.1479 -0.0191
18154TIP3    H175877   0.280   6.655   4.270 -0.0416 -0.8909  2.3208
18154TIP3    H275878   0.215   6.526   4.313 -1.4341 -1.4818 -1.3920
18155TIP3   OH275879   2.354   4.095  13.293  0.3292  0.3229  0.1871
18155TIP3    H175880   2.322   4.175  13.251 -1.5008 -0.3892  0.1982
18155TIP3    H275881   2.373   4.121  13.383  0.7780  0.9953 -0.0989
18156TIP3   OH275882   4.796   2.304   2.954 -0.1831 -0.2052 -0.2523
18156TIP3    H175883   4.762   2.237   3.013  1.8541 -0.1308  1.0849
18156TIP3    H275884   4.757   2.386   2.984 -0.2117 -0.3629  0.1337
18157TIP3   OH275885   5.514   3.517  12.613  0.0527 -0.3067  0.3248
18157TIP3    H175886   5.529   3.508  12.519  1.0117  3.4366  0.0788
18157TIP3    H275887   5.421   3.497  12.624 -0.3474  0.4251 -1.6045
18158TIP3   OH275888   6.338   0.681  12.553  0.0777 -0.2863  0.0997
18158TIP3    H175889   6.254   0.638  12.570 -0.1460  0.2173  0.2777
18158TIP3    H275890   6.403   0.621  12.588 -0.1241 -1.3506 -1.3296
18159TIP3   OH275891   5.688   3.060   0.130 -0.1299 -0.0152 -0.2832
18159TIP3    H175892   5.615   3.086   0.073 -1.1548 -0.5388  0.7763
18159TIP3    H275893   5.734   3.142   0.148 -1.8361  0.7138  0.9220
18160TIP3   OH275894   0.793   3.402  14.210  0.2306 -0.2162  0.3797
18160TIP3    H175895   0.729   3.404  14.139  1.7808 -0.1673 -1.0127
18160TIP3    H275896   0.838   3.318  14.200  0.7643 -0.0127  1.0421
18161TIP3   OH275897   1.160   3.810   3.629 -0.3228  0.1575 -0.2230
18161TIP3    H175898   1.215   3.740   3.591  0.3697  0.4753  0.1802
18161TIP3    H275899   1.071   3.782   3.612 -0.0447 -0.7355 -0.2512
18162TIP3   OH275900   3.010   1.819  14.779 -0.1045  0.0302  0.3839
18162TIP3    H175901   2.964   1.802  14.861 -0.3706 -0.8731  0.0623
18162TIP3    H275902   2.942   1.810  14.711  0.6744 -2.0966 -0.1565
18163TIP3   OH275903   2.680   4.343   3.989 -0.1999  0.4939 -0.1747
18163TIP3    H175904   2.645   4.303   4.069  1.0935 -0.6127 -0.1606
18163TIP3    H275905   2.645   4.289   3.918 -0.0667  0.5388 -0.2736
18164TIP3   OH275906   1.441   5.355  12.115 -0.2060  0.6199  0.1127
18164TIP3    H175907   1.510   5.293  12.139  0.1063  1.7771  2.3599
18164TIP3    H275908   1.390   5.366  12.196 -3.5149 -0.7952 -1.7091
18165TIP3   OH275909   3.728   6.742   4.772 -0.7238  0.7458 -0.0808
18165TIP3    H175910   3.712   6.745   4.867  5.0369  2.3337  1.0164
18165TIP3    H275911   3.765   6.828   4.752  1.3393 -0.7851 -3.1038
18166TIP3   OH275912   4.471   2.352  16.354  0.2546  0.2981  0.4491
18166TIP3    H175913   4.501   2.432  16.310 -1.0464  0.7957  0.4592
18166TIP3    H275914   4.508   2.358  16.442  0.6077  0.6230  0.2822
18167TIP3   OH275915   5.850   6.453   4.415 -0.0812  0.1992 -0.0176
18167TIP3    H175916   5.925   6.460   4.474 -0.4222  1.0978  0.3259
18167TIP3    H275917   5.886   6.417   4.334  0.9300  1.6234 -0.2318
18168TIP3   OH275918   4.617   1.994  14.062 -0.7156  0.3838  0.2740
18168TIP3    H175919   4.527   2.019  14.040  0.0362  0.1149 -3.4873
18168TIP3    H275920   4.654   2.072  14.104 -2.4552  0.7302  1.2440
18169TIP3   OH275921   1.657   4.655  14.311 -0.0985 -0.7412 -0.8019
18169TIP3    H175922   1.656   4.600  14.390 -2.6379  1.0882  0.5456
18169TIP3    H275923   1.749   4.680  14.300  0.2409 -0.5384  1.9853
18170TIP3   OH275924   0.515   4.134   5.245  0.1682 -0.0553 -0.0469
18170TIP3    H175925   0.581   4.065   5.255  1.7934  1.3874 -0.6426
18170TIP3    H275926   0.484   4.125   5.155 -0.5965 -0.8457  0.2875
18171TIP3   OH275927   1.665   3.065   0.864  0.0829  0.0918 -0.4415
18171TIP3    H175928   1.655   2.972   0.846  3.4103 -0.2518 -0.7808
18171TIP3    H275929   1.662   3.072   0.959  0.4690 -0.4525 -0.3877
18172TIP3   OH275930   4.978   6.507   0.151  0.6399 -0.0906  0.2058
18172TIP3    H175931   4.885   6.521   0.171  0.8263  0.8751  0.4037
18172TIP3    H275932   5.017   6.481   0.234  0.2090 -2.3140 -0.2515
18173TIP3   OH275933   1.603   0.670  13.722  0.2500 -0.4069  0.1106
18173TIP3    H175934   1.636   0.750  13.680 -0.2065 -1.2147 -1.8204
18173TIP3    H275935   1.508   0.680  13.721  0.2251 -0.5787  0.6685
18174TIP3   OH275936   2.796   4.003   6.584  0.0603 -0.5192 -0.1213
18174TIP3    H175937   2.760   4.091   6.596 -1.3197 -1.0182 -0.5202
18174TIP3    H275938   2.777   3.959   6.667  1.5386 -0.1775  0.4088
18175TIP3   OH275939   5.633   6.141  16.449  0.6152 -0.3280  0.5128
18175TIP3    H175940   5.580   6.155  16.527 -1.6235 -0.5346 -0.9444
18175TIP3    H275941   5.610   6.052  16.420  1.6653 -0.3790 -0.2104
18176TIP3   OH275942   2.247   5.298   2.924 -0.3509 -0.6763  0.2943
18176TIP3    H175943   2.230   5.313   3.017  0.7100 -1.8600  0.6891
18176TIP3    H275944   2.186   5.357   2.879 -0.4907  0.3045  1.7322
18177TIP3   OH275945   1.998   2.472   4.478  0.4877  0.3484 -0.3362
18177TIP3    H175946   2.004   2.394   4.422  0.2096 -0.2376  0.4391
18177TIP3    H275947   1.944   2.533   4.429 -1.1992 -0.8143  0.0393
18178TIP3   OH275948   2.113   2.895   3.346  0.1873  0.2909  0.1594
18178TIP3    H175949   2.073   2.934   3.424  0.2583 -0.0683  0.3835
18178TIP3    H275950   2.041   2.850   3.302 -0.1934  1.8995 -0.8975
18179TIP3   OH275951   5.037   5.982   6.196 -0.1461  0.2574 -0.5487
18179TIP3    H175952   5.109   5.921   6.214  1.4275  1.7546 -1.7092
18179TIP3    H275953   4.991   5.989   6.280  2.6800  1.3798  0.9775
18180TIP3   OH275954   2.303   0.134   4.449 -0.2541 -0.2238 -0.0669
18180TIP3    H175955   2.271   0.051   4.413  1.6638 -1.0058 -0.0808
18180TIP3    H275956   2.308   0.192   4.374 -3.6618  0.6330  0.2922
18181TIP3   OH275957   4.329   3.770   0.384 -0.3915  0.5128 -0.4804
18181TIP3    H175958   4.372   3.732   0.308  0.4240  1.8519 -0.7159
18181TIP3    H275959   4.320   3.698   0.446  0.6440 -0.1666 -1.1138
18182TIP3   OH275960   1.669   5.285   5.599  0.3484  0.5101  0.2298
18182TIP3    H175961   1.669   5.287   5.695  2.1505  0.0767  0.2560
18182TIP3    H275962   1.661   5.192   5.577 -1.7916  0.7384 -0.0833
18183TIP3   OH275963   6.400   0.757   2.251 -0.5279 -0.3652  0.2624
18183TIP3    H175964   6.408   0.693   2.322  1.0627 -0.8624 -0.3571
18183TIP3    H275965   6.310   0.790   2.259 -1.2255 -2.3669  0.8354
18184TIP3   OH275966   3.964   5.493   2.262 -0.0414 -0.7071  0.8223
18184TIP3    H175967   3.944   5.565   2.322 -2.2978 -2.2375  1.9935
18184TIP3    H275968   4.038   5.448   2.304  0.8499  0.4464  0.4965
18185TIP3   OH275969   3.248   3.429  14.939  0.1568  0.0791  0.1034
18185TIP3    H175970   3.224   3.522  14.944 -1.5565 -0.4149  1.1625
18185TIP3    H275971   3.313   3.418  15.008 -0.0023  0.3744  0.3026
18186TIP3   OH275972   4.988   3.207  16.383  0.3419  0.4896  0.4931
18186TIP3    H175973   5.072   3.208  16.338  0.1833 -0.9758  0.1403
18186TIP3    H275974   4.923   3.219  16.313  0.2900  3.3412  0.9496
18187TIP3   OH275975   5.948   2.604  12.287 -0.5402 -0.1685  0.6189
18187TIP3    H175976   5.986   2.648  12.363 -1.4359  0.2417  0.8375
18187TIP3    H275977   5.893   2.535  12.324 -0.0718 -0.7131  0.3076
18188TIP3   OH275978   4.689   3.535   4.648  0.7524  0.0169 -0.2709
18188TIP3    H175979   4.729   3.572   4.726 -0.9411  0.1026  0.5856
18188TIP3    H275980   4.650   3.453   4.677  0.1819  0.0080 -1.0356
18189TIP3   OH275981   3.161   0.064   2.172  0.2705  0.6893  0.5752
18189TIP3    H175982   3.179   0.118   2.095  1.0570 -1.2932 -0.6824
18189TIP3    H275983   3.085   0.105   2.213  1.1804  3.0375 -0.0190
18190TIP3   OH275984   4.327   6.618   4.981  0.1995 -0.1555  0.3616
18190TIP3    H175985   4.416   6.655   4.975  0.3596 -0.7712 -1.1636
18190TIP3    H275986   4.277   6.685   5.028  0.9274  1.2049 -0.7640
18191TIP3   OH275987   0.332   6.773  11.703  0.3238 -0.1045 -0.4675
18191TIP3    H175988   0.408   6.734  11.747 -0.1255  0.8443  1.1956
18191TIP3    H275989   0.267   6.703  11.700  0.0675  0.0485  1.1319
18192TIP3   OH275990   5.841   1.184   2.149  0.4413 -0.2168  0.0693
18192TIP3    H175991   5.853   1.276   2.124  0.5533  0.0919  1.2451
18192TIP3    H275992   5.924   1.159   2.189  0.1226 -0.5855  0.4991
18193TIP3   OH275993   1.393   1.356   5.692  0.1604  0.3820 -0.5741
18193TIP3    H175994   1.301   1.349   5.669 -0.2752 -0.7521  1.4344
18193TIP3    H275995   1.410   1.451   5.696 -1.1846  0.6035  0.0700
18194TIP3   OH275996   4.362   3.055  11.502 -0.0078 -0.7559 -0.1325
18194TIP3    H175997   4.422   3.117  11.458 -0.1285 -1.8058 -1.8347
18194TIP3    H275998   4.295   3.037  11.436 -2.4575  0.7000  1.8945
18195TIP3   OH275999   0.363   6.095  15.563 -0.3010  0.1863 -0.2709
18195TIP3    H176000   0.301   6.039  15.517  1.4254 -0.6447 -1.6645
18195TIP3    H276001   0.372   6.054  15.649  0.1844 -1.1413 -0.9326
18196TIP3   OH276002   6.137   0.746  15.055  0.3312  0.2710 -0.5128
18196TIP3    H176003   6.069   0.686  15.084 -0.0086  0.2401 -1.3407
18196TIP3    H276004   6.110   0.832  15.088 -0.5492  0.3968 -1.5236
18197TIP3   OH276005   4.900   4.913  15.633  0.0159  0.5683  0.6867
18197TIP3    H176006   4.946   4.889  15.713  1.1006  1.4826  0.3546
18197TIP3    H276007   4.952   4.874  15.562  0.2653  1.5585  0.3117
18198TIP3   OH276008   4.502   3.173   0.027 -0.4653  0.2124 -0.5452
18198TIP3    H176009   4.488   3.266   0.012 -0.5332  0.6022  1.8361
18198TIP3    H276010   4.445   3.151   0.101  2.0595 -0.9523  1.1095
18199TIP3   OH276011   3.168   0.697  12.890 -0.6044  0.3281 -0.0365
18199TIP3    H176012   3.199   0.608  12.870 -0.0396 -0.1093  2.4932
18199TIP3    H276013   3.078   0.699  12.858  0.1035 -0.3785 -2.1753
18200TIP3   OH276014   2.857   5.979   5.465  0.1986  0.0275 -0.6036
18200TIP3    H176015   2.901   5.898   5.491  1.7502 -0.8036 -5.2697
18200TIP3    H276016   2.764   5.963   5.482  0.5460 -2.6051 -1.0204
18201TIP3   OH276017   1.179   4.058  14.893  0.3493  0.1668  0.7218
18201TIP3    H176018   1.172   4.068  14.988 -0.8709 -2.3162  0.9463
18201TIP3    H276019   1.122   4.126  14.858  0.4830  0.8420  1.7895
18202TIP3   OH276020   3.601   3.086  15.423  0.0898  0.2244  0.4659
18202TIP3    H176021   3.653   3.130  15.356  0.9532 -1.7372 -0.1862
18202TIP3    H276022   3.650   3.007  15.445 -1.1036 -0.1116  2.0715
18203TIP3   OH276023   1.708   4.310  14.711 -0.1674  0.1673 -0.4683
18203TIP3    H176024   1.784   4.282  14.762 -0.1800 -1.5133 -1.3710
18203TIP3    H276025   1.696   4.402  14.736  0.5018 -0.3002  1.7358
18204TIP3   OH276026   1.475   1.360  13.044  0.3123 -0.1438  0.2558
18204TIP3    H176027   1.495   1.296  12.976  0.8412  0.2055  0.0824
18204TIP3    H276028   1.381   1.375  13.037  0.6848  1.4152 -1.7235
18205TIP3   OH276029   5.726   1.953   2.196  0.1476 -0.2747 -0.2697
18205TIP3    H176030   5.646   1.908   2.170  1.1805 -2.1494 -0.2920
18205TIP3    H276031   5.699   2.044   2.209 -1.7569 -0.6623 -1.3020
18206TIP3   OH276032   5.637   3.263   2.104 -0.5479  0.0606  0.1468
18206TIP3    H176033   5.615   3.202   2.174 -1.4817  0.4499  0.1975
18206TIP3    H276034   5.733   3.271   2.109 -0.3703 -1.7220 -0.1495
18207TIP3   OH276035   2.852   6.074   4.332  0.3885 -0.1539  0.3854
18207TIP3    H176036   2.792   6.147   4.349  0.8017 -0.2591  2.4271
18207TIP3    H276037   2.936   6.116   4.315  0.7331 -0.1376  2.0264
18208TIP3   OH276038   0.587   6.662  11.365  0.4252 -0.2380 -0.2587
18208TIP3    H176039   0.647   6.588  11.351  0.6836 -0.0658 -0.0546
18208TIP3    H276040   0.512   6.623  11.409  0.3146 -0.4860 -0.6570
18209TIP3   OH276041   6.239   5.646  13.824  0.2357  0.0744  0.2193
18209TIP3    H176042   6.189   5.703  13.882  0.4941  0.5004  0.0262
18209TIP3    H276043   6.196   5.561  13.832 -0.9572  0.5884 -0.4658
18210TIP3   OH276044   3.303   3.027   6.413 -0.3975 -0.1180 -0.5657
18210TIP3    H176045   3.341   2.940   6.427  0.2254  0.1824 -0.3997
18210TIP3    H276046   3.224   3.027   6.467  1.1323  0.4634  1.7609
18211TIP3   OH276047   6.227   3.381  13.952 -1.1120  0.2380 -0.5772
18211TIP3    H176048   6.134   3.383  13.930 -1.3386  0.5848  0.3925
18211TIP3    H276049   6.229   3.381  14.047 -0.1125  0.2279 -0.5940
18212TIP3   OH276050   0.405   3.949  16.318 -0.5073 -0.1776 -0.2925
18212TIP3    H176051   0.358   3.968  16.399 -0.1492  0.3885 -0.2144
18212TIP3    H276052   0.496   3.972  16.337 -0.6477  1.3169 -1.2839
18213TIP3   OH276053   1.598   6.213  11.739  0.4608  0.0520 -0.6876
18213TIP3    H176054   1.532   6.282  11.722 -0.3454 -0.0914  1.6948
18213TIP3    H276055   1.548   6.132  11.735  0.7000 -0.1328  0.0803
18214TIP3   OH276056   3.713   1.580  10.751  0.6166 -0.5237  0.5586
18214TIP3    H176057   3.644   1.536  10.701 -0.6301  1.2497  0.6491
18214TIP3    H276058   3.709   1.539  10.837  0.0483 -0.8326  0.3927
18215TIP3   OH276059   5.194   1.657  12.324 -0.1949 -0.2060  0.3644
18215TIP3    H176060   5.129   1.702  12.378 -1.9086 -1.3217 -0.7055
18215TIP3    H276061   5.192   1.566  12.355 -0.4736 -0.6336 -0.8804
18216TIP3   OH276062   0.205   4.125  12.229 -0.3150 -0.3348  0.3578
18216TIP3    H176063   0.206   4.204  12.175  1.1839 -1.7829 -1.7884
18216TIP3    H276064   0.273   4.139  12.294 -1.0429  0.7471  0.8988
18217TIP3   OH276065   1.031   5.150   6.482 -0.9932 -0.0471  0.3845
18217TIP3    H176066   1.054   5.237   6.448 -2.0167  0.2510  0.4306
18217TIP3    H276067   0.964   5.119   6.421 -2.5875  0.3348  1.9037
18218TIP3   OH276068   5.289   6.512  11.620 -0.4175  0.1115  0.0813
18218TIP3    H176069   5.241   6.497  11.702 -1.8184  0.7627 -0.5956
18218TIP3    H276070   5.374   6.546  11.647 -0.8174  0.1833  1.2630
18219TIP3   OH276071   3.867   5.747  14.061 -0.1902  0.4480 -0.0570
18219TIP3    H176072   3.915   5.673  14.098 -2.1902 -1.1050 -0.5089
18219TIP3    H276073   3.775   5.723  14.068 -0.8902  3.0064 -0.0149
18220TIP3   OH276074   1.267   2.071  15.358 -0.4394  0.3487  0.2625
18220TIP3    H176075   1.269   2.166  15.358 -2.3621  0.3987 -0.3577
18220TIP3    H276076   1.208   2.048  15.430 -1.5148 -0.3206 -0.8155
18221TIP3   OH276077   3.833   4.222  15.737 -0.1077  0.3867  0.3591
18221TIP3    H176078   3.910   4.229  15.681 -1.5770 -0.0435 -1.7578
18221TIP3    H276079   3.774   4.291  15.707 -2.2190 -1.8464 -0.7748
18222TIP3   OH276080   0.582   4.491   2.052  0.3080 -0.1403 -0.0215
18222TIP3    H176081   0.510   4.542   2.013  0.0706  0.0116  0.6105
18222TIP3    H276082   0.542   4.407   2.074  0.0827  0.2635  1.1704
18223TIP3   OH276083   1.868   2.162   3.803 -0.1649 -0.0455 -0.2339
18223TIP3    H176084   1.879   2.256   3.819  0.4559 -0.3554  1.2123
18223TIP3    H276085   1.804   2.134   3.868 -0.5168 -0.6018 -0.8077
18224TIP3   OH276086   6.280   3.220  16.526 -0.3431 -0.2025  0.1935
18224TIP3    H176087   6.343   3.234  16.456 -0.8770 -1.6965 -0.6107
18224TIP3    H276088   6.278   3.125  16.538  0.0131  0.0324  2.4903
18225TIP3   OH276089   3.846   4.869  16.261  0.2603  0.1470 -0.0992
18225TIP3    H176090   3.848   4.936  16.193  2.1470  1.4387  1.1859
18225TIP3    H276091   3.800   4.795  16.221 -1.1463  1.9125 -1.7908
18226TIP3   OH276092   4.340   1.630  14.419 -0.0635  0.5004 -0.5649
18226TIP3    H176093   4.364   1.582  14.340  0.4959 -1.2826  0.6402
18226TIP3    H276094   4.418   1.681  14.441  0.3108 -0.1760 -0.3201
18227TIP3   OH276095   2.140   0.769   4.807 -0.7232 -0.5731 -0.1007
18227TIP3    H176096   2.067   0.722   4.769 -1.6064 -1.8302  3.0175
18227TIP3    H276097   2.215   0.710   4.798 -0.6420 -0.3480 -0.9600
18228TIP3   OH276098   0.578   6.139   3.019 -0.4940 -0.9334  1.0828
18228TIP3    H176099   0.624   6.218   3.050  0.1037 -1.4255  1.4564
18228TIP3    H276100   0.488   6.150   3.050 -0.8376  0.4209 -0.3415
18229TIP3   OH276101   6.362   4.136  14.406  0.0827  0.5806 -0.1633
18229TIP3    H176102   6.333   4.183  14.485  1.6050  1.0876  0.0993
18229TIP3    H276103   6.345   4.044  14.426  0.9609  0.6591  0.9775
18230TIP3   OH276104   5.147   1.832   2.359 -0.4742 -0.2178 -0.2826
18230TIP3    H176105   5.146   1.825   2.454  2.5415 -2.3472 -0.3428
18230TIP3    H276106   5.182   1.919   2.341  0.2254 -0.3193  0.5747
18231TIP3   OH276107   5.350   3.075  12.733  0.3902 -0.4901  0.0406
18231TIP3    H176108   5.336   3.141  12.665  0.9455 -0.1441  0.2508
18231TIP3    H276109   5.326   3.120  12.814  1.2042 -0.3954  0.2329
18232TIP3   OH276110   4.048   1.764   3.365  0.5547 -0.0002  0.4839
18232TIP3    H176111   4.098   1.845   3.356 -0.0407  0.2985 -0.2180
18232TIP3    H276112   4.002   1.755   3.281 -1.1598  0.1407  1.3883
18233TIP3   OH276113   4.215   4.425   0.382 -0.6896 -0.0369  0.0381
18233TIP3    H176114   4.160   4.348   0.365  0.2682 -1.1143  1.6729
18233TIP3    H276115   4.303   4.395   0.361 -0.2564  0.4760  1.1160
18234TIP3   OH276116   1.088   6.322   4.747  0.1200 -0.0363 -0.2123
18234TIP3    H176117   1.154   6.254   4.734  0.0965 -0.3733  1.3951
18234TIP3    H276118   1.125   6.399   4.704  0.6189 -0.7711 -1.1205
18235TIP3   OH276119   3.420   4.258  13.110  0.1022 -0.0153 -0.2155
18235TIP3    H176120   3.373   4.274  13.028 -1.0218 -1.1619  0.1814
18235TIP3    H276121   3.411   4.164  13.124  0.0647  0.2176  1.3562
18236TIP3   OH276122   3.450   5.201  14.449  0.1016  0.2069  0.4385
18236TIP3    H176123   3.365   5.167  14.421  0.8760  0.3306 -2.2414
18236TIP3    H276124   3.507   5.124  14.451  0.5470  0.5031 -0.3789
18237TIP3   OH276125   4.288   6.618   6.631 -0.1770  0.2343  0.3209
18237TIP3    H176126   4.246   6.659   6.707  0.6796  0.8942  0.4448
18237TIP3    H276127   4.350   6.684   6.600 -1.8127  0.7229 -2.0748
18238TIP3   OH276128   3.965   1.652  12.315 -0.4179 -0.2524  0.0428
18238TIP3    H176129   3.924   1.567  12.330 -1.5721  0.0290 -1.4211
18238TIP3    H276130   3.949   1.670  12.222  2.4800  0.1582 -0.4145
18239TIP3   OH276131   5.011   4.334   5.518  0.0702  0.4287  0.2216
18239TIP3    H176132   5.069   4.303   5.448 -1.6200 -1.1093 -0.5429
18239TIP3    H276133   5.063   4.399   5.565  2.4889 -1.0110 -0.3407
18240TIP3   OH276134   0.766   3.464  14.598  0.2939  0.1110 -0.1680
18240TIP3    H176135   0.811   3.528  14.653 -2.2408  1.6644  0.1378
18240TIP3    H276136   0.737   3.396  14.659  0.3543  0.1652 -0.0800
18241TIP3   OH276137   0.458   4.450  13.068  0.3485  0.2880  0.4234
18241TIP3    H176138   0.449   4.356  13.081 -0.6393  0.1817 -0.8956
18241TIP3    H276139   0.460   4.487  13.156  1.9407 -1.0537  0.9775
18242TIP3   OH276140   1.318   6.699   0.607  0.1451  0.3011  0.4208
18242TIP3    H176141   1.371   6.621   0.585 -0.7709  0.1269 -1.2668
18242TIP3    H276142   1.321   6.703   0.702  2.9089  0.0794  0.4073
18243TIP3   OH276143   3.139   5.084   4.751  0.2976 -0.4511 -0.2666
18243TIP3    H176144   3.154   5.142   4.826 -2.8156  0.4154 -0.2756
18243TIP3    H276145   3.132   4.997   4.788 -1.0265 -0.0489  0.4187
18244TIP3   OH276146   1.136   6.571  12.568  0.0750  0.3741  0.4154
18244TIP3    H176147   1.180   6.505  12.514  0.3902  0.0435  1.0682
18244TIP3    H276148   1.186   6.651  12.555  0.7967  0.0267  1.0628
18245TIP3   OH276149   0.210   5.377  15.733  0.5111  0.6481  0.3191
18245TIP3    H176150   0.259   5.444  15.684 -0.4656  1.0578 -0.1115
18245TIP3    H276151   0.189   5.418  15.816  1.7699  0.1120  0.9179
18246TIP3   OH276152   3.843   3.767   3.175 -0.0434 -0.6049 -0.5975
18246TIP3    H176153   3.756   3.805   3.159 -0.3341 -1.3372 -0.7925
18246TIP3    H276154   3.893   3.789   3.096 -0.2571 -0.7486 -0.7759
18247TIP3   OH276155   6.303   6.206   5.477 -0.4706 -0.9186  0.0756
18247TIP3    H176156   6.390   6.199   5.516  0.3537 -2.0572 -1.8889
18247TIP3    H276157   6.305   6.288   5.427  0.1047 -1.8792 -1.4804
18248TIP3   OH276158   5.790   6.625  14.571 -0.3830  0.3053  0.8203
18248TIP3    H176159   5.708   6.673  14.573 -1.0705 -0.7996 -0.3699
18248TIP3    H276160   5.812   6.618  14.478  0.2573 -0.7607  1.0443
18249TIP3   OH276161   1.406   4.110   3.470 -0.4918 -0.1646  0.0579
18249TIP3    H176162   1.332   4.057   3.443  0.0917 -0.4564 -1.0213
18249TIP3    H276163   1.429   4.078   3.557 -0.7517 -1.0327 -0.1893
18250TIP3   OH276164   4.858   4.782  10.581  0.2931  0.3624  0.4781
18250TIP3    H176165   4.889   4.717  10.517 -0.2731 -0.1447  0.7114
18250TIP3    H276166   4.871   4.866  10.538  1.9686  0.1713  0.5580
18251TIP3   OH276167   4.620   5.408   3.222 -0.0441  0.0687 -0.3202
18251TIP3    H176168   4.576   5.382   3.303  1.7733  1.7072  1.2450
18251TIP3    H276169   4.559   5.470   3.180 -0.3569  0.3337  0.5207
18252TIP3   OH276170   3.881   1.483   3.948  0.2844  0.1191  0.0720
18252TIP3    H176171   3.854   1.539   3.875 -0.2506 -0.2680 -0.0284
18252TIP3    H276172   3.920   1.406   3.906  1.3223  0.5576  0.2126
18253TIP3   OH276173   1.313   4.381  13.339  0.1774  0.4790  0.4082
18253TIP3    H176174   1.337   4.466  13.303 -0.3955 -0.0237 -1.2102
18253TIP3    H276175   1.367   4.318  13.291 -0.0297 -0.1472  0.9787
18254TIP3   OH276176   0.275   6.523  12.996  0.2859  0.5631  0.2576
18254TIP3    H176177   0.251   6.446  12.944 -0.2144  0.1578  1.0900
18254TIP3    H276178   0.289   6.592  12.931  1.3003 -0.3716 -0.5309
18255TIP3   OH276179   1.176   5.957  15.030 -0.2109 -0.3348 -0.2667
18255TIP3    H176180   1.162   5.945  14.936 -0.2459 -1.1165 -0.1695
18255TIP3    H276181   1.129   5.884  15.070  1.0471 -0.8649  0.2771
18256TIP3   OH276182   4.218   6.625  17.028 -0.5584 -0.2180  0.0609
18256TIP3    H176183   4.171   6.623  17.112 -0.1476 -1.4849  0.2811
18256TIP3    H276184   4.195   6.541  16.987 -0.9668  0.5027 -1.2143
18257TIP3   OH276185   0.896   3.923   6.435 -0.0700  0.1358  0.5125
18257TIP3    H176186   0.989   3.943   6.447 -0.4575  1.5199  1.2698
18257TIP3    H276187   0.859   3.929   6.523 -0.9502 -0.0783  0.1609
18258TIP3   OH276188   6.735   0.115  16.079 -0.7441  0.0038 -0.0873
18258TIP3    H176189   6.830   0.107  16.073 -1.0509 -3.4706 -2.0505
18258TIP3    H276190   6.707   0.144  15.992 -1.7102 -2.7415 -0.7406
18259TIP3   OH276191   4.263   6.215   1.097 -0.4169  0.3296 -0.5650
18259TIP3    H176192   4.254   6.120   1.088  0.4615  0.2828 -0.9698
18259TIP3    H276193   4.221   6.235   1.180  2.0583 -0.8118  0.9948
18260TIP3   OH276194   6.671   0.625   2.905 -0.1817  0.1533 -0.4798
18260TIP3    H176195   6.703   0.699   2.853 -0.1230  0.8066  0.4662
18260TIP3    H276196   6.672   0.551   2.844  1.9321  0.4223 -0.8288
18261TIP3   OH276197   4.173   2.137  16.060  0.4999  0.0077 -0.2390
18261TIP3    H176198   4.237   2.084  16.108 -0.5877 -3.5788 -2.5860
18261TIP3    H276199   4.204   2.136  15.969  0.2921  3.2623 -0.4117
18262TIP3   OH276200   4.429   5.585  14.972  0.3711 -0.4164  0.3430
18262TIP3    H176201   4.503   5.595  15.032 -2.1270  0.2473  3.3952
18262TIP3    H276202   4.434   5.664  14.917  2.5630 -0.9298 -0.2583
18263TIP3   OH276203   6.184   4.529  13.780 -0.3690 -0.1307 -0.0747
18263TIP3    H176204   6.248   4.522  13.851  1.3219  0.5186 -1.4960
18263TIP3    H276205   6.229   4.579  13.712 -2.8668  1.4850 -0.6107
18264TIP3   OH276206   5.882   1.986   0.521  0.0814  0.3829  0.6661
18264TIP3    H176207   5.971   2.017   0.503 -0.2927 -0.2263 -2.5087
18264TIP3    H276208   5.893   1.919   0.588  2.2366 -0.7281 -0.7249
18265TIP3   OH276209   0.633   5.277   2.592  0.5896  0.2040  0.0381
18265TIP3    H176210   0.654   5.355   2.643 -1.9326  2.2990 -1.9559
18265TIP3    H276211   0.708   5.266   2.533  1.3582  0.6199  0.9345
18266TIP3   OH276212   1.995   4.065  16.399  0.2627  0.3256  0.0243
18266TIP3    H176213   2.003   4.017  16.482  0.4912 -0.2108 -0.3062
18266TIP3    H276214   1.967   3.999  16.336 -1.5346  1.0841  0.0185
18267TIP3   OH276215   1.840   3.128  11.745  0.6412  0.2227 -0.0855
18267TIP3    H176216   1.841   3.058  11.679  0.2857  1.4884 -1.4792
18267TIP3    H276217   1.793   3.200  11.702 -1.2521  0.4459  2.2487
18268TIP3   OH276218   3.720   0.473   2.763 -0.4212  0.1539  0.3566
18268TIP3    H176219   3.798   0.512   2.804  1.0356 -0.4408 -1.7473
18268TIP3    H276220   3.731   0.378   2.777 -0.3403  0.0102 -0.6046
18269TIP3   OH276221   1.203   1.244   0.413  0.0384 -0.6884  0.5966
18269TIP3    H176222   1.193   1.214   0.322  2.4529  1.5803 -0.4672
18269TIP3    H276223   1.153   1.180   0.464 -0.8390 -2.3925 -2.2482
18270TIP3   OH276224   4.721   5.873  13.750  0.3481 -0.3660 -0.1632
18270TIP3    H176225   4.627   5.891  13.750  0.4611  0.2251 -0.1019
18270TIP3    H276226   4.730   5.796  13.694 -0.2456 -0.8007  0.3202
18271TIP3   OH276227   1.772   4.614   5.691  0.1486 -0.6612 -0.1350
18271TIP3    H176228   1.759   4.535   5.743 -0.3720  0.4719  1.5002
18271TIP3    H276229   1.838   4.664   5.740 -1.2413  0.9779  0.1094
18272TIP3   OH276230   4.705   1.877   5.469 -0.0013  0.3743 -0.6348
18272TIP3    H176231   4.750   1.890   5.552 -0.8727  2.3142 -0.4424
18272TIP3    H276232   4.768   1.907   5.403  0.5645 -0.8544 -0.6572
18273TIP3   OH276233   3.722   2.928   5.919  0.3253  0.1204  0.2820
18273TIP3    H176234   3.740   2.836   5.904  1.8495  0.2052  1.3664
18273TIP3    H276235   3.791   2.956   5.980  1.0872  2.4181 -1.5125
18274TIP3   OH276236   2.356   0.111  16.872  0.0410  0.2722  0.3736
18274TIP3    H176237   2.377   0.029  16.917 -1.1530  0.1942  0.8202
18274TIP3    H276238   2.306   0.161  16.936  0.3966  1.1730 -0.0464
18275TIP3   OH276239   5.931   4.665   3.577 -0.8508 -0.4848  0.0302
18275TIP3    H176240   6.010   4.673   3.523 -1.2164 -0.7284 -0.5371
18275TIP3    H276241   5.960   4.615   3.654 -0.2126  0.2975  0.3101
18276TIP3   OH276242   5.729   5.336   2.253 -0.1703 -0.9219 -0.0190
18276TIP3    H176243   5.804   5.331   2.312 -0.3169  0.0093  0.2499
18276TIP3    H276244   5.665   5.276   2.291 -0.8689  0.8352  1.6476
18277TIP3   OH276245   4.100   6.768   1.477  0.4977  0.3550 -0.4866
18277TIP3    H176246   4.135   6.787   1.564  0.7318 -1.1755 -0.2372
18277TIP3    H276247   4.176   6.775   1.419  1.2474 -2.8213  0.0348
18278TIP3   OH276248   2.093   2.871  12.223  0.0339  0.9039 -0.0871
18278TIP3    H176249   1.998   2.856  12.219  0.3477 -0.7591 -2.0706
18278TIP3    H276250   2.124   2.812  12.292 -0.0425 -0.5687 -1.2832
18279TIP3   OH276251   1.209   1.464   0.945 -0.2173  0.4424 -0.0536
18279TIP3    H176252   1.305   1.458   0.944 -0.0801  1.6737  2.1060
18279TIP3    H276253   1.191   1.553   0.976 -2.0455 -0.5700  1.8592
18280TIP3   OH276254   3.383   0.730  17.205  0.4548  0.0304  0.5889
18280TIP3    H176255   3.459   0.785  17.190  0.5195 -0.5712 -1.5003
18280TIP3    H276256   3.407   0.645  17.167 -1.9557  0.4080 -1.9255
18281TIP3   OH276257   3.984   5.647   1.834 -0.2326 -0.3738 -0.3000
18281TIP3    H176258   3.937   5.581   1.884 -0.4991  1.3759  1.8332
18281TIP3    H276259   3.923   5.720   1.827  0.9160  0.5855 -0.5305
18282TIP3   OH276260   2.036   4.184  15.289  0.1501  0.0621  0.0450
18282TIP3    H176261   1.954   4.233  15.296 -0.0474 -0.3316  0.5713
18282TIP3    H276262   2.100   4.248  15.261 -0.2967  0.4240 -0.1494
18283TIP3   OH276263   5.242   6.265   2.442 -0.4220 -0.4462 -0.4137
18283TIP3    H176264   5.266   6.172   2.452 -1.3318 -0.7591 -1.0336
18283TIP3    H276265   5.259   6.284   2.349 -0.1018  0.0456 -0.2548
18284TIP3   OH276266   0.799   0.688   2.244 -0.5569 -0.4028 -0.3865
18284TIP3    H176267   0.815   0.681   2.150 -2.3347 -0.7217 -0.6895
18284TIP3    H276268   0.712   0.651   2.256 -0.4901 -0.0402  1.3419
18285TIP3   OH276269   4.411   1.344   3.032  0.3974  0.4997  0.6024
18285TIP3    H176270   4.369   1.362   3.116 -0.7829  0.0465  0.1143
18285TIP3    H276271   4.455   1.426   3.009 -0.0511  0.9119  1.2056
18286TIP3   OH276272   0.357   4.698   4.789  0.2196  0.2976 -0.1547
18286TIP3    H176273   0.424   4.651   4.837 -0.5911  0.2109  0.9161
18286TIP3    H276274   0.318   4.757   4.854  0.1108  1.2446 -1.0697
18287TIP3   OH276275   1.069   3.884   4.239  0.5327 -0.1346  0.5276
18287TIP3    H176276   1.151   3.848   4.203 -0.2025 -1.3867  0.0887
18287TIP3    H276277   1.020   3.912   4.162  1.1495  1.9757  0.8682
18288TIP3   OH276278   1.314   6.545  15.200  0.4586 -0.1582 -0.0345
18288TIP3    H176279   1.333   6.541  15.107 -0.1051  0.0267 -0.1532
18288TIP3    H276280   1.388   6.594  15.237 -0.1324  1.1751 -0.6017
18289TIP3   OH276281   4.248   1.317  15.890 -0.4242 -0.0753  0.4319
18289TIP3    H176282   4.180   1.324  15.956 -0.3900  0.6862  0.3848
18289TIP3    H276283   4.320   1.371  15.922 -1.1121  1.8317 -1.0891
18290TIP3   OH276284   4.041   5.758   0.212 -0.1909  0.0291  0.3565
18290TIP3    H176285   4.006   5.792   0.130  1.1982 -0.5391 -0.4920
18290TIP3    H276286   4.022   5.664   0.209 -0.0113 -0.0159  0.6218
18291TIP3   OH276287   3.331   4.674  11.924  0.2597 -0.6222  0.4681
18291TIP3    H176288   3.286   4.747  11.968  0.1308 -0.4678  0.0886
18291TIP3    H276289   3.272   4.600  11.936  0.0627 -0.4991  0.2595
18292TIP3   OH276290   3.287   1.216   5.474  0.1776 -0.7460 -0.1763
18292TIP3    H176291   3.350   1.166   5.423  0.4826  1.0250 -1.5675
18292TIP3    H276292   3.204   1.170   5.459  0.6328 -1.4567 -0.5856
18293TIP3   OH276293   6.481   2.087   3.736 -0.3875  0.7459  0.2553
18293TIP3    H176294   6.486   2.177   3.769 -1.1598  0.4380  1.2251
18293TIP3    H276295   6.461   2.098   3.643 -1.1010  1.5814  0.4965
18294TIP3   OH276296   1.288   4.314  11.312 -0.4579 -0.0987 -0.4700
18294TIP3    H176297   1.257   4.303  11.222 -1.9840  1.8963 -0.2232
18294TIP3    H276298   1.215   4.286  11.367  0.3468 -0.9893  0.1724
18295TIP3   OH276299   4.287   6.164  13.739  0.2690 -0.3014  0.1799
18295TIP3    H176300   4.202   6.174  13.781  0.3209 -0.3011  0.2867
18295TIP3    H276301   4.331   6.248  13.754 -0.0208 -0.0125 -0.5800
18296TIP3   OH276302   4.854   5.757   5.543  0.6440 -0.1435  0.0812
18296TIP3    H176303   4.895   5.740   5.458  0.1327 -3.9476  0.4799
18296TIP3    H276304   4.766   5.787   5.522  1.0645  0.4926 -0.7561
18297TIP3   OH276305   2.512   0.839  15.491 -0.7847 -0.4941  0.2504
18297TIP3    H176306   2.517   0.899  15.417  2.4302 -0.3251  0.4923
18297TIP3    H276307   2.529   0.752  15.453 -2.5629 -0.8939  0.3219
18298TIP3   OH276308   3.442   4.201  12.286 -0.4150  0.0366  0.4509
18298TIP3    H176309   3.526   4.242  12.307 -0.3660 -0.1395  0.5963
18298TIP3    H276310   3.464   4.130  12.226 -0.5575  0.5545 -0.2141
18299TIP3   OH276311   0.982   3.979   0.622 -0.1528  0.7880  0.6026
18299TIP3    H176312   0.958   3.903   0.569  1.5605  0.4737  0.2390
18299TIP3    H276313   0.944   4.053   0.575 -2.0541  0.1540  1.0939
18300TIP3   OH276314   5.227   4.063  12.230 -0.3098 -0.4293  0.4874
18300TIP3    H176315   5.234   4.011  12.310 -0.6262  1.6297  1.8939
18300TIP3    H276316   5.317   4.081  12.205 -0.1392  3.8152  3.7124
18301TIP3   OH276317   5.755   3.806   4.036  0.2865  0.2365 -0.0369
18301TIP3    H176318   5.792   3.747   3.970 -0.1419  0.2423 -0.2799
18301TIP3    H276319   5.741   3.888   3.989 -0.3802  0.1244 -0.0351
18302TIP3   OH276320   4.656   1.511   3.213  0.0895 -0.0204  0.2230
18302TIP3    H176321   4.619   1.502   3.126  1.8040  0.3100 -0.5452
18302TIP3    H276322   4.654   1.422   3.249  0.7345 -0.4117 -0.6981
18303TIP3   OH276323   0.241   1.907   5.020 -0.1587  0.1131  0.1679
18303TIP3    H176324   0.156   1.945   5.042  0.2111  2.4807 -2.2068
18303TIP3    H276325   0.258   1.937   4.931  4.0758  1.3749  1.3061
18304TIP3   OH276326   2.899   6.088  13.099  0.0183 -0.5785  0.3212
18304TIP3    H176327   2.904   6.038  13.181 -1.5770 -0.0673  0.7493
18304TIP3    H276328   2.895   6.179  13.127  1.5052 -0.2810 -0.4153
18305TIP3   OH276329   6.533   5.882  12.840 -0.1965  0.2832  0.0696
18305TIP3    H176330   6.549   5.800  12.794  0.7651  0.4616  0.0744
18305TIP3    H276331   6.586   5.875  12.920  2.0480  2.0223 -1.2119
18306TIP3   OH276332   2.312   1.349  13.119  0.1373  0.0700 -0.6757
18306TIP3    H176333   2.337   1.419  13.060  0.0305  0.1516 -0.6240
18306TIP3    H276334   2.301   1.273  13.062 -0.5949  0.3030 -0.8476
18307TIP3   OH276335   4.318   1.875  11.429 -0.0737  0.6033  0.5435
18307TIP3    H176336   4.277   1.944  11.482 -1.4072  0.2838 -0.0522
18307TIP3    H276337   4.250   1.848  11.368  1.3344  0.6670 -1.0761
18308TIP3   OH276338   1.218   1.174  14.493  0.1890  0.1126 -0.3008
18308TIP3    H176339   1.260   1.192  14.577  0.1399 -1.1901  0.0231
18308TIP3    H276340   1.288   1.187  14.428  0.9167 -1.3142  0.1696
18309TIP3   OH276341   0.292   6.343  13.549  0.3194  0.4325  0.0461
18309TIP3    H176342   0.301   6.302  13.635 -0.0206 -0.8985 -0.5412
18309TIP3    H276343   0.199   6.364  13.541 -0.0206 -1.2930 -0.8030
18310TIP3   OH276344   1.611   4.274   4.764  0.0363  0.3399  0.0861
18310TIP3    H176345   1.542   4.211   4.787 -0.5978  0.8768 -0.3143
18310TIP3    H276346   1.564   4.346   4.722  0.8709  0.6008 -0.4133
18311TIP3   OH276347   2.176   0.233  15.304  0.7269  0.1223  0.0574
18311TIP3    H176348   2.119   0.220  15.380 -0.7852 -0.9465 -1.2330
18311TIP3    H276349   2.120   0.214  15.228  1.9232  2.1498 -1.3849
18312TIP3   OH276350   2.576   4.670   4.261 -0.0037 -0.3328 -0.3903
18312TIP3    H176351   2.610   4.760   4.255 -0.6397 -0.0263  0.4902
18312TIP3    H276352   2.554   4.647   4.171  0.8110  0.1457 -0.7185
18313TIP3   OH276353   1.544   0.095  10.790  0.4258  0.0162  0.0200
18313TIP3    H176354   1.610   0.078  10.723  1.0867  1.4791  0.2721
18313TIP3    H276355   1.467   0.125  10.742  1.0333  1.4587 -0.0683
18314TIP3   OH276356   2.637   1.647   5.462  0.5608  0.0030 -0.4312
18314TIP3    H176357   2.627   1.580   5.529 -0.1496 -1.5160 -2.0110
18314TIP3    H276358   2.692   1.714   5.503  1.0787 -1.4238  1.2625
18315TIP3   OH276359   6.353   2.307   2.956 -0.3409 -0.1541 -0.3521
18315TIP3    H176360   6.422   2.301   2.891  1.0352  0.3945  1.0293
18315TIP3    H276361   6.326   2.216   2.971 -0.4618 -0.2989 -1.4665
18316TIP3   OH276362   1.433   3.033   1.387  0.2722 -0.4722 -0.0784
18316TIP3    H176363   1.396   3.049   1.301  1.0603  0.1883 -0.3057
18316TIP3    H276364   1.460   3.120   1.418  0.3088 -0.7516  0.6813
18317TIP3   OH276365   5.018   0.030   1.916 -0.1458 -0.2795  0.5255
18317TIP3    H176366   5.012   0.112   1.867 -0.1723  0.2513  1.4130
18317TIP3    H276367   4.957  -0.029   1.871  0.3531 -0.0290 -0.5092
18318TIP3   OH276368   4.293   4.499  14.887  0.2895 -1.0018  0.2729
18318TIP3    H176369   4.267   4.561  14.954  0.6756 -0.5265 -0.0153
18318TIP3    H276370   4.265   4.540  14.805 -2.3257 -2.6276  0.2804
18319TIP3   OH276371   2.059   5.706  10.810  0.4984 -0.2050  0.5143
18319TIP3    H176372   1.964   5.707  10.797  1.0788  2.2002 -4.3559
18319TIP3    H276373   2.088   5.623  10.771  0.6482  0.0392  0.1113
18320TIP3   OH276374   6.603   4.702   2.373 -1.3556 -0.0181 -0.5519
18320TIP3    H176375   6.698   4.693   2.366 -1.2292  0.3396  0.5330
18320TIP3    H276376   6.572   4.613   2.391 -1.2215 -0.1286 -0.8674
18321TIP3   OH276377   2.365   1.236  15.870 -0.1837 -0.0539  0.3179
18321TIP3    H176378   2.289   1.227  15.812 -0.5486  0.7549  0.6722
18321TIP3    H276379   2.361   1.326  15.901  1.6255  0.3787 -0.6358
18322TIP3   OH276380   2.624   5.870   4.247  0.3596 -0.1876 -0.2814
18322TIP3    H176381   2.626   5.965   4.251  0.6560 -0.2491  1.6397
18322TIP3    H276382   2.571   5.844   4.323 -0.9410 -1.5123 -1.5887
18323TIP3   OH276383   1.568   5.394   4.297 -0.5316  0.5164  0.4664
18323TIP3    H176384   1.555   5.310   4.340 -0.4352  0.7588  0.9784
18323TIP3    H276385   1.519   5.456   4.351  0.4966  1.0029  0.8569
18324TIP3   OH276386   4.120   3.037   2.013  0.8993 -0.1382 -0.0392
18324TIP3    H176387   4.060   2.998   1.949  0.2225  3.0066 -1.4329
18324TIP3    H276388   4.156   2.962   2.061 -4.2785 -2.1888  1.0233
18325TIP3   OH276389   6.499   3.043   1.506  0.3100 -0.1107  0.1590
18325TIP3    H176390   6.530   3.074   1.421 -0.2165 -0.7212 -0.2607
18325TIP3    H276391   6.579   3.018   1.553  0.5648 -0.2561 -0.3532
18326TIP3   OH276392   5.191   0.629   3.151 -0.3508  0.2921  0.5295
18326TIP3    H176393   5.169   0.573   3.226  3.4962  0.0024  1.5474
18326TIP3    H276394   5.219   0.712   3.190  3.0158 -0.3180 -0.4116
18327TIP3   OH276395   0.915   5.520   3.581 -0.1954  0.7085 -0.3899
18327TIP3    H176396   0.983   5.457   3.558 -1.5017 -0.1683 -1.9822
18327TIP3    H276397   0.880   5.489   3.664  0.1028  0.1034 -0.4883
18328TIP3   OH276398   6.113   4.841   2.617  0.3284 -0.8392 -0.2066
18328TIP3    H176399   6.167   4.768   2.646 -1.2630 -1.6661  0.7626
18328TIP3    H276400   6.054   4.858   2.691 -0.9772 -0.2055 -1.3682
18329TIP3   OH276401   5.523   1.189   3.284  0.2355 -0.4257 -0.3698
18329TIP3    H176402   5.566   1.104   3.290 -0.8001 -1.0673 -1.8391
18329TIP3    H276403   5.440   1.178   3.330  2.2670  1.3242  4.0509
18330TIP3   OH276404   6.691   5.863   2.821  0.0899 -0.4698 -0.6905
18330TIP3    H176405   6.774   5.910   2.817 -0.3701  0.4428  0.0469
18330TIP3    H276406   6.635   5.906   2.757 -0.2804 -0.1080 -0.1332
18331TIP3   OH276407   2.371   6.511  14.334 -0.4203 -0.6540 -0.2259
18331TIP3    H176408   2.466   6.503  14.344 -0.3375  1.0257  0.6087
18331TIP3    H276409   2.357   6.516  14.239  0.4912  0.6206 -0.3119
18332TIP3   OH276410   2.077   5.523  16.698  0.4404  0.2008 -0.7639
18332TIP3    H176411   2.111   5.609  16.672  1.1715  0.0402 -0.3664
18332TIP3    H276412   2.066   5.476  16.616  2.2834 -0.1407 -0.8410
18333TIP3   OH276413   4.569   4.862  11.334  0.2670  0.0725  0.0254
18333TIP3    H176414   4.547   4.809  11.258  0.7033  0.2749 -0.2451
18333TIP3    H276415   4.665   4.859  11.339  0.2209 -0.2893  0.8195
18334TIP3   OH276416   0.320   4.058   0.995  0.5286  0.0339  0.3746
18334TIP3    H176417   0.225   4.071   1.000  0.5688  0.0159  1.3971
18334TIP3    H276418   0.332   3.998   0.923 -0.1882  0.5765 -0.2075
18335TIP3   OH276419   2.047   0.456  12.737 -0.0528 -0.3876  0.2299
18335TIP3    H176420   2.116   0.494  12.683 -2.5784  0.4973 -2.5502
18335TIP3    H276421   2.013   0.530  12.787  0.0001 -0.5167  0.4570
18336TIP3   OH276422   5.845   0.727   5.718  0.1982  0.2910 -0.4534
18336TIP3    H176423   5.933   0.766   5.725  0.3890 -0.4170  1.5412
18336TIP3    H276424   5.787   0.803   5.713  0.8624  0.7842 -0.8610
18337TIP3   OH276425   1.932   0.276  11.419 -0.0059 -0.2526 -0.3916
18337TIP3    H176426   1.884   0.242  11.494 -1.8052  3.4694  0.2677
18337TIP3    H276427   1.893   0.231  11.344 -1.2304 -0.8193  0.5550
18338TIP3   OH276428   5.281   1.481   0.989 -0.1427 -0.3803 -0.0038
18338TIP3    H176429   5.214   1.532   0.943 -0.4725  1.0728  2.0058
18338TIP3    H276430   5.241   1.396   1.005 -0.7252 -0.2328 -0.6922
18339TIP3   OH276431   3.733   2.352   0.415 -0.0075  0.2114 -0.0278
18339TIP3    H176432   3.812   2.331   0.463 -1.5357 -2.4083  1.4166
18339TIP3    H276433   3.667   2.367   0.482 -1.2037  0.5304 -1.2444
18340TIP3   OH276434   1.706   3.336   5.648  0.0177  0.6636  0.0576
18340TIP3    H176435   1.676   3.250   5.677 -1.0688  0.7081 -0.9063
18340TIP3    H276436   1.787   3.351   5.696 -1.8081  0.8354  3.1909
18341TIP3   OH276437   2.918   3.272   2.123  0.1236  0.5168  0.6517
18341TIP3    H176438   2.854   3.320   2.177  0.8651  0.8433  1.2463
18341TIP3    H276439   2.920   3.320   2.041 -0.6790  0.2842  0.4889
18342TIP3   OH276440   6.160   3.772  11.280  0.1669 -0.0388 -0.2071
18342TIP3    H176441   6.231   3.723  11.237 -0.6923 -0.6656 -0.9362
18342TIP3    H276442   6.112   3.706  11.330 -1.1897 -0.0182 -1.4532
18343TIP3   OH276443   4.801   6.710   6.703 -0.3969  0.6285 -0.1080
18343TIP3    H176444   4.755   6.626   6.708  0.1903  0.3837  1.5454
18343TIP3    H276445   4.894   6.687   6.710 -0.3105  1.5074  1.9376
18344TIP3   OH276446   0.828   1.993  15.191 -0.1197 -0.8286 -0.1228
18344TIP3    H176447   0.766   2.020  15.123  1.0035  1.1170 -0.4362
18344TIP3    H276448   0.851   1.903  15.169 -1.7335 -1.0858 -0.8164
18345TIP3   OH276449   5.672   0.189  14.179 -0.6454 -0.9388 -0.2539
18345TIP3    H176450   5.728   0.176  14.256 -1.1914 -0.1877  0.2790
18345TIP3    H276451   5.584   0.200  14.215 -0.8051  0.1260 -0.9314
18346TIP3   OH276452   0.576   1.505  16.784  0.6013  0.1384  0.2548
18346TIP3    H176453   0.565   1.556  16.865  2.3280  0.2861  0.3963
18346TIP3    H276454   0.503   1.533  16.729  0.0255  0.8320  1.3431
18347TIP3   OH276455   3.786   2.813  11.512  0.4977  0.6916 -0.1388
18347TIP3    H176456   3.759   2.839  11.424 -0.5813 -0.1186 -0.0530
18347TIP3    H276457   3.826   2.892  11.549  1.1912  0.9652 -1.4405
18348TIP3   OH276458   2.195   0.233  17.107 -0.2715  0.3815 -0.6341
18348TIP3    H176459   2.108   0.250  17.144 -0.5322 -1.7384 -0.2406
18348TIP3    H276460   2.251   0.220  17.184  0.3167  1.3285 -0.8950
18349TIP3   OH276461   1.653   0.604   4.778  0.6038 -0.1157  0.4114
18349TIP3    H176462   1.696   0.672   4.831  0.9447 -0.8456  1.0680
18349TIP3    H276463   1.573   0.646   4.747  0.5194  0.4014  1.3069
18350TIP3   OH276464   1.249   6.163   4.904 -0.8112 -0.4800  0.3731
18350TIP3    H176465   1.317   6.131   4.963 -1.8336 -1.4581  1.0464
18350TIP3    H276466   1.255   6.107   4.827 -1.1041 -0.8184  0.5954
18351TIP3   OH276467   1.505   2.224  14.310  0.1586  0.3659  0.0718
18351TIP3    H176468   1.536   2.151  14.257 -0.4126  0.6033 -0.5975
18351TIP3    H276469   1.534   2.203  14.399 -2.4624 -2.0967  0.4021
18352TIP3   OH276470   2.957   0.397  12.582  0.4875 -0.1219  0.1760
18352TIP3    H176471   2.878   0.343  12.583 -0.6925  1.5634 -0.4228
18352TIP3    H276472   3.005   0.367  12.506  0.2822 -0.9499  0.3668
18353TIP3   OH276473   3.236   2.665   4.275  0.1820  0.6306 -0.2442
18353TIP3    H176474   3.282   2.677   4.191 -1.1322 -1.0139 -1.2476
18353TIP3    H276475   3.148   2.700   4.259 -0.2436 -0.1915  0.2451
18354TIP3   OH276476   0.071   4.879  15.477  0.2520 -0.3861  0.3711
18354TIP3    H176477   0.070   4.889  15.572 -1.6124 -0.0856  0.3420
18354TIP3    H276478  -0.010   4.832  15.457 -0.7590  1.9311 -1.2826
18355TIP3   OH276479   1.203   1.372  13.020 -0.4077 -0.4372  0.0308
18355TIP3    H176480   1.134   1.312  12.990 -0.3969 -0.4567  0.0437
18355TIP3    H276481   1.205   1.441  12.954 -1.4277  0.3317  0.7961
18356TIP3   OH276482   2.717   4.792  15.627  0.0636  0.0531  0.3737
18356TIP3    H176483   2.809   4.792  15.603 -0.1513 -3.7859 -0.8439
18356TIP3    H276484   2.709   4.723  15.693 -1.4804  2.3027  2.6532
18357TIP3   OH276485   0.875   3.672  12.609  0.4989 -0.0954 -0.5295
18357TIP3    H176486   0.850   3.598  12.554  0.7099  1.5970 -2.9656
18357TIP3    H276487   0.964   3.693  12.583  1.3282 -0.4734  1.8580
18358TIP3   OH276488   3.977   4.831   0.853 -0.1984  0.2600  0.4781
18358TIP3    H176489   4.022   4.892   0.913 -0.4806  1.2589 -0.3094
18358TIP3    H276490   3.885   4.835   0.879  0.0226 -1.1346  1.5295
18359TIP3   OH276491   4.861   0.205  15.120  0.0571  0.8817 -0.4282
18359TIP3    H176492   4.843   0.116  15.089 -2.7632  0.3649  2.3763
18359TIP3    H276493   4.927   0.193  15.189  0.4724  1.1112 -0.7823
18360TIP3   OH276494   0.368   4.481   6.222  0.3603 -0.0671  0.0217
18360TIP3    H176495   0.294   4.476   6.284  1.0900  1.3734  1.0302
18360TIP3    H276496   0.445   4.473   6.277  0.9845 -0.6634 -0.9338
18361TIP3   OH276497   0.892   2.271   0.766 -0.1775 -0.0915 -0.1217
18361TIP3    H176498   0.834   2.319   0.826  0.2212 -0.2791  0.4257
18361TIP3    H276499   0.944   2.339   0.724  0.2016 -0.0155  0.4563
18362TIP3   OH276500   4.178   4.055  15.064 -0.0268 -0.2491  0.0774
18362TIP3    H176501   4.090   4.093  15.058  0.4897  1.0650  0.5840
18362TIP3    H276502   4.201   4.036  14.973 -0.0109  1.3614 -0.2789
18363TIP3   OH276503   1.938   2.578  11.711 -0.1978 -0.5728  0.2877
18363TIP3    H176504   1.981   2.658  11.682  0.8100 -0.7245  1.3160
18363TIP3    H276505   2.009   2.524  11.747 -0.8811 -1.8665 -0.2494
18364TIP3   OH276506   1.570   4.300   0.164 -0.0437  0.5279 -0.3826
18364TIP3    H176507   1.543   4.389   0.187  1.4905  0.8268  0.3291
18364TIP3    H276508   1.642   4.281   0.224 -0.9028 -1.5178  0.0392
18365TIP3   OH276509   1.785   4.498  16.769  0.1951  0.2682  0.1678
18365TIP3    H176510   1.693   4.477  16.787  0.3658 -2.4728 -1.8849
18365TIP3    H276511   1.780   4.573  16.709 -0.6214  1.4056  1.6135
18366TIP3   OH276512   3.728   3.393  13.886 -0.1339 -0.3628  0.1928
18366TIP3    H176513   3.819   3.422  13.894 -0.9644  2.7390 -0.9440
18366TIP3    H276514   3.728   3.334  13.810  0.6612  0.7971 -0.7210
18367TIP3   OH276515   2.596   2.908   1.895  0.3224  0.2951 -0.0658
18367TIP3    H176516   2.644   2.833   1.930 -1.4138  0.1021  2.0087
18367TIP3    H276517   2.507   2.876   1.881 -0.4382  1.9104  0.8061
18368TIP3   OH276518   3.168   1.751   5.760  0.5463  0.0332 -0.5953
18368TIP3    H176519   3.164   1.695   5.683 -3.5471  1.3141 -1.4159
18368TIP3    H276520   3.178   1.840   5.726  3.0690  0.2316  0.5562
18369TIP3   OH276521   5.374   6.512  14.526 -0.5987  0.0605  0.1553
18369TIP3    H176522   5.368   6.598  14.486  0.9239  2.5500  4.8934
18369TIP3    H276523   5.454   6.474  14.490 -0.1148  1.5068 -0.3061
18370TIP3   OH276524   4.635   0.925   5.063  0.2211  0.3731  1.2353
18370TIP3    H176525   4.598   0.857   5.119 -1.7890 -0.9865 -1.5978
18370TIP3    H276526   4.720   0.891   5.036 -1.5019 -1.9268 -1.5696
18371TIP3   OH276527   3.114   1.803   1.604 -0.1658 -0.5645 -0.2600
18371TIP3    H176528   3.024   1.832   1.620 -0.0846 -0.3986 -0.1069
18371TIP3    H276529   3.168   1.879   1.622  0.1392 -1.1152  1.2425
18372TIP3   OH276530   4.457   6.533  14.318  0.7935  0.2312  0.2236
18372TIP3    H176531   4.546   6.562  14.298  1.0206  1.0677  2.2934
18372TIP3    H276532   4.457   6.520  14.413 -0.8497 -1.3384  0.0252
18373TIP3   OH276533   0.349   4.655   5.761  0.6423  0.0735 -0.6955
18373TIP3    H176534   0.334   4.669   5.855 -0.2189 -0.7103 -0.7067
18373TIP3    H276535   0.433   4.610   5.756  1.9186  2.3352 -0.4624
18374TIP3   OH276536   0.845   2.112  11.035 -0.2895 -0.6564 -0.5448
18374TIP3    H176537   0.939   2.098  11.043 -0.1135  1.6937  2.4616
18374TIP3    H276538   0.806   2.044  11.091 -0.1253  0.9050  1.5494
18375TIP3   OH276539   0.120   4.115  16.281  0.1590  0.5257  1.3237
18375TIP3    H176540   0.093   4.069  16.360 -1.8672 -1.4643 -0.4603
18375TIP3    H276541   0.148   4.045  16.221 -1.9591  1.6325 -1.0497
18376TIP3   OH276542   4.484   5.010   0.942 -0.5209  0.6148 -0.0396
18376TIP3    H176543   4.469   4.933   0.887 -0.0895  0.6943 -0.2633
18376TIP3    H276544   4.544   4.980   1.010 -1.8374  0.2401  0.9897
18377TIP3   OH276545   4.237   3.333  13.576  0.2174  0.0131  0.0546
18377TIP3    H176546   4.220   3.317  13.484 -0.1542 -0.7238  0.2482
18377TIP3    H276547   4.277   3.252  13.608  0.8420  0.4559  0.4169
18378TIP3   OH276548   3.313   0.353   0.128  0.0410  0.7795  0.0407
18378TIP3    H176549   3.275   0.323   0.210 -1.7806  1.7921 -0.4137
18378TIP3    H276550   3.392   0.401   0.155  0.6478 -0.7144  1.0261
18379TIP3   OH276551   2.155   4.235   5.982  0.0105 -0.2627  0.3179
18379TIP3    H176552   2.239   4.275   5.961  1.3882 -2.3190  1.6679
18379TIP3    H276553   2.121   4.286   6.054  0.4330  0.1778  0.2077
18380TIP3   OH276554   0.549   6.779   6.092  0.5450  0.8671 -0.1015
18380TIP3    H176555   0.465   6.735   6.104  2.2343 -2.4506  0.0820
18380TIP3    H276556   0.561   6.830   6.172 -0.9969  0.8556  0.1406
18381TIP3   OH276557   4.682   0.090  14.121 -0.4440 -0.1967  0.2735
18381TIP3    H176558   4.730   0.137  14.053  1.7932 -2.7245  0.0138
18381TIP3    H276559   4.614   0.042  14.073 -0.8037  0.4166  0.1729
18382TIP3   OH276560   5.583   0.380  13.701 -0.0705 -0.7385  0.4130
18382TIP3    H176561   5.563   0.300  13.749  0.9768 -1.4723 -0.3460
18382TIP3    H276562   5.555   0.451  13.759 -0.6980 -1.6399  1.2286
18383TIP3   OH276563   2.616   3.287   4.401  0.7802 -0.1945  0.4460
18383TIP3    H176564   2.706   3.313   4.378  0.2229  1.6426  0.2374
18383TIP3    H276565   2.583   3.360   4.454 -1.1091 -0.1302 -0.7798
18384TIP3   OH276566   3.866   0.088  11.702  0.0070 -0.1575  0.2941
18384TIP3    H176567   3.811   0.153  11.745 -0.6968  1.2773 -2.6585
18384TIP3    H276568   3.836   0.088  11.611  2.0775 -2.4098 -0.4275
18385TIP3   OH276569   4.466   0.971  15.719  0.0317 -0.0899  0.5484
18385TIP3    H176570   4.435   0.960  15.629 -1.1635 -0.5670  1.0186
18385TIP3    H276571   4.393   1.011  15.765 -0.5642 -2.7805  2.0449
18386TIP3   OH276572   1.626   1.238   1.069  0.1047  0.0062  0.0849
18386TIP3    H176573   1.572   1.220   1.146 -1.0415  1.2028 -0.4204
18386TIP3    H276574   1.632   1.154   1.024  0.0831 -0.5172  1.0411
18387TIP3   OH276575   1.526   0.228  13.641 -0.2812  0.6426 -0.2261
18387TIP3    H176576   1.594   0.241  13.707 -0.7013  0.1491  0.3152
18387TIP3    H276577   1.536   0.302  13.582  0.7537  0.5534 -0.1807
18388TIP3   OH276578   1.691   5.763   5.197 -0.6245 -0.5398  0.2045
18388TIP3    H176579   1.667   5.686   5.249  1.3286 -1.2580  0.0862
18388TIP3    H276580   1.684   5.733   5.106 -1.4225 -0.0857  0.1115
18389TIP3   OH276581   4.026   0.469  14.153 -0.2229  0.3377 -0.0281
18389TIP3    H176582   4.058   0.522  14.079  0.8750 -0.1935  0.0570
18389TIP3    H276583   3.949   0.424  14.119  0.8449 -0.6612 -1.1568
18390TIP3   OH276584   5.903   2.062   1.882 -0.5043  0.4253  0.8632
18390TIP3    H176585   5.885   1.973   1.851 -1.9993  0.8692  0.4326
18390TIP3    H276586   5.817   2.103   1.890  0.1000  1.4658  2.1961
18391TIP3   OH276587   1.448   1.124  14.332  0.2381  0.2073 -0.1842
18391TIP3    H176588   1.462   1.060  14.401 -0.3096  1.1918  0.8494
18391TIP3    H276589   1.453   1.073  14.251  0.7525 -0.9734  0.5743
18392TIP3   OH276590   5.545   5.453  14.004  0.0719  0.1380 -0.3203
18392TIP3    H176591   5.498   5.412  13.931  0.2793 -0.0423 -0.3518
18392TIP3    H276592   5.596   5.382  14.042 -0.4644  0.1042  0.3436
18393TIP3   OH276593   3.150   3.996   5.372 -0.4822  0.0345  0.1841
18393TIP3    H176594   3.162   3.928   5.438 -0.3608  1.3807  1.5662
18393TIP3    H276595   3.136   3.948   5.290 -2.1629 -1.6734  1.4393
18394TIP3   OH276596   0.565   3.774  13.571 -0.0319 -0.3815 -0.9658
18394TIP3    H176597   0.537   3.826  13.496  0.2090  0.1680 -0.6811
18394TIP3    H276598   0.483   3.747  13.613 -0.1752 -1.1295 -1.7155
18395TIP3   OH276599   0.765   0.399   3.172  0.4097  0.3980 -0.5920
18395TIP3    H176600   0.797   0.397   3.082  1.2265  0.0961 -0.2922
18395TIP3    H276601   0.763   0.307   3.199  1.0956  0.5629  0.0280
18396TIP3   OH276602   4.692   2.707   5.242  0.0285 -0.0287  0.1055
18396TIP3    H176603   4.733   2.749   5.317  1.2461 -0.5344 -0.2687
18396TIP3    H276604   4.598   2.706   5.263  0.4023 -0.6651  1.8686
18397TIP3   OH276605   5.895   6.674  15.120 -0.3809 -0.2672  0.2800
18397TIP3    H176606   5.916   6.767  15.131 -0.3277 -0.1562 -0.6933
18397TIP3    H276607   5.955   6.629  15.179 -0.0265  0.2893  0.3515
18398TIP3   OH276608   5.415   2.572  14.664  0.0275 -0.0045 -0.2755
18398TIP3    H176609   5.457   2.657  14.654  0.4064 -0.1829 -0.1870
18398TIP3    H276610   5.401   2.563  14.758  0.8635 -0.4678 -0.1980
18399TIP3   OH276611   1.986   1.791   2.870  0.0465 -0.1371  0.3323
18399TIP3    H176612   1.903   1.838   2.876  1.0515  2.0491 -2.0074
18399TIP3    H276613   2.032   1.812   2.951 -1.1613 -0.3732  1.0921
18400TIP3   OH276614   0.578   2.676   4.793 -0.3029  0.1698 -0.0086
18400TIP3    H176615   0.523   2.749   4.820 -0.8977 -0.2203 -0.1428
18400TIP3    H276616   0.637   2.712   4.727  0.6982  0.9784  1.2845
18401TIP3   OH276617   0.378   4.865  16.054  0.4275  0.1102  0.3072
18401TIP3    H176618   0.289   4.869  16.089  0.3902  1.0860  0.0992
18401TIP3    H276619   0.378   4.926  15.980  0.7881 -1.2095 -0.8013
18402TIP3   OH276620   6.049   6.786   1.116  0.7436  0.1315 -0.5420
18402TIP3    H176621   6.101   6.759   1.040  1.6341  0.6356 -0.1163
18402TIP3    H276622   6.030   6.704   1.162  0.2076 -0.1754 -1.2917
18403TIP3   OH276623   3.219   2.129   2.514  0.2776 -0.5189 -0.3299
18403TIP3    H176624   3.305   2.093   2.539  0.4633  0.4273  0.4088
18403TIP3    H276625   3.187   2.068   2.447  0.9893 -1.5653  0.2539
18404TIP3   OH276626   0.474   2.877   3.791 -0.2463  0.3972  0.3537
18404TIP3    H176627   0.473   2.969   3.818  1.2846  0.5131  0.0551
18404TIP3    H276628   0.554   2.842   3.829 -0.5993 -0.7091  0.0864
18405TIP3   OH276629   5.724   6.290   6.619  0.3973 -0.0389  0.0008
18405TIP3    H176630   5.773   6.289   6.701 -0.2309 -1.3055  0.3778
18405TIP3    H276631   5.642   6.336   6.640  0.0408 -0.7680  0.1974
18406TIP3   OH276632   1.742   6.082   1.030 -0.2108  0.1972  0.0703
18406TIP3    H176633   1.682   6.078   0.956 -1.2451 -3.0647  0.9999
18406TIP3    H276634   1.688   6.109   1.104 -0.2076 -1.1405  0.5744
18407TIP3   OH276635   3.260   6.674  10.778  0.0047 -0.2211  0.0863
18407TIP3    H176636   3.174   6.672  10.820  0.7379  1.7170  1.7661
18407TIP3    H276637   3.322   6.666  10.850  1.2625  1.3287 -0.8007
18408TIP3   OH276638   5.540   2.579  15.201 -0.3242  0.1230 -0.2073
18408TIP3    H176639   5.486   2.628  15.263  0.0215  0.4465 -0.1601
18408TIP3    H276640   5.569   2.502  15.250 -0.7117 -0.0373 -0.2226
18409TIP3   OH276641   3.313   2.868  15.255  0.6277  0.2722  0.3802
18409TIP3    H176642   3.318   2.952  15.299 -3.3828 -0.0853  1.7604
18409TIP3    H276643   3.253   2.883  15.182 -0.6597 -1.4844  1.0335
18410TIP3   OH276644   6.277   1.623  13.928  0.1558 -0.1991  0.0198
18410TIP3    H176645   6.265   1.691  13.995  0.1041 -0.0313 -0.1574
18410TIP3    H276646   6.371   1.606  13.928  0.3020  0.5548 -0.5892
18411TIP3   OH276647   5.302   1.813  11.446  0.2780 -0.0165 -0.1173
18411TIP3    H176648   5.393   1.833  11.468  0.6399  0.4483 -1.9392
18411TIP3    H276649   5.267   1.895  11.412 -0.1783 -0.7566 -1.4710
18412TIP3   OH276650   0.129   3.700  16.695  0.2086  0.2027 -1.0681
18412TIP3    H176651   0.071   3.664  16.763 -0.5835  2.5382 -0.4768
18412TIP3    H276652   0.172   3.775  16.737  1.0639  0.5880 -2.5941
18413TIP3   OH276653   6.454   1.721  12.479  0.7709  0.1087  0.4715
18413TIP3    H176654   6.393   1.740  12.550 -1.7288 -2.0895 -1.0047
18413TIP3    H276655   6.502   1.643  12.510  0.0036 -0.5724 -0.0411
18414TIP3   OH276656   2.010   5.164  11.541  0.0905 -0.3205 -0.0804
18414TIP3    H176657   1.972   5.190  11.625 -2.6186 -0.7646 -1.1240
18414TIP3    H276658   2.002   5.069  11.540  0.3906 -0.3392 -0.7301
18415TIP3   OH276659   1.582   1.825  15.434 -0.0518  0.6211 -0.5205
18415TIP3    H176660   1.623   1.829  15.347 -0.1151  2.8566 -0.4834
18415TIP3    H276661   1.638   1.878  15.490  0.4133 -1.4458  1.0224
18416TIP3   OH276662   2.668   4.990  13.732 -0.2177 -0.0159  0.3238
18416TIP3    H176663   2.687   5.067  13.787 -0.8219  0.3814 -0.0158
18416TIP3    H276664   2.657   5.026  13.644 -0.6620 -0.4802  0.1898
18417TIP3   OH276665   3.615   3.338  13.641  0.0099 -0.3023 -0.0529
18417TIP3    H176666   3.537   3.372  13.685  1.2736 -1.4658  3.2170
18417TIP3    H276667   3.593   3.248  13.620  0.1522 -0.3694  0.0848
18418TIP3   OH276668   5.392   2.594  17.059  0.2749  0.3140  0.6320
18418TIP3    H176669   5.331   2.571  16.988  1.0877  0.8269 -0.2305
18418TIP3    H276670   5.466   2.534  17.047  0.4165  0.4094  1.0394
18419TIP3   OH276671   2.949   1.312  17.020  0.0456 -0.1642  0.6308
18419TIP3    H176672   2.873   1.331  17.076  1.3781 -0.5191  2.6173
18419TIP3    H276673   2.912   1.299  16.933 -1.9252  2.0027  1.1037
18420TIP3   OH276674   2.573   3.955  13.497 -0.2672  0.1789 -0.0163
18420TIP3    H176675   2.619   3.873  13.515 -0.3713  0.0569 -0.3023
18420TIP3    H276676   2.601   3.979  13.408  0.5957  1.0082  0.4726
18421TIP3   OH276677   6.351   6.036   0.724  1.1809  0.2863  0.0496
18421TIP3    H176678   6.358   5.983   0.804 -0.0432 -2.1329 -1.3809
18421TIP3    H276679   6.263   6.073   0.727  0.9364 -0.2515 -0.4328
18422TIP3   OH276680   0.235   1.937   0.724 -0.0937  0.8941 -0.4009
18422TIP3    H176681   0.258   1.849   0.753  1.2298  2.0221  2.1191
18422TIP3    H276682   0.180   1.972   0.795 -0.8750  1.9937 -1.5141
18423TIP3   OH276683   4.442   1.915   5.998 -0.5852 -0.2686 -0.8270
18423TIP3    H176684   4.521   1.932   6.049 -0.3280 -2.3072 -0.4973
18423TIP3    H276685   4.375   1.969   6.041  0.3633  0.5829 -0.3917
18424TIP3   OH276686   4.433   6.580  14.622 -0.1675  0.4175  0.5271
18424TIP3    H176687   4.394   6.642  14.684 -0.2190 -0.5081  1.4433
18424TIP3    H276688   4.527   6.599  14.625 -0.1765  0.4147  0.8524
18425TIP3   OH276689   4.470   4.212  12.016  0.2962 -0.0875  0.4673
18425TIP3    H176690   4.452   4.121  12.038 -0.1572  0.1860  1.2396
18425TIP3    H276691   4.411   4.263  12.072 -0.9237  0.6331 -1.4233
18426TIP3   OH276692   0.901   6.711   1.267  0.0180  0.6397 -0.2028
18426TIP3    H176693   0.877   6.663   1.346 -1.7357  2.3388  0.3432
18426TIP3    H276694   0.848   6.672   1.198 -0.2229  0.7300 -0.0697
18427TIP3   OH276695   1.178   5.564   0.760 -0.0801  0.1699 -0.3903
18427TIP3    H176696   1.166   5.496   0.827  1.2507 -0.2077 -0.5306
18427TIP3    H276697   1.175   5.646   0.809 -2.2527  0.0530 -0.2931
18428TIP3   OH276698   4.080   1.630  14.502  0.4063  0.0140 -0.3196
18428TIP3    H176699   4.057   1.705  14.448 -1.1380 -0.2868 -0.0909
18428TIP3    H276700   4.175   1.621  14.490  0.8537  2.8139  0.7208
18429TIP3   OH276701   0.824   5.143   3.930  0.5706  0.0632  0.7547
18429TIP3    H176702   0.785   5.229   3.915  0.8660  0.3106  1.3768
18429TIP3    H276703   0.749   5.084   3.935  0.4922 -0.2025 -2.5988
18430TIP3   OH276704   6.615   5.939  15.624  0.0966  0.3731 -0.2643
18430TIP3    H176705   6.655   6.008  15.675  0.9962  0.9027 -1.6632
18430TIP3    H276706   6.522   5.941  15.648  0.6340  0.1113  1.8750
18431TIP3   OH276707   6.366   0.459   2.812 -0.2494 -0.4006  0.1774
18431TIP3    H176708   6.424   0.424   2.745  1.4958 -0.3500  1.6118
18431TIP3    H276709   6.296   0.502   2.764  1.6418  0.7272 -1.6225
18432TIP3   OH276710   3.405   0.962  15.540 -0.4523  0.0611 -0.2553
18432TIP3    H176711   3.352   1.041  15.554 -0.4622 -0.2015  1.1970
18432TIP3    H276712   3.343   0.896  15.511 -0.8120 -0.0615  0.7986
18433TIP3   OH276713   6.489   1.643   1.592  0.2436 -0.3771  0.3339
18433TIP3    H176714   6.446   1.729   1.589 -0.2367 -0.6787 -2.3695
18433TIP3    H276715   6.443   1.596   1.662  0.4801  1.5031  1.8192
18434TIP3   OH276716   1.426   4.219  12.870  0.5032  0.0997  0.4387
18434TIP3    H176717   1.374   4.237  12.792 -1.8726  0.1887  1.9640
18434TIP3    H276718   1.445   4.306  12.907 -0.0696 -0.0040  0.9913
18435TIP3   OH276719   5.614   3.460  11.470 -0.6760 -0.5783  0.0187
18435TIP3    H176720   5.594   3.494  11.557 -0.3840 -1.7922  0.5777
18435TIP3    H276721   5.695   3.505  11.445 -1.6259  0.9669 -0.3214
18436TIP3   OH276722   5.788   4.500   2.447 -0.1638 -0.1721 -0.6059
18436TIP3    H176723   5.833   4.515   2.531 -1.3362 -0.1787  0.0378
18436TIP3    H276724   5.703   4.464   2.472 -0.7134  0.2952 -1.7939
18437TIP3   OH276725   2.877   2.006  12.429 -0.0220  0.1938 -0.5440
18437TIP3    H176726   2.851   2.098  12.426 -0.5767  0.0935  1.0556
18437TIP3    H276727   2.795   1.958  12.446  0.4516 -0.4894 -0.1606
18438TIP3   OH276728   1.927   0.207   0.441  0.3177 -0.5997  0.0892
18438TIP3    H176729   1.834   0.228   0.433  0.5835  0.1138 -1.5116
18438TIP3    H276730   1.961   0.219   0.352  1.7813 -1.6172  0.4988
18439TIP3   OH276731   3.819   2.932  14.226 -0.1120  0.2220 -0.1639
18439TIP3    H176732   3.837   2.897  14.139  1.4230  0.2847  0.1127
18439TIP3    H276733   3.795   3.023  14.211  0.1716  0.2391 -0.5233
18440TIP3   OH276734   0.895   3.995  14.040 -0.2621 -0.2182  0.2536
18440TIP3    H176735   0.933   3.977  14.125  0.7913  1.6700  0.2075
18440TIP3    H276736   0.801   4.004  14.057 -0.1898 -0.9156  1.0303
18441TIP3   OH276737   6.491   4.273  12.290 -0.1515 -0.0276 -0.5878
18441TIP3    H176738   6.508   4.282  12.196  0.6227  1.2818 -0.3345
18441TIP3    H276739   6.575   4.244  12.327  0.1754  1.5516 -0.0249
18442TIP3   OH276740   1.401   6.601  14.492  0.3764  0.1505  0.2006
18442TIP3    H176741   1.395   6.626  14.584  0.7009  0.0582  0.2449
18442TIP3    H276742   1.392   6.506  14.492 -1.4934  0.2909 -0.0150
18443TIP3   OH276743   1.740   0.049  12.330 -0.2108  0.0961 -0.7282
18443TIP3    H176744   1.736   0.053  12.234  2.1943  0.7651 -0.8228
18443TIP3    H276745   1.827   0.014  12.349  0.1382  1.9307  1.2358
18444TIP3   OH276746   6.038   4.525  17.099  0.3471  0.1231 -0.3798
18444TIP3    H176747   6.038   4.620  17.110  0.2628  0.1434 -0.5463
18444TIP3    H276748   6.114   4.507  17.044 -0.1307  0.1859 -1.0762
18445TIP3   OH276749   4.655   2.467   4.804  0.2046  0.1461  0.1763
18445TIP3    H176750   4.717   2.532   4.835  1.0622 -0.5922  0.0306
18445TIP3    H276751   4.592   2.516   4.752  0.8915  0.8457  0.0013
18446TIP3   OH276752   4.075   5.426  10.801 -0.2270 -0.2080  0.1039
18446TIP3    H176753   4.131   5.394  10.872  0.6750 -1.0725 -0.9720
18446TIP3    H276754   4.059   5.348  10.747 -1.5938  0.2658 -0.1884
18447TIP3   OH276755   4.028   1.536   3.498 -0.0183  0.0520  0.1920
18447TIP3    H176756   4.039   1.622   3.456 -0.1136  0.2051  0.4752
18447TIP3    H276757   4.111   1.521   3.543 -0.1819  0.2277  0.5584
18448TIP3   OH276758   4.291   5.033   2.894 -0.1481 -0.0476 -0.2624
18448TIP3    H176759   4.276   5.074   2.979 -0.1585  0.7048 -0.6255
18448TIP3    H276760   4.328   4.948   2.915 -0.4881 -0.0122  0.5085
18449TIP3   OH276761   5.256   4.569  15.631 -0.2794  0.0804  0.2662
18449TIP3    H176762   5.268   4.604  15.542 -0.0242 -0.5761  0.0354
18449TIP3    H276763   5.216   4.483  15.617  0.4548 -0.3415  0.7493
18450TIP3   OH276764   1.069   5.867   0.386  0.2559 -0.3475  0.4803
18450TIP3    H176765   1.047   5.853   0.294 -1.9212 -0.3062  0.9864
18450TIP3    H276766   1.110   5.784   0.412  0.4298 -0.5473 -0.3840
18451TIP3   OH276767   1.753   0.081   2.692 -0.1334  0.1350  0.2535
18451TIP3    H176768   1.670   0.063   2.648 -0.7573 -1.0183  1.8369
18451TIP3    H276769   1.817   0.027   2.646 -0.5671 -0.2306  0.0727
18452TIP3   OH276770   2.279   4.862  15.667 -0.3075 -0.1485 -0.2815
18452TIP3    H176771   2.362   4.833  15.703  0.5141  0.1120 -1.9210
18452TIP3    H276772   2.298   4.884  15.576 -1.8226  1.4217 -0.2637
18453TIP3   OH276773   4.033   3.321  14.966 -0.0421  0.1193  0.3548
18453TIP3    H176774   4.108   3.277  15.006 -0.4701 -0.0810  0.9466
18453TIP3    H276775   4.042   3.304  14.872 -0.1875 -1.2248  0.5758
18454TIP3   OH276776   4.167   6.244  16.734  0.2605 -0.0956  0.3934
18454TIP3    H176777   4.126   6.286  16.810 -0.7276 -0.9817  0.3676
18454TIP3    H276778   4.227   6.180  16.773 -1.2344 -1.4920  0.4496
18455TIP3   OH276779   0.517   2.463   2.687  0.1959 -0.3100 -0.4776
18455TIP3    H176780   0.571   2.539   2.666 -0.0526 -0.4691 -1.7608
18455TIP3    H276781   0.512   2.414   2.605 -0.8564 -0.9498 -0.0429
18456TIP3   OH276782   1.958   1.792   1.837 -0.2084  0.3990 -0.9693
18456TIP3    H176783   1.914   1.708   1.846 -0.3882  0.7367  1.5524
18456TIP3    H276784   1.887   1.856   1.825 -0.3128  0.6860  1.0905
18457TIP3   OH276785   5.775   0.252  13.553  0.2146  0.1024  0.0070
18457TIP3    H176786   5.714   0.310  13.600  2.0018 -0.1487  2.7945
18457TIP3    H276787   5.796   0.300  13.473  1.4770  3.3131  2.1298
18458TIP3   OH276788   1.009   6.660  13.071  0.3440 -0.1040  0.1710
18458TIP3    H176789   1.056   6.601  13.130  1.7589 -0.2753 -1.0934
18458TIP3    H276790   1.038   6.634  12.983 -2.5731 -0.5804 -0.6765
18459TIP3   OH276791   5.728   4.333  11.294  0.2375  0.1270 -0.5792
18459TIP3    H176792   5.733   4.408  11.235  0.2351 -0.4653 -1.3279
18459TIP3    H276793   5.645   4.291  11.273  0.0475  0.1376  0.1178
18460TIP3   OH276794   0.600   5.614  14.092 -0.1079 -0.0257  0.1656
18460TIP3    H176795   0.620   5.650  14.179 -1.1079 -0.5745  0.6249
18460TIP3    H276796   0.586   5.692  14.037  0.1926  0.3226  0.5766
18461TIP3   OH276797   4.743   3.774   2.381 -0.2648 -0.2672  0.5840
18461TIP3    H176798   4.770   3.802   2.468  2.1085 -2.3798  0.6033
18461TIP3    H276799   4.770   3.846   2.323 -1.4487  0.9415  1.5130
18462TIP3   OH276800   6.346   2.153  11.796  0.3329  0.1148  0.3076
18462TIP3    H176801   6.303   2.135  11.713 -0.6747 -1.2525  1.1028
18462TIP3    H276802   6.323   2.244  11.816 -2.2983 -0.6208  0.7772
18463TIP3   OH276803   0.956   5.482   1.602  0.1414 -0.1976  0.2901
18463TIP3    H176804   1.009   5.513   1.675  0.6218  1.2599 -0.6379
18463TIP3    H276805   1.008   5.502   1.524 -1.2986  0.3128 -0.5745
18464TIP3   OH276806   6.222   4.717   4.363  0.4597 -0.2226 -0.0131
18464TIP3    H176807   6.186   4.802   4.388 -0.6463 -0.4657 -0.7286
18464TIP3    H276808   6.216   4.716   4.268 -0.4201 -1.4700  0.0442
18465TIP3   OH276809   4.974   5.828  14.228 -0.2056 -0.2529  0.3134
18465TIP3    H176810   5.020   5.908  14.251  1.7879 -1.3153  0.0980
18465TIP3    H276811   4.983   5.820  14.133 -2.1006  0.2762  0.0664
18466TIP3   OH276812   2.770   4.529  13.219 -0.2299  0.0393 -0.0638
18466TIP3    H176813   2.854   4.493  13.190 -0.2164 -1.4007  1.6481
18466TIP3    H276814   2.790   4.572  13.303 -1.4853 -1.8239  1.2279
18467TIP3   OH276815   5.011   6.435   2.553  0.6027  0.3115  0.0877
18467TIP3    H176816   4.937   6.492   2.531 -0.4253 -1.2550 -0.5857
18467TIP3    H276817   4.987   6.397   2.638  1.0376  0.4635  0.2787
18468TIP3   OH276818   3.633   2.344   2.172  0.1149 -0.2714 -0.2344
18468TIP3    H176819   3.576   2.307   2.239 -2.9955  0.5078 -2.3089
18468TIP3    H276820   3.616   2.438   2.175  0.4729 -0.1434 -1.5675
18469TIP3   OH276821   5.465   4.600   1.490 -0.2035  0.0144 -0.4451
18469TIP3    H176822   5.476   4.627   1.581 -0.5916  1.1501 -0.7252
18469TIP3    H276823   5.475   4.681   1.439 -0.6187 -0.4955 -1.3563
18470TIP3   OH276824   2.439   3.068   4.445 -0.4001 -0.0779 -0.3759
18470TIP3    H176825   2.500   3.134   4.414  0.1485 -0.9773 -1.2393
18470TIP3    H276826   2.368   3.118   4.485  0.6574  0.9945  0.2133
18471TIP3   OH276827   4.615   5.849  12.078  0.3092 -0.2227 -0.2958
18471TIP3    H176828   4.610   5.944  12.094 -2.3450 -0.3165 -0.2562
18471TIP3    H276829   4.612   5.841  11.983  1.3176 -0.2389 -0.3270
18472TIP3   OH276830   0.267   4.148   5.343  0.4056 -0.1083 -0.3457
18472TIP3    H176831   0.228   4.154   5.256  0.8896 -1.3563 -0.6718
18472TIP3    H276832   0.359   4.128   5.326  0.2796 -1.4295  0.4541
18473TIP3   OH276833   1.853   4.097  13.079  0.5482 -0.1756  0.5747
18473TIP3    H176834   1.792   4.023  13.090  0.6180 -0.0820  1.7198
18473TIP3    H276835   1.935   4.066  13.117  0.2224  0.9277  2.2369
18474TIP3   OH276836   1.393   1.597  13.857 -0.8160 -0.2802  1.0445
18474TIP3    H176837   1.387   1.657  13.782 -0.6527 -1.7667 -0.1913
18474TIP3    H276838   1.482   1.609  13.890 -1.4213  1.5914  2.0510
18475TIP3   OH276839   6.031   4.529  15.681 -0.2995 -0.0961  0.4418
18475TIP3    H176840   5.951   4.542  15.732  0.5103  1.3481  1.3729
18475TIP3    H276841   6.096   4.501  15.745  0.5428  1.0588  0.1090
18476TIP3   OH276842   3.783   6.441  14.388 -0.3898 -0.0400  0.7197
18476TIP3    H176843   3.868   6.482  14.405  0.4388 -2.0632  1.5980
18476TIP3    H276844   3.799   6.347  14.396 -2.2297 -0.5725 -1.3554
18477TIP3   OH276845   0.270   6.117   6.074  0.0239 -0.1010  0.0650
18477TIP3    H176846   0.215   6.163   6.139  2.3629  0.9850  1.3650
18477TIP3    H276847   0.325   6.059   6.127  2.1847  1.0257 -0.8783
18478TIP3   OH276848   6.319   2.548   2.566  0.1278 -0.2204  0.1136
18478TIP3    H176849   6.296   2.517   2.478 -0.2052  1.4357 -0.4093
18478TIP3    H276850   6.238   2.543   2.616  0.0319 -0.0217 -0.0226
18479TIP3   OH276851   3.130   4.614  10.774 -0.2931 -0.0908 -0.6823
18479TIP3    H176852   3.226   4.614  10.766 -0.4339 -0.8941 -2.6198
18479TIP3    H276853   3.114   4.611  10.869  1.5928  0.7278 -0.3213
18480TIP3   OH276854   0.331   2.683   1.674  0.5351 -0.2874  0.3701
18480TIP3    H176855   0.414   2.725   1.649  0.7295 -0.1466  1.2542
18480TIP3    H276856   0.355   2.620   1.742 -0.3703  1.2921  2.1990
18481TIP3   OH276857   2.895   4.931  13.554  0.4282 -0.6334  0.0675
18481TIP3    H176858   2.841   4.928  13.633 -1.0685 -1.5539 -0.9614
18481TIP3    H276859   2.958   5.001  13.570  0.8664 -1.5665  2.5338
18482TIP3   OH276860   1.076   2.904  13.112  0.2109  0.1145 -0.2982
18482TIP3    H176861   1.124   2.827  13.143 -1.3948 -0.4375  0.8624
18482TIP3    H276862   1.137   2.976  13.125  1.4812 -0.8554 -0.7352
18483TIP3   OH276863   6.636   6.650   3.106 -0.2267  0.0605 -0.1048
18483TIP3    H176864   6.567   6.600   3.062  2.0348 -2.0281 -1.4394
18483TIP3    H276865   6.612   6.742   3.091 -2.5529 -0.6098 -0.7601
18484TIP3   OH276866   2.885   6.098  15.894 -0.1846  0.2549 -0.6507
18484TIP3    H176867   2.926   6.027  15.942 -0.5494  0.4892  0.0114
18484TIP3    H276868   2.957   6.154  15.866 -0.0766  0.9389  0.9415
18485TIP3   OH276869   5.389   5.884   0.515 -0.0074 -0.3319  0.4995
18485TIP3    H176870   5.431   5.943   0.453 -0.4802 -0.2214  0.2779
18485TIP3    H276871   5.381   5.935   0.595 -0.3461 -0.1192  0.3318
18486TIP3   OH276872   3.317   1.969  10.777 -0.0567 -0.0635 -0.0199
18486TIP3    H176873   3.265   2.041  10.812  0.8521 -0.1549  1.6057
18486TIP3    H276874   3.388   2.012  10.728  1.7186  0.2736  2.7190
18487TIP3   OH276875   5.603   1.488   2.377 -0.1989  0.0793  0.5823
18487TIP3    H176876   5.597   1.582   2.359  2.0338  0.1674  0.1223
18487TIP3    H276877   5.664   1.455   2.311  0.7136 -1.3017  2.1001
18488TIP3   OH276878   2.623   5.755   0.897  0.0654 -0.4190 -0.2543
18488TIP3    H176879   2.662   5.799   0.973  0.9071 -0.8007 -0.4535
18488TIP3    H276880   2.537   5.795   0.887  0.7103  0.9889 -0.2704
18489TIP3   OH276881   2.264   6.095   5.228 -0.4982  0.1365 -0.4504
18489TIP3    H176882   2.261   6.060   5.317  0.2001  0.3671 -0.3315
18489TIP3    H276883   2.334   6.047   5.185 -0.9426 -0.0893 -0.9321
18490TIP3   OH276884   2.814   3.902   4.659  0.7090 -0.0355 -0.2751
18490TIP3    H176885   2.758   3.934   4.729  0.3434  4.0635 -2.3087
18490TIP3    H276886   2.903   3.910   4.695  0.3374 -2.0553  1.2126
18491TIP3   OH276887   2.534   0.160   3.170  0.4279  0.0964  0.1836
18491TIP3    H176888   2.582   0.226   3.119  1.1491 -1.2090 -0.8572
18491TIP3    H276889   2.477   0.118   3.106  0.6245 -0.8893  0.6484
18492TIP3   OH276890   5.246   3.790   0.758 -0.1287 -0.2014 -0.4729
18492TIP3    H176891   5.248   3.695   0.770  0.4787 -0.1908 -0.4700
18492TIP3    H276892   5.251   3.826   0.846  4.2865 -0.1248 -0.6622
18493TIP3   OH276893   4.332   2.235   1.432 -0.0762  0.5600 -0.3806
18493TIP3    H176894   4.424   2.212   1.443 -0.6592 -2.1677 -0.8555
18493TIP3    H276895   4.307   2.196   1.348 -1.4345  2.0588 -0.7078
18494TIP3   OH276896   2.958   5.795   0.925 -0.4217  0.3655  0.4593
18494TIP3    H176897   2.889   5.862   0.925 -2.0649 -1.2158 -1.8949
18494TIP3    H276898   2.991   5.795   0.835  1.4855 -0.0629  1.1508
18495TIP3   OH276899   4.401   4.756  12.079  0.5402  0.0001  0.4343
18495TIP3    H176900   4.382   4.728  12.169 -1.6407  0.2681  0.0900
18495TIP3    H276901   4.357   4.841  12.071  0.4120 -0.1939 -1.0072
18496TIP3   OH276902   5.003   0.559  16.096 -0.0637 -0.8567 -0.0563
18496TIP3    H176903   4.914   0.544  16.064 -1.3372 -1.5934  3.6256
18496TIP3    H276904   5.015   0.654  16.090 -0.9418 -0.7883 -0.8787
18497TIP3   OH276905   0.433   2.374   0.392 -0.7204 -0.0840  0.4243
18497TIP3    H176906   0.356   2.351   0.444 -1.0643  1.2862  0.5477
18497TIP3    H276907   0.490   2.298   0.400 -1.3927 -0.4946  1.6164
18498TIP3   OH276908   5.887   1.706   0.954 -0.5184  0.6098  0.3014
18498TIP3    H176909   5.843   1.636   0.905 -0.6922  1.2803 -0.5108
18498TIP3    H276910   5.816   1.751   1.000 -0.5170  0.8446  0.0723
18499TIP3   OH276911   1.536   4.726  13.672  0.0921  0.0512 -0.2611
18499TIP3    H176912   1.565   4.643  13.635 -1.9261 -2.0596  2.6612
18499TIP3    H276913   1.616   4.766  13.707  1.0967 -0.5755 -1.7893
18500TIP3   OH276914   5.028   4.144  11.412  0.0791 -0.1277  0.3942
18500TIP3    H176915   5.079   4.071  11.448  2.3992  1.2336 -0.0244
18500TIP3    H276916   5.060   4.221  11.460 -2.4588  0.6072  0.9643
18501TIP3   OH276917   4.857   3.164  13.540  0.3347 -0.2042 -0.2723
18501TIP3    H176918   4.864   3.169  13.444  0.7289  1.7919 -0.1580
18501TIP3    H276919   4.942   3.194  13.572 -0.0696 -0.0939  0.7082
18502TIP3   OH276920   2.380   2.373  14.508  0.1093 -0.3984 -0.1862
18502TIP3    H176921   2.431   2.447  14.476  0.3576 -0.0926  0.8829
18502TIP3    H276922   2.398   2.303  14.446  2.3195 -0.4687  0.4660
18503TIP3   OH276923   3.209   4.629  16.191 -0.2723  0.2736  0.3329
18503TIP3    H176924   3.199   4.577  16.271  0.4172  0.5038  0.5722
18503TIP3    H276925   3.228   4.565  16.123 -0.2368  0.1312  0.4762
18504TIP3   OH276926   6.648   4.136  16.598 -0.1286  0.1568 -0.0953
18504TIP3    H176927   6.646   4.096  16.685 -1.6642  0.4344  0.0204
18504TIP3    H276928   6.679   4.225  16.613 -0.6318  0.2840  0.2083
18505TIP3   OH276929   0.234   1.045   0.818 -0.2675  0.4196  0.2658
18505TIP3    H176930   0.205   1.003   0.899 -1.4790  1.0400  0.1727
18505TIP3    H276931   0.326   1.022   0.810 -0.1904  0.1892  1.7239
18506TIP3   OH276932   4.387   3.057  14.610  0.2832  0.3161  0.4556
18506TIP3    H176933   4.324   3.030  14.676 -0.1355  1.0227  0.3499
18506TIP3    H276934   4.462   3.000  14.623  1.2300  2.1286  3.2274
18507TIP3   OH276935   3.640   3.075  11.366 -0.1583 -0.2299 -0.6494
18507TIP3    H176936   3.578   3.045  11.433 -0.6517  1.5622 -0.2902
18507TIP3    H276937   3.585   3.095  11.290  0.0899  0.3100 -0.6910
18508TIP3   OH276938   0.820   3.821   0.205  0.2343  0.3342  0.6306
18508TIP3    H176939   0.910   3.855   0.195  0.9899 -1.8161 -0.0909
18508TIP3    H276940   0.764   3.895   0.182  1.8506  0.8408 -1.8450
18509TIP3   OH276941   2.787   0.478  16.040 -0.2403 -0.1601 -0.2718
18509TIP3    H176942   2.850   0.538  16.080  0.2497  0.2135 -1.5593
18509TIP3    H276943   2.722   0.462  16.108  0.8088  0.0974  0.8130
18510TIP3   OH276944   5.182   3.970  13.961  0.4620 -0.0496  0.6596
18510TIP3    H176945   5.207   4.042  13.902  1.4262 -0.9220 -0.0105
18510TIP3    H276946   5.216   3.892  13.918  2.1343 -0.5943  2.9390
18511TIP3   OH276947   6.453   6.616   4.911 -0.1209  0.0927 -0.1326
18511TIP3    H176948   6.411   6.542   4.868  0.4931 -0.2759 -0.1049
18511TIP3    H276949   6.389   6.646   4.976 -0.4697 -0.2568 -0.3154
18512TIP3   OH276950   6.481   3.826  15.589 -0.1643 -0.4972  0.1046
18512TIP3    H176951   6.572   3.839  15.562 -0.4916  0.1707 -0.6976
18512TIP3    H276952   6.487   3.768  15.665  0.9587 -0.2052  0.2577
18513TIP3   OH276953   0.132   3.776   4.887 -0.5257  0.9570 -0.3593
18513TIP3    H176954   0.157   3.860   4.849  0.3312  0.5819 -0.6263
18513TIP3    H276955   0.133   3.791   4.981 -3.5195  2.1428 -0.4512
18514TIP3   OH276956   1.719   3.943   2.555 -0.9351  0.5450  0.0073
18514TIP3    H176957   1.715   3.862   2.506 -2.0316  0.2551  0.5670
18514TIP3    H276958   1.803   3.983   2.529 -0.5943 -0.5454 -0.5825
18515TIP3   OH276959   2.101   5.817   2.494  0.1321  0.6553  0.5614
18515TIP3    H176960   2.123   5.751   2.560 -1.4259  0.7141  1.1449
18515TIP3    H276961   2.034   5.775   2.439  2.4624  0.0296 -1.9647
18516TIP3   OH276962   6.299   3.237   4.744 -0.0964  0.1843 -0.1166
18516TIP3    H176963   6.353   3.315   4.757  1.0361 -0.4453 -0.9622
18516TIP3    H276964   6.230   3.244   4.811  0.7990  1.1864  0.7217
18517TIP3   OH276965   5.024   1.796  11.204 -0.1591 -0.1399  0.0090
18517TIP3    H176966   4.976   1.861  11.152 -0.3114 -0.1188  0.1761
18517TIP3    H276967   5.063   1.738  11.139 -3.4991 -2.4197 -0.0949
18518TIP3   OH276968   5.718   1.944  15.479  0.0919 -0.0181 -0.1658
18518TIP3    H176969   5.768   1.909  15.553 -0.3447 -2.0369 -0.7996
18518TIP3    H276970   5.774   1.927  15.403 -0.0871  0.7542 -0.4704
18519TIP3   OH276971   6.663   5.492   1.859 -0.4703  0.0683 -0.0383
18519TIP3    H176972   6.571   5.495   1.887  0.3059  0.2368  2.7185
18519TIP3    H276973   6.711   5.522   1.936  2.0171 -1.5764 -0.9083
18520TIP3   OH276974   1.157   5.637   2.863 -0.2507  0.1165  0.2036
18520TIP3    H176975   1.242   5.616   2.827  1.4360  2.1886  2.7705
18520TIP3    H276976   1.106   5.668   2.789  1.6761  0.1904 -1.1168
18521TIP3   OH276977   0.886   6.338   2.301  0.1531  0.7129  0.2417
18521TIP3    H176978   0.855   6.314   2.214  1.9126  0.1083 -0.2251
18521TIP3    H276979   0.925   6.425   2.290 -0.8815  1.2586  0.7350
18522TIP3   OH276980   6.358   4.521  11.839 -0.2180  0.0108 -0.1966
18522TIP3    H176981   6.331   4.433  11.866 -1.0856  0.3012 -0.1011
18522TIP3    H276982   6.279   4.575  11.850  0.6789  1.1116  1.1266
18523TIP3   OH276983   6.414   4.506   4.371 -0.3516 -0.0264  0.0358
18523TIP3    H176984   6.377   4.592   4.390  1.0634 -0.1208  3.5967
18523TIP3    H276985   6.485   4.524   4.308 -0.0229  1.4164  0.8004
18524TIP3   OH276986   1.881   2.914  16.428 -0.6983  0.8623  0.4067
18524TIP3    H176987   1.792   2.892  16.399 -0.3137 -1.8369  1.1254
18524TIP3    H276988   1.935   2.842  16.396  1.1101  2.0875  0.6392
18525TIP3   OH276989   4.373   2.676  13.545 -0.3099 -0.0714  0.2566
18525TIP3    H176990   4.381   2.596  13.492  1.5727  0.4316 -0.2522
18525TIP3    H276991   4.328   2.738  13.488  0.8256  0.1439 -0.4327
18526TIP3   OH276992   6.191   1.020  13.116 -0.9210  0.1751  0.2996
18526TIP3    H176993   6.253   1.089  13.139 -1.0472  0.3145  0.2273
18526TIP3    H276994   6.185   1.024  13.021  0.2214 -0.9417  0.1723
18527TIP3   OH276995   5.579   2.651   5.351  0.0140  0.3719 -0.4842
18527TIP3    H176996   5.537   2.672   5.267  2.1761  0.0435 -1.6658
18527TIP3    H276997   5.596   2.557   5.347 -1.7498 -0.0646  1.2157
18528TIP3   OH276998   4.216   3.054  15.494 -0.1685 -0.0562 -0.1820
18528TIP3    H176999   4.301   3.079  15.457 -0.0902 -1.5838 -1.0510
18528TIP3    H277000   4.237   3.021  15.582  0.1588 -0.6639 -0.4913
18529TIP3   OH277001   0.411   2.103   2.597 -0.1229 -0.2476 -0.2898
18529TIP3    H177002   0.402   2.033   2.532 -0.5522  0.5480 -1.0937
18529TIP3    H277003   0.467   2.168   2.554 -0.2686  0.2047  0.2082
18530TIP3   OH277004   1.792   5.065   0.060  0.0341  0.0569 -0.0484
18530TIP3    H177005   1.749   5.089  -0.022 -0.5518 -1.7368 -0.3006
18530TIP3    H277006   1.876   5.029   0.033  0.5522  1.0468  0.2553
18531TIP3   OH277007   6.582   1.457   2.010 -0.2159 -0.0110 -0.2797
18531TIP3    H177008   6.503   1.501   1.980 -0.7801 -0.9921 -0.2588
18531TIP3    H277009   6.561   1.426   2.098  0.7969  1.2366  0.4170
18532TIP3   OH277010   5.434   3.364  11.213 -0.2873 -0.9404 -0.1482
18532TIP3    H177011   5.510   3.408  11.250  0.1110 -1.0258 -0.8717
18532TIP3    H277012   5.376   3.435  11.184 -1.6020 -0.8071  2.5944
18533TIP3   OH277013   5.580   0.433   4.778 -0.1825  0.4191 -0.4731
18533TIP3    H177014   5.667   0.472   4.786 -0.0411  0.0100  0.0476
18533TIP3    H277015   5.521   0.500   4.810  0.1620 -0.2147  1.5683
18534TIP3   OH277016   4.757   1.045   5.488 -0.0664 -0.0716  0.1492
18534TIP3    H177017   4.682   1.095   5.457 -2.2099 -1.5821  2.7150
18534TIP3    H277018   4.781   1.086   5.571  1.6310  0.0882 -0.4048
18535TIP3   OH277019   4.831   0.760   4.713 -0.2732  0.4993  1.0795
18535TIP3    H177020   4.899   0.738   4.650 -0.5259 -0.0948  1.0051
18535TIP3    H277021   4.834   0.855   4.720 -0.2065  0.5629  0.2207
18536TIP3   OH277022   0.160   0.748  12.669 -0.5494  0.2173  0.0628
18536TIP3    H177023   0.135   0.771  12.579 -0.3765 -3.5347 -1.0682
18536TIP3    H277024   0.127   0.659  12.680  3.1825 -1.0237  2.1764
18537TIP3   OH277025   3.396   4.751   3.724  0.2305 -0.4493  0.2218
18537TIP3    H177026   3.431   4.825   3.775 -0.3811 -0.9618  1.4212
18537TIP3    H277027   3.433   4.674   3.766  0.1908 -0.8643 -0.5053
18538TIP3   OH277028   5.185   4.669  13.676  0.4676 -0.4566 -0.2027
18538TIP3    H177029   5.194   4.609  13.602  0.3414 -0.3511 -0.3026
18538TIP3    H277030   5.272   4.670  13.717  0.6791 -0.1231 -0.6521
18539TIP3   OH277031   0.785   4.763  16.976  0.5555 -0.6181  0.3383
18539TIP3    H177032   0.717   4.718  16.924  0.3017  1.5343 -1.2524
18539TIP3    H277033   0.866   4.716  16.955  0.1180 -1.0427 -0.4414
18540TIP3   OH277034   1.448   5.342  16.820 -0.2820  0.5045 -0.9209
18540TIP3    H177035   1.424   5.433  16.801 -2.6642  0.3304  1.0393
18540TIP3    H277036   1.543   5.341  16.815 -0.2230  3.1231 -0.9733
18541TIP3   OH277037   3.177   4.081   3.277  0.6207  0.0438 -0.5401
18541TIP3    H177038   3.226   4.153   3.237  1.3640 -0.4151 -0.4705
18541TIP3    H277039   3.244   4.018   3.303  0.0082 -0.4769 -0.2033
18542TIP3   OH277040   4.668   1.108  11.471 -0.1198 -0.0549  0.2955
18542TIP3    H177041   4.753   1.110  11.429 -0.3102 -0.6030 -0.1188
18542TIP3    H277042   4.652   1.016  11.490 -0.2322  0.1351  1.1705
18543TIP3   OH277043   4.266   2.768   2.052 -0.4424  0.2040 -0.8520
18543TIP3    H177044   4.320   2.746   2.128  1.4678  2.1903 -1.5795
18543TIP3    H277045   4.188   2.714   2.062  1.3153 -2.1688  0.6665
18544TIP3   OH277046   3.042   2.959   3.009 -0.4012 -0.1556  0.0660
18544TIP3    H177047   2.989   2.882   2.989  1.5360 -1.7004  0.7306
18544TIP3    H277048   2.998   2.999   3.084 -0.8481 -1.1957  0.3737
18545TIP3   OH277049   1.481   6.785  12.788  0.3141 -0.0827  1.0616
18545TIP3    H177050   1.484   6.695  12.822  0.1375  0.3956  2.3887
18545TIP3    H277051   1.550   6.788  12.722  1.6633 -0.6605  2.3915
18546TIP3   OH277052   4.280   0.568   1.867 -0.4360 -0.2489  0.1075
18546TIP3    H177053   4.264   0.639   1.929 -0.9372 -0.2825  0.0153
18546TIP3    H277054   4.258   0.604   1.782  2.3298  0.5014 -0.3445
18547TIP3   OH277055   1.897   2.697  15.054  0.5318  0.4007 -0.3310
18547TIP3    H177056   1.858   2.760  14.993  0.4843  1.1706  0.4987
18547TIP3    H277057   1.946   2.750  15.116  0.5014 -0.3868  0.3696
18548TIP3   OH277058   1.866   3.649   6.163 -0.0984 -0.3653 -0.1772
18548TIP3    H177059   1.849   3.556   6.179 -0.1262 -0.5017 -0.9425
18548TIP3    H277060   1.884   3.686   6.249  0.0943 -1.1191  0.1083
18549TIP3   OH277061   3.208   2.657  15.900  0.6293  0.3187  0.0990
18549TIP3    H177062   3.254   2.575  15.883 -0.1165 -0.1655  0.4184
18549TIP3    H277063   3.237   2.715  15.830 -1.7203 -1.3687 -2.3732
18550TIP3   OH277064   5.456   0.511   5.664 -0.1336  0.2058 -0.3083
18550TIP3    H177065   5.406   0.439   5.626  0.4579 -0.2273 -0.2771
18550TIP3    H277066   5.407   0.536   5.742 -0.0467 -0.5428 -0.0086
18551TIP3   OH277067   1.733   0.790   4.955  0.3284 -0.5515  0.1587
18551TIP3    H177068   1.675   0.848   5.003 -0.7745  0.2684 -2.1218
18551TIP3    H277069   1.820   0.807   4.991 -0.2169  1.3911  0.5587
18552TIP3   OH277070   4.734   2.985  11.101 -0.1432  0.4883 -1.1628
18552TIP3    H177071   4.764   2.951  11.186 -0.2581  2.5556 -0.2760
18552TIP3    H277072   4.808   2.968  11.042  0.0585 -0.6959 -0.5959
18553TIP3   OH277073   4.083   6.292   6.514 -0.4366  0.1969 -0.0286
18553TIP3    H177074   4.123   6.295   6.601 -0.8765  1.3363  0.1395
18553TIP3    H277075   4.140   6.346   6.459 -1.4905  1.4821  0.1166
18554TIP3   OH277076   4.659   2.457   4.193 -0.4230  0.8126 -0.1877
18554TIP3    H177077   4.567   2.473   4.171 -0.7443  0.0717  0.6080
18554TIP3    H277078   4.676   2.514   4.268 -1.0645 -1.1934  1.5161
18555TIP3   OH277079   1.916   2.121  16.127 -0.0068 -0.7967 -0.1536
18555TIP3    H177080   1.886   2.052  16.067  2.0055 -0.4999 -1.5639
18555TIP3    H277081   1.994   2.084  16.169  0.0767 -0.0283  0.3759
18556TIP3   OH277082   0.721   0.903   6.327  0.3550  0.8486  0.6214
18556TIP3    H177083   0.717   0.932   6.418 -0.0885 -0.6073  1.0857
18556TIP3    H277084   0.805   0.856   6.322  1.0866  2.2135 -0.1271
18557TIP3   OH277085   2.406   2.970   4.815 -0.1114 -0.6392 -0.5050
18557TIP3    H177086   2.497   2.945   4.801 -0.3872 -0.8513 -2.0134
18557TIP3    H277087   2.399   3.058   4.777 -0.3800 -0.3374  0.2221
18558TIP3   OH277088   4.287   6.755  14.768 -0.3835 -0.1578 -0.3129
18558TIP3    H177089   4.315   6.686  14.827 -0.7266  1.0350  1.2784
18558TIP3    H277090   4.230   6.811  14.821 -1.7825  0.2079 -2.1347
18559TIP3   OH277091   0.222   5.072  14.734 -0.2898 -0.6586  0.0701
18559TIP3    H177092   0.250   4.993  14.779 -0.6579  0.4288  2.3027
18559TIP3    H277093   0.280   5.141  14.768 -0.9630  0.2944 -0.6792
18560TIP3   OH277094   4.410   3.244  15.742  0.7416 -0.3170  0.7217
18560TIP3    H177095   4.337   3.183  15.748 -0.5615  1.0370 -0.8906
18560TIP3    H277096   4.418   3.281  15.830  0.7762 -1.9052  1.4029
18561TIP3   OH277097   5.656   3.841   4.355 -0.3328 -0.1141  0.4563
18561TIP3    H177098   5.694   3.871   4.437 -0.3628  0.6890  0.1884
18561TIP3    H277099   5.632   3.922   4.309  1.1540 -0.4803 -1.0462
18562TIP3   OH277100   3.894   4.774  14.858 -0.4659 -0.2241  0.0912
18562TIP3    H177101   3.827   4.706  14.868 -0.5962 -0.6353 -3.1584
18562TIP3    H277102   3.953   4.759  14.932 -3.0247 -0.8859  2.0889
18563TIP3   OH277103   2.693   6.585  12.756 -0.2065 -0.0740 -0.3828
18563TIP3    H177104   2.699   6.496  12.790 -1.3966  0.2089  0.6101
18563TIP3    H277105   2.620   6.581  12.693  0.6067 -0.1017 -1.3393
18564TIP3   OH277106   1.544   5.173   4.524 -0.0102 -0.0459 -0.0568
18564TIP3    H177107   1.503   5.101   4.475  0.0111 -1.4819  1.9780
18564TIP3    H277108   1.472   5.212   4.573  0.5034 -0.6949  1.2425
18565TIP3   OH277109   2.462   0.856  13.397 -0.6749  0.0328 -0.2960
18565TIP3    H177110   2.375   0.893  13.407 -0.4662  0.6117 -0.5523
18565TIP3    H277111   2.507   0.917  13.338 -0.2869 -0.5688 -0.6291
18566TIP3   OH277112   4.082   3.084   3.318  0.4163 -0.4739 -0.1596
18566TIP3    H177113   3.996   3.078   3.276  0.0072 -0.2227  0.6332
18566TIP3    H277114   4.133   3.014   3.276 -0.1061 -0.4909 -0.7836
18567TIP3   OH277115   4.337   0.046   5.171  0.1575 -0.4417  0.2544
18567TIP3    H177116   4.331   0.135   5.136 -0.0740 -0.5904 -0.0827
18567TIP3    H277117   4.260   0.037   5.227  1.1621  0.2201  1.7803
18568TIP3   OH277118   4.906   2.247   4.682 -0.6660 -0.2531 -0.2526
18568TIP3    H177119   4.957   2.212   4.755 -0.4189  1.0813  0.2446
18568TIP3    H277120   4.815   2.241   4.710 -0.5842  0.0521  0.0881
18569TIP3   OH277121   2.560   2.601   1.979 -0.3883  0.1601  0.0174
18569TIP3    H177122   2.497   2.661   1.938 -0.5359 -0.3724 -0.5418
18569TIP3    H277123   2.510   2.554   2.045  0.1201  1.8535  1.6370
18570TIP3   OH277124   1.551   4.960  16.228  0.2387 -0.4416 -0.3009
18570TIP3    H177125   1.509   4.938  16.145  0.5463 -0.9922 -0.3176
18570TIP3    H277126   1.478   4.976  16.288  0.0014 -1.2012 -0.3769
18571TIP3   OH277127   4.672   0.724  13.317 -0.2337 -0.4672  0.5828
18571TIP3    H177128   4.586   0.693  13.290 -0.8189  0.9156  0.8002
18571TIP3    H277129   4.729   0.705  13.243 -0.8188 -0.9722  0.2529
18572TIP3   OH277130   5.524   0.490   3.248 -0.3475  0.1393 -0.4711
18572TIP3    H177131   5.508   0.493   3.342  0.4212 -0.5158 -0.3118
18572TIP3    H277132   5.502   0.400   3.223  1.5397 -0.3398 -0.5163
18573TIP3   OH277133   2.311   1.856   3.551 -0.2621  0.1514 -0.5686
18573TIP3    H177134   2.320   1.947   3.579  1.0714 -0.5775  1.4722
18573TIP3    H277135   2.397   1.817   3.566 -0.5511 -1.2263 -2.3279
18574TIP3   OH277136   1.204   0.239  11.003 -0.1297 -0.0719  0.8565
18574TIP3    H177137   1.162   0.205  10.924 -0.2078 -0.1344  0.9243
18574TIP3    H277138   1.193   0.334  10.998 -1.8625 -0.2103  1.7556
18575TIP3   OH277139   6.783   6.032   3.937 -0.9938  0.4955  0.2035
18575TIP3    H177140   6.688   6.043   3.932 -1.2304 -1.3067  0.4343
18575TIP3    H277141   6.801   6.013   4.029 -0.4103  0.7914  0.1545
18576TIP3   OH277142   2.275   1.484  13.877 -0.2126  0.1303  0.3374
18576TIP3    H177143   2.363   1.448  13.888 -0.3646 -0.5901 -0.7044
18576TIP3    H277144   2.266   1.548  13.948  1.5351  0.9548 -0.1376
18577TIP3   OH277145   3.717   0.094  14.460 -0.4565  0.1919 -0.3339
18577TIP3    H177146   3.640   0.054  14.420  0.5131  0.5952 -2.7436
18577TIP3    H277147   3.790   0.069  14.402  1.0763  0.5671  1.3752
18578TIP3   OH277148   6.607   1.993   2.743 -0.1061 -0.1918 -0.2249
18578TIP3    H177149   6.521   1.969   2.709  0.3524  0.1249 -1.6470
18578TIP3    H277150   6.610   1.956   2.831 -1.5801 -0.4540 -0.2842
18579TIP3   OH277151   3.410   4.659  16.519  0.2080  0.0541  0.0879
18579TIP3    H177152   3.490   4.668  16.571 -1.0455  1.0416  1.8960
18579TIP3    H277153   3.357   4.595  16.567 -0.2311 -0.3816 -0.9450
18580TIP3   OH277154   0.315   0.592   0.914  0.7583 -0.1041 -0.2966
18580TIP3    H177155   0.257   0.664   0.890 -1.2536 -1.8785 -0.9101
18580TIP3    H277156   0.351   0.561   0.831 -0.2450 -1.3210 -0.2903
18581TIP3   OH277157   4.480   6.784   3.501 -0.1219 -0.9869 -0.8406
18581TIP3    H177158   4.482   6.877   3.524  3.4185 -1.4003  0.8547
18581TIP3    H277159   4.516   6.780   3.412  1.9075 -0.9251 -0.0370
18582TIP3   OH277160   0.974   1.671  11.234 -0.3633  0.0534 -0.0395
18582TIP3    H177161   0.998   1.593  11.183 -0.7316 -0.0786 -0.0129
18582TIP3    H277162   1.058   1.706  11.266 -0.2248 -0.5402  0.2514
18583TIP3   OH277163   5.217   1.129   4.702  0.0123 -0.0203  0.3510
18583TIP3    H177164   5.286   1.089   4.754 -0.5553 -1.9776 -0.3462
18583TIP3    H277165   5.141   1.129   4.760  0.1363  0.4988  0.5153
18584TIP3   OH277166   5.255   3.452  13.041  0.0136  0.1796  0.0822
18584TIP3    H177167   5.249   3.540  13.078  1.5733  0.1798  0.3652
18584TIP3    H277168   5.165   3.429  13.019 -0.2692  2.3115 -1.0916
18585TIP3   OH277169   2.337   5.851   5.371  0.2496 -0.1703 -0.2708
18585TIP3    H177170   2.333   5.793   5.296  2.0002 -0.9410  0.2162
18585TIP3    H277171   2.297   5.801   5.442  1.4546 -0.6791  0.0659
18586TIP3   OH277172   0.754   5.684  12.849  0.1782  0.1620 -0.0796
18586TIP3    H177173   0.679   5.635  12.817  0.3148  0.0501 -0.2303
18586TIP3    H277174   0.747   5.681  12.944  0.9749 -1.3615 -0.0605
18587TIP3   OH277175   4.806   4.054  14.941  0.0326  0.4299  0.6135
18587TIP3    H177176   4.876   4.045  14.876 -0.3505  0.2560  0.2229
18587TIP3    H277177   4.737   4.102  14.895 -0.9149 -1.1538  0.3530
18588TIP3   OH277178   4.787   2.314   3.658  0.6726  0.7954 -0.1536
18588TIP3    H177179   4.697   2.283   3.674  0.9357 -0.5140 -1.1327
18588TIP3    H277180   4.827   2.318   3.745 -0.6852  2.5588  0.4300
18589TIP3   OH277181   0.898   4.545  13.510 -0.2242 -0.6300  0.0449
18589TIP3    H177182   0.808   4.567  13.488 -0.1217  0.0565  0.3001
18589TIP3    H277183   0.898   4.449  13.517 -0.3544 -0.8286 -2.4483
18590TIP3   OH277184   1.555   1.732   1.789  0.2221 -0.9400  0.9033
18590TIP3    H177185   1.576   1.640   1.773 -1.5694 -2.1406  4.7477
18590TIP3    H277186   1.629   1.766   1.838  0.3843 -0.6455  0.4547
18591TIP3   OH277187   4.317   1.700   2.574  0.0421  0.4742 -0.5296
18591TIP3    H177188   4.338   1.613   2.607  0.2861  0.8387  0.3040
18591TIP3    H277189   4.397   1.750   2.587  0.4318  0.4107 -2.4897
18592TIP3   OH277190   1.160   5.387  11.451 -0.3306 -0.2526 -0.5600
18592TIP3    H177191   1.225   5.422  11.390  1.6692 -0.2515  1.5364
18592TIP3    H277192   1.147   5.296  11.423  0.7402 -0.3187 -0.8401
18593TIP3   OH277193   5.785   4.133  11.805  0.4630  0.0655 -0.9239
18593TIP3    H177194   5.742   4.202  11.753  0.5746  1.2688  0.5392
18593TIP3    H277195   5.737   4.053  11.782 -2.9131  1.4288  0.9970
18594TIP3   OH277196   3.835   1.608   0.824  0.4648  0.1111 -0.2692
18594TIP3    H177197   3.858   1.647   0.908 -0.7451 -0.0930  0.1706
18594TIP3    H277198   3.864   1.672   0.758  1.9637 -0.0060  0.2695
18595TIP3   OH277199   3.505   1.577   6.202 -0.3192 -0.6421  0.2362
18595TIP3    H177200   3.587   1.551   6.243 -0.4323 -0.2154  0.7474
18595TIP3    H277201   3.491   1.667   6.231 -0.5314 -0.4221 -0.5443
18596TIP3   OH277202   4.064   4.595  12.136 -0.0027  0.0804 -0.3229
18596TIP3    H177203   4.007   4.671  12.128  0.1036  0.1976  0.0127
18596TIP3    H277204   4.055   4.568  12.228  0.4402  0.0695 -0.2802
18597TIP3   OH277205   1.990   0.654   0.168  0.0135  0.1978 -0.5036
18597TIP3    H177206   1.963   0.676   0.079 -0.2189 -0.4367 -0.5890
18597TIP3    H277207   2.032   0.734   0.200 -2.6396  1.4640 -0.0877
18598TIP3   OH277208   2.338   3.837   1.907  0.3061  0.3918 -0.0774
18598TIP3    H177209   2.413   3.875   1.952  0.3916 -0.3464  0.4131
18598TIP3    H277210   2.370   3.818   1.819  0.3377  1.2101 -0.2445
18599TIP3   OH277211   0.610   4.996   4.037  0.2678 -0.0203  0.2684
18599TIP3    H177212   0.533   4.996   4.093  0.8800  1.3989  1.1307
18599TIP3    H277213   0.648   4.909   4.048 -0.0945 -0.0413  1.3889
18600TIP3   OH277214   6.064   5.015   1.810 -0.2576  0.6977 -0.6738
18600TIP3    H177215   6.081   4.992   1.902 -0.3255 -1.1155 -1.0919
18600TIP3    H277216   6.144   4.993   1.764 -0.1020  1.9404 -1.0002
18601TIP3   OH277217   3.309   1.327  11.272 -0.3693 -0.3050 -0.9650
18601TIP3    H177218   3.314   1.421  11.251  1.2839 -0.0503  0.4218
18601TIP3    H277219   3.246   1.292  11.210 -0.8375  1.6921 -1.6685
18602TIP3   OH277220   3.242   4.760   0.507  0.8067 -0.2295 -0.5614
18602TIP3    H177221   3.273   4.725   0.591  1.2370 -2.1576 -1.5050
18602TIP3    H277222   3.241   4.855   0.520  0.8328 -0.5004  1.6327
18603TIP3   OH277223   5.517   0.279   4.505 -0.6776 -0.1273  0.5588
18603TIP3    H177224   5.610   0.286   4.485 -0.7635  0.0308  0.2154
18603TIP3    H277225   5.514   0.272   4.601 -0.3775  1.0641  0.6585
18604TIP3   OH277226   0.136   1.789  15.805  0.2716 -0.4725  0.4432
18604TIP3    H177227   0.103   1.777  15.895  1.6116 -0.8377  0.9064
18604TIP3    H277228   0.133   1.701  15.767 -1.1985 -0.1534 -0.2016
18605TIP3   OH277229   2.496   1.981   1.537  0.1758  0.0179 -0.0478
18605TIP3    H177230   2.526   1.897   1.573  1.3458  0.1944 -0.5799
18605TIP3    H277231   2.485   1.964   1.443 -1.1103  0.0510  0.0826
18606TIP3   OH277232   5.531   4.142   3.738 -0.2612  0.2767 -0.1535
18606TIP3    H177233   5.595   4.116   3.672 -1.1174  0.2958 -1.0130
18606TIP3    H277234   5.525   4.237   3.728 -1.7626  0.0809 -1.3504
18607TIP3   OH277235   1.676   6.603   5.395  0.7116 -0.0150 -0.3770
18607TIP3    H177236   1.722   6.582   5.477  1.7568 -1.0354 -1.2025
18607TIP3    H277237   1.726   6.557   5.328 -1.7804 -1.5009 -1.2638
18608TIP3   OH277238   3.720   4.147  10.849  0.0965  0.4685 -0.3548
18608TIP3    H177239   3.801   4.128  10.896  0.5988  1.4028 -0.8482
18608TIP3    H277240   3.720   4.087  10.774  0.8811  1.2687 -0.9926
18609TIP3   OH277241   1.811   3.300  13.842 -0.3263 -0.2223 -0.5134
18609TIP3    H177242   1.817   3.209  13.813 -0.6212  0.3798 -2.5522
18609TIP3    H277243   1.753   3.298  13.917  1.5975 -2.0486  0.9800
18610TIP3   OH277244   0.595   1.226  11.730  0.2922  0.0788 -0.0332
18610TIP3    H177245   0.533   1.294  11.703  0.2948 -0.1002 -0.4831
18610TIP3    H277246   0.539   1.151  11.751  0.3210  0.0801  0.0476
18611TIP3   OH277247   0.033   4.438  16.342 -0.2389  0.1652  0.7650
18611TIP3    H177248   0.054   4.359  16.392 -1.7026 -0.1518  0.9009
18611TIP3    H277249  -0.016   4.406  16.266 -0.2553  0.8863  0.4735
18612TIP3   OH277250   4.920   2.466  13.198 -0.2746 -1.0134  0.3760
18612TIP3    H177251   4.867   2.423  13.265 -1.2419 -2.2069 -1.1034
18612TIP3    H277252   4.900   2.418  13.117  0.9038  0.3378 -0.7558
18613TIP3   OH277253   4.955   2.527  15.233  0.1916  0.3034  0.2814
18613TIP3    H177254   4.959   2.581  15.311 -1.1950 -0.5023  0.9273
18613TIP3    H277255   4.863   2.503  15.225  0.3911  0.0456 -1.3685
18614TIP3   OH277256   2.166   3.294   2.144  0.1084  1.0229 -0.2553
18614TIP3    H177257   2.250   3.301   2.098  0.9748 -3.3146  0.4568
18614TIP3    H277258   2.171   3.360   2.213  2.0782  2.1569 -1.4208
18615TIP3   OH277259   3.817   2.029   5.021 -0.3350  0.2266 -0.1457
18615TIP3    H177260   3.872   1.960   5.059  1.4373 -0.0020 -2.9879
18615TIP3    H277261   3.738   1.983   4.992 -0.5740 -0.0203  0.8543
18616TIP3   OH277262   4.242   2.077  12.302  0.1554  0.2861  0.0609
18616TIP3    H177263   4.239   2.168  12.333  0.8005  0.1402  0.5509
18616TIP3    H277264   4.171   2.034  12.348  1.7202 -0.1660  2.1228
18617TIP3   OH277265   4.766   2.961   0.693  0.1234  0.6894  0.3316
18617TIP3    H177266   4.690   2.921   0.651  0.0016  1.1593  0.0998
18617TIP3    H277267   4.803   3.017   0.625  2.0234 -1.2745 -0.3210
18618TIP3   OH277268   1.356   1.710  13.579 -0.0824 -0.2649  0.4923
18618TIP3    H177269   1.411   1.638  13.550  0.0474  0.9009 -2.3430
18618TIP3    H277270   1.267   1.684  13.554 -0.0172  0.5981 -0.6645
18619TIP3   OH277271   5.236   3.463   1.892 -0.1845 -0.1838  0.1818
18619TIP3    H177272   5.327   3.439   1.909  0.0551  0.5365 -0.0892
18619TIP3    H277273   5.188   3.429   1.968  0.5239  0.7986  1.0796
18620TIP3   OH277274   2.924   1.183  13.613  0.3605 -0.3568 -0.0386
18620TIP3    H177275   3.008   1.222  13.590 -0.4844  0.0142 -2.6446
18620TIP3    H277276   2.899   1.226  13.695  1.9407  0.6988 -0.0892
18621TIP3   OH277277   1.872   4.194  13.655  0.3475 -0.3465 -0.0295
18621TIP3    H177278   1.912   4.227  13.574 -3.0012  1.7277 -0.9635
18621TIP3    H277279   1.894   4.261  13.721 -1.7990  1.0135 -0.6399
18622TIP3   OH277280   4.678   3.003  12.498  0.3753 -0.1772  0.1754
18622TIP3    H177281   4.627   3.026  12.575  0.2650  0.4990 -0.0962
18622TIP3    H277282   4.621   3.026  12.424  1.7388  2.2608 -0.1711
18623TIP3   OH277283   1.825   1.390  15.395 -0.6334  0.1570  0.0519
18623TIP3    H177284   1.866   1.448  15.330 -2.0896  1.0254 -0.1227
18623TIP3    H277285   1.745   1.436  15.420 -2.0263 -1.9872 -0.3699
18624TIP3   OH277286   5.807   0.843  14.640  0.0391 -0.0751 -0.5875
18624TIP3    H177287   5.773   0.888  14.717  0.3609 -0.6297 -0.1155
18624TIP3    H277288   5.729   0.821  14.589 -0.0098  2.6251 -1.7428
18625TIP3   OH277289   3.466   6.393   4.976 -0.0652 -0.6137  0.0997
18625TIP3    H177290   3.543   6.433   4.936 -0.2338 -0.8824 -0.5097
18625TIP3    H277291   3.500   6.315   5.020  0.2776  0.2389  1.3712
18626TIP3   OH277292   5.770   0.063   4.914  0.0089 -0.1679  0.0419
18626TIP3    H177293   5.724   0.052   4.997 -0.7283  1.3260 -0.1425
18626TIP3    H277294   5.847   0.116   4.936  1.1089 -1.7866  0.1685
18627TIP3   OH277295   5.765   5.177   3.620 -0.0603 -0.0382  0.3616
18627TIP3    H177296   5.849   5.140   3.591 -1.7673 -2.2611 -1.9933
18627TIP3    H277297   5.742   5.127   3.698 -0.1619 -0.8418 -0.1800
18628TIP3   OH277298   0.269   3.412   5.175  0.1527 -0.7435 -0.1036
18628TIP3    H177299   0.178   3.408   5.145 -0.0014  0.0050  0.2484
18628TIP3    H277300   0.288   3.324   5.207 -0.8381 -0.5877  0.9351
18629TIP3   OH277301   2.265   1.412  16.817 -0.2112  0.0469 -0.6411
18629TIP3    H177302   2.284   1.500  16.850 -1.0804 -0.0372  0.1213
18629TIP3    H277303   2.327   1.355  16.863  0.2315  0.2402 -1.0001
18630TIP3   OH277304   3.567   5.675   3.082 -0.0079  0.2442 -0.5082
18630TIP3    H177305   3.514   5.604   3.046 -2.7212  0.2526  3.1443
18630TIP3    H277306   3.580   5.651   3.174  3.0539  2.2121 -0.3595
18631TIP3   OH277307   1.211   3.245   0.586 -0.2945 -0.2124 -0.1887
18631TIP3    H177308   1.296   3.211   0.613  1.2107  1.7721 -2.1743
18631TIP3    H277309   1.207   3.226   0.492 -0.6661  2.4451 -0.7391
18632TIP3   OH277310   2.756   0.745  14.419 -0.0927 -0.4249 -0.4682
18632TIP3    H177311   2.807   0.668  14.397  0.8211 -0.8853  3.0139
18632TIP3    H277312   2.676   0.711  14.459 -0.0417  0.3882  0.3492
18633TIP3   OH277313   5.929   1.429   2.847 -0.3649 -0.1047  0.3154
18633TIP3    H177314   5.847   1.468   2.818 -0.5766  1.5254  2.8926
18633TIP3    H277315   5.997   1.482   2.806 -0.6439  0.4790  0.5973
18634TIP3   OH277316   3.843   4.782  10.926 -0.5078  0.0879 -0.6845
18634TIP3    H177317   3.802   4.857  10.970  1.6056  1.3228 -0.7439
18634TIP3    H277318   3.932   4.812  10.906  0.8435 -2.9286  0.5371
18635TIP3   OH277319   1.182   6.119  12.141 -0.0218  0.5228 -0.2574
18635TIP3    H177320   1.122   6.049  12.167  1.5230 -0.2529  1.3463
18635TIP3    H277321   1.221   6.087  12.059 -0.7951  0.4278 -0.5927
18636TIP3   OH277322   1.739   4.714   0.994  0.5311  0.6812 -0.0433
18636TIP3    H177323   1.782   4.700   0.910  0.7592 -0.4933  0.2615
18636TIP3    H277324   1.684   4.791   0.981 -1.2563 -0.8716 -1.9658
18637TIP3   OH277325   1.826   1.162   0.012  0.3024 -0.1220 -0.7585
18637TIP3    H177326   1.858   1.140   0.099  0.9953  2.0496 -0.4285
18637TIP3    H277327   1.780   1.245   0.024  1.6849  0.9569 -2.7077
18638TIP3   OH277328   4.521   6.528  11.122 -0.0668 -0.2615 -0.4556
18638TIP3    H177329   4.611   6.531  11.091 -0.1626 -1.2410 -0.8371
18638TIP3    H277330   4.477   6.465  11.065 -0.7218 -0.6177  0.4241
18639TIP3   OH277331   5.500   6.466  13.420  0.0101  0.0352 -0.1399
18639TIP3    H177332   5.584   6.467  13.374 -1.3359  1.2461 -2.7247
18639TIP3    H277333   5.507   6.538  13.483  1.5880 -1.1190  1.0476
18640TIP3   OH277334   1.700   5.400  12.364  0.0697  0.0721  0.4431
18640TIP3    H177335   1.623   5.429  12.414  0.9121  2.8055  0.2395
18640TIP3    H277336   1.766   5.382  12.431  0.4916  1.5600  0.4333
18641TIP3   OH277337   5.909   4.926  11.965 -0.2000 -0.1813 -0.3740
18641TIP3    H177338   5.862   4.849  11.998 -0.8836  0.2655 -0.2926
18641TIP3    H277339   5.846   4.998  11.975  0.4936  0.4150 -0.3003
18642TIP3   OH277340   3.556   4.394   5.801 -0.1755 -0.0159 -0.4707
18642TIP3    H177341   3.533   4.477   5.759  0.2814  0.1885 -0.3240
18642TIP3    H277342   3.563   4.415   5.894  1.6092  0.1751 -0.6231
18643TIP3   OH277343   5.190   4.395   2.241  0.4391 -0.2519  0.8499
18643TIP3    H177344   5.140   4.407   2.322  2.5368 -0.0622  2.1625
18643TIP3    H277345   5.251   4.324   2.261  2.6395  1.4122  0.2670
18644TIP3   OH277346   6.444   1.335  13.794 -0.3972 -0.2496  0.0197
18644TIP3    H177347   6.462   1.297  13.880 -1.9276  1.8594  1.3223
18644TIP3    H277348   6.507   1.406  13.785  1.5167 -2.1186 -1.7971
18645TIP3   OH277349   4.474   6.609   2.472  0.3640 -0.4653 -0.1504
18645TIP3    H177350   4.478   6.514   2.487 -1.8417 -0.3253  1.5084
18645TIP3    H277351   4.391   6.623   2.427  0.6233  0.6772 -0.2768
18646TIP3   OH277352   0.489   2.703   1.079 -0.4019 -0.3371  0.7148
18646TIP3    H177353   0.510   2.753   1.000 -0.2917  0.5041  1.2726
18646TIP3    H277354   0.481   2.613   1.048 -0.0172 -0.0694 -0.2014
18647TIP3   OH277355   3.143   2.119   0.188 -0.2983  0.7276  0.4196
18647TIP3    H177356   3.156   2.212   0.172 -0.5600  0.9074  1.2598
18647TIP3    H277357   3.063   2.098   0.140 -0.9282  1.2086  1.2508
18648TIP3   OH277358   2.601   3.332  17.110  0.0241 -0.2129  0.1235
18648TIP3    H177359   2.560   3.247  17.093  1.5281 -1.3525  2.0131
18648TIP3    H277360   2.668   3.340  17.042 -1.1694  0.2002 -1.0210
18649TIP3   OH277361   3.318   2.006   5.198 -0.6101  0.4158 -0.0964
18649TIP3    H177362   3.405   2.039   5.175 -1.0133  1.1828 -0.5478
18649TIP3    H277363   3.284   2.069   5.261 -1.3256  0.7974 -0.8500
18650TIP3   OH277364   3.815   4.254   0.547 -0.3293  0.8315  0.0070
18650TIP3    H177365   3.751   4.320   0.522 -0.2912  1.0424  0.4553
18650TIP3    H277366   3.893   4.275   0.496  0.4306  2.5058  1.7904
18651TIP3   OH277367   5.712   3.284   0.610  0.1804 -0.0024  0.2977
18651TIP3    H177368   5.637   3.341   0.626 -0.4159 -0.3670 -1.1151
18651TIP3    H277369   5.676   3.208   0.564  0.9699 -1.5266  2.1539
18652TIP3   OH277370   4.256   5.546   5.706  0.2932  0.5592  0.1793
18652TIP3    H177371   4.265   5.461   5.664  0.5392  1.2703 -1.2755
18652TIP3    H277372   4.181   5.537   5.765 -0.4992 -0.2935 -0.9309
18653TIP3   OH277373   1.215   1.638   1.689  0.1541  0.1280  0.0854
18653TIP3    H177374   1.160   1.617   1.613 -0.3305  1.1091  0.1598
18653TIP3    H277375   1.268   1.712   1.660  1.1208 -0.5255  0.1715
18654TIP3   OH277376   0.111   1.839   2.399 -0.7154  0.1106  0.1135
18654TIP3    H177377   0.075   1.788   2.327  0.2585 -1.1578  0.4983
18654TIP3    H277378   0.081   1.793   2.478  1.5952 -0.9032  0.4368
18655TIP3   OH277379   3.153   6.203  16.774  0.0238 -0.1612  0.4515
18655TIP3    H177380   3.216   6.275  16.785 -1.5313  0.9757  2.2404
18655TIP3    H277381   3.124   6.211  16.683  1.2159  0.3296  0.1028
18656TIP3   OH277382   1.129   6.342  11.017 -0.2966  0.0254  0.1653
18656TIP3    H177383   1.151   6.319  11.107  0.2751 -0.3262 -0.0637
18656TIP3    H277384   1.038   6.314  11.007 -0.0444 -0.8651  0.3274
18657TIP3   OH277385   5.786   4.147  14.891 -0.0390 -0.0272  0.3527
18657TIP3    H177386   5.761   4.190  14.809 -1.2110  2.2839  1.8793
18657TIP3    H277387   5.881   4.137  14.884 -0.2265 -0.6930 -1.6615
18658TIP3   OH277388   4.032   3.542   1.972 -0.0430  0.8019 -0.7065
18658TIP3    H177389   4.061   3.452   1.986  0.4308  1.0402 -0.1447
18658TIP3    H277390   3.945   3.534   1.933 -0.4050  0.1083  0.2275
18659TIP3   OH277391   3.736   3.767  10.822 -0.4587 -0.2493  0.0944
18659TIP3    H177392   3.666   3.757  10.887  0.1208  0.3862  0.8169
18659TIP3    H277393   3.806   3.812  10.869 -1.4134  3.5058 -1.9374
18660TIP3   OH277394   4.787   4.458  14.572  0.3426 -0.5217 -0.0753
18660TIP3    H177395   4.855   4.462  14.639  1.3047 -1.6538 -0.9553
18660TIP3    H277396   4.714   4.508  14.609  1.6780  0.8140  0.8373
18661TIP3   OH277397   2.415   4.832  12.391 -1.0531 -0.0895 -0.0088
18661TIP3    H177398   2.486   4.777  12.422  0.2581  2.0473  0.9049
18661TIP3    H277399   2.350   4.831  12.462 -1.3012 -0.9249 -0.2488
18662TIP3   OH277400   0.726   3.652   6.107 -0.1157 -0.0363 -0.6017
18662TIP3    H177401   0.641   3.644   6.149  0.0129 -1.2982 -0.5631
18662TIP3    H277402   0.789   3.636   6.177  0.1633  1.0086 -0.6031
18663TIP3   OH277403   1.283   6.325  14.364 -0.9302 -0.2686 -0.1676
18663TIP3    H177404   1.227   6.391  14.323 -1.0760 -0.5784 -0.4780
18663TIP3    H277405   1.372   6.350  14.341 -1.0479 -0.8537 -1.3200
18664TIP3   OH277406   4.526   5.112   3.284 -0.0610  0.4968  0.2018
18664TIP3    H177407   4.506   5.026   3.249 -0.2426  1.4789 -2.2302
18664TIP3    H277408   4.472   5.172   3.233 -1.2125  1.9280  2.9748
18665TIP3   OH277409   0.390   4.363  12.631 -0.1590 -0.0460  0.4193
18665TIP3    H177410   0.376   4.312  12.710 -1.4991 -0.1997  0.0809
18665TIP3    H277411   0.404   4.452  12.662 -1.1467 -0.0242  0.8057
18666TIP3   OH277412   1.305   6.549  15.616 -0.0665 -0.4603 -0.1926
18666TIP3    H177413   1.335   6.469  15.573 -2.1764 -1.8706  0.8727
18666TIP3    H277414   1.375   6.571  15.677  1.2744 -0.5257 -1.6637
18667TIP3   OH277415   1.334   4.342   2.726 -0.1193  0.1607  0.2843
18667TIP3    H177416   1.354   4.429   2.691 -0.6476 -0.0036 -0.4468
18667TIP3    H277417   1.413   4.316   2.773  1.0181 -0.0366 -1.6581
18668TIP3   OH277418   1.927   6.029  14.064  0.2923  0.4297  0.0515
18668TIP3    H177419   1.839   6.036  14.100 -0.4145 -0.0360 -1.5345
18668TIP3    H277420   1.985   6.043  14.139 -1.1212  0.3926  1.1731
18669TIP3   OH277421   0.800   4.124   4.186 -0.2036  0.2598  0.2704
18669TIP3    H177422   0.865   4.166   4.130 -0.6289 -0.4233 -0.7340
18669TIP3    H277423   0.770   4.194   4.244 -0.3325  1.1524 -0.8571
18670TIP3   OH277424   3.291   0.112   0.539  0.9963  0.3642  0.0557
18670TIP3    H177425   3.206   0.068   0.543  1.9757 -1.7334 -1.2591
18670TIP3    H277426   3.332   0.094   0.624  0.4773  0.6787  0.3752
18671TIP3   OH277427   6.619   0.450  15.075 -0.2184 -0.0510 -0.1021
18671TIP3    H177428   6.632   0.446  15.169 -0.3693  1.4968 -0.0061
18671TIP3    H277429   6.687   0.509  15.043 -1.3230  0.9375 -0.7106
18672TIP3   OH277430   0.697   0.375  15.766  0.9274  0.7651 -0.0756
18672TIP3    H177431   0.674   0.375  15.859  1.5457 -1.2018  0.1010
18672TIP3    H277432   0.793   0.374  15.765  0.9260 -1.6328 -0.6819
18673TIP3   OH277433   4.353   6.208   4.847 -0.5311 -0.2457 -0.0405
18673TIP3    H177434   4.370   6.223   4.755  0.1744  3.9388  0.6960
18673TIP3    H277435   4.324   6.293   4.881 -2.1289 -2.0168  3.2977
18674TIP3   OH277436   2.759   1.180   2.338 -0.2169  0.0077  0.0667
18674TIP3    H177437   2.832   1.167   2.277 -0.2998  0.8334 -0.2155
18674TIP3    H277438   2.754   1.275   2.349 -2.9060  0.1715 -1.9383
18675TIP3   OH277439   5.547   4.029  14.590  0.2284  0.0724  0.6573
18675TIP3    H177440   5.550   3.935  14.610 -1.3070 -0.0425  0.4028
18675TIP3    H277441   5.497   4.034  14.509  0.9983  1.0655  0.2344
18676TIP3   OH277442   2.644   0.083  15.561 -0.0855 -0.4559 -0.5340
18676TIP3    H177443   2.619   0.017  15.496 -2.2710 -0.5988  0.3980
18676TIP3    H277444   2.561   0.107  15.603  1.1983  0.0867  1.7647
18677TIP3   OH277445   3.268   1.496  12.280  0.5012  0.2240  0.4837
18677TIP3    H177446   3.354   1.535  12.262  0.2509  1.2440  1.3964
18677TIP3    H277447   3.280   1.446  12.361  0.1875  0.5576  0.7424
18678TIP3   OH277448   3.207   1.088   4.205  0.3878 -0.3825  0.7280
18678TIP3    H177449   3.233   1.175   4.235  0.3954 -0.4446  0.9014
18678TIP3    H277450   3.137   1.105   4.142  0.8917 -0.2126  0.2089
18679TIP3   OH277451   5.461   2.948   3.978  0.3684  0.2308  0.6396
18679TIP3    H177452   5.428   2.861   4.003  0.0764  0.6133  1.6115
18679TIP3    H277453   5.422   2.965   3.892 -0.0483 -0.3504  0.7099
18680TIP3   OH277454   3.129   5.452   5.084  0.0372 -0.1410 -0.1079
18680TIP3    H177455   3.056   5.512   5.069  0.4023  0.2141 -0.4819
18680TIP3    H277456   3.110   5.412   5.169 -0.2817  0.4033  0.0824
18681TIP3   OH277457   0.899   1.721   2.444  0.7588  0.0547 -0.5597
18681TIP3    H177458   0.814   1.676   2.450  0.7995  0.0156 -0.2288
18681TIP3    H277459   0.906   1.746   2.353  0.3228  0.1812 -0.5630
18682TIP3   OH277460   3.072   2.020  15.117 -0.1468 -0.7430  0.2505
18682TIP3    H177461   3.081   1.957  15.046 -1.0481 -0.1367 -0.4108
18682TIP3    H277462   3.011   2.085  15.084 -0.3727 -0.3104  1.4863
18683TIP3   OH277463   3.900   0.867  12.192  0.0904 -0.0566 -0.5525
18683TIP3    H177464   3.881   0.793  12.135  0.7560  0.0794 -0.9574
18683TIP3    H277465   3.994   0.860  12.211  0.0341  0.3369 -0.1057
18684TIP3   OH277466   6.454   6.118  12.693 -0.1188 -0.4927  0.3847
18684TIP3    H177467   6.501   6.036  12.709  1.4132  0.0989 -1.0223
18684TIP3    H277468   6.507   6.165  12.629 -1.4833  1.1849  0.4387
18685TIP3   OH277469   5.919   6.306   2.862 -0.2171  0.0074  0.1235
18685TIP3    H177470   5.969   6.263   2.932 -2.3571 -0.6488  1.2740
18685TIP3    H277471   5.899   6.236   2.800 -3.4106 -0.6839  1.8293
18686TIP3   OH277472   3.855   2.445  16.067 -0.7478 -0.2336  0.3887
18686TIP3    H177473   3.841   2.432  16.161 -0.7215 -1.2407  0.2604
18686TIP3    H277474   3.941   2.487  16.061  0.2170 -2.0807  0.7273
18687TIP3   OH277475   6.325   4.293  16.479 -0.5669 -0.8533  0.3219
18687TIP3    H177476   6.252   4.355  16.477 -1.4955 -1.9331  0.4884
18687TIP3    H277477   6.338   4.269  16.387 -0.4106 -0.6468  0.2902
18688TIP3   OH277478   1.544   3.565  14.697  0.2036  0.2137  0.2630
18688TIP3    H177479   1.595   3.624  14.752  0.4458  0.2465  0.0092
18688TIP3    H277480   1.608   3.504  14.661  0.2030  0.8119 -0.7700
18689TIP3   OH277481   2.563   1.564  14.058  0.2151 -0.2267 -0.4884
18689TIP3    H177482   2.491   1.559  14.120  1.0336 -1.3480  0.3876
18689TIP3    H277483   2.614   1.641  14.086 -0.8537  0.8249 -1.3726
18690TIP3   OH277484   4.829   6.103  12.773 -0.3539  0.2281  0.4091
18690TIP3    H177485   4.837   6.173  12.838 -0.3162 -0.1305  0.7991
18690TIP3    H277486   4.821   6.023  12.826  2.4759 -0.4062 -0.0348
18691TIP3   OH277487   6.499   0.973   5.697 -0.1707  0.3085 -0.1708
18691TIP3    H177488   6.554   1.018   5.761  1.5543 -0.0701 -1.3734
18691TIP3    H277489   6.442   1.041   5.662 -1.0938  0.5289  1.7117
18692TIP3   OH277490   2.897   1.328  15.291 -0.1769  0.2539  0.0901
18692TIP3    H177491   2.910   1.250  15.345  0.6109  0.8870  0.8148
18692TIP3    H277492   2.933   1.303  15.205  0.1110 -0.1647  0.3277
18693TIP3   OH277493   5.988   2.358   5.343 -0.0244 -0.7815 -0.0500
18693TIP3    H177494   6.049   2.293   5.307  0.9537  1.2695 -2.2504
18693TIP3    H277495   5.901   2.319   5.330  0.6228 -2.3021  0.0576
18694TIP3   OH277496   5.524   3.471   5.469  0.0712 -0.3812 -0.2531
18694TIP3    H177497   5.582   3.438   5.537  0.8642  0.8150 -0.3227
18694TIP3    H277498   5.436   3.465   5.506  0.4714 -0.0261  0.7622
18695TIP3   OH277499   0.108   2.113   2.666  0.0940  0.0288  0.1977
18695TIP3    H177500   0.200   2.091   2.651  0.1658 -0.4687  1.2841
18695TIP3    H277501   0.103   2.132   2.760 -0.6793  1.2355 -0.0775
18696TIP3   OH277502   2.434   3.373  13.918  0.1550  0.9840 -0.4768
18696TIP3    H177503   2.466   3.369  14.008 -0.9692  0.0784 -0.1016
18696TIP3    H277504   2.341   3.395  13.927  0.2935  2.0153 -1.4713
18697TIP3   OH277505   3.103   6.348   2.382 -0.6089 -0.4347  0.0529
18697TIP3    H177506   3.191   6.343   2.346 -0.6653 -1.8312  0.0949
18697TIP3    H277507   3.097   6.436   2.419 -0.3693  0.8993 -2.9137
18698TIP3   OH277508   4.950   2.013   3.972  0.6164 -0.1845 -0.4849
18698TIP3    H177509   5.004   1.971   4.038 -0.1543 -2.1562 -1.0816
18698TIP3    H277510   4.899   2.078   4.020  0.8262 -0.8612  0.6716
18699TIP3   OH277511   1.220   5.144  16.045 -0.3746 -0.9731 -0.1087
18699TIP3    H177512   1.268   5.143  15.962 -0.7472 -0.9462 -0.3267
18699TIP3    H277513   1.212   5.052  16.069 -1.2565 -1.0457 -0.6768
18700TIP3   OH277514   0.749   0.342  11.233  0.5942  0.2423 -0.0080
18700TIP3    H177515   0.839   0.373  11.235  0.4845  0.6862 -1.5808
18700TIP3    H277516   0.696   0.423  11.237  0.2684  0.0086  0.4834
18701TIP3   OH277517   4.616   1.909  13.633  0.2150  0.1237  0.0124
18701TIP3    H177518   4.542   1.961  13.664  1.7849  1.8688  0.9578
18701TIP3    H277519   4.676   1.974  13.596  0.4136 -1.4558 -2.5626
18702TIP3   OH277520   4.223   2.292  13.435  0.2966 -0.8636  0.1021
18702TIP3    H177521   4.296   2.240  13.402  0.7567 -0.1262 -0.0440
18702TIP3    H277522   4.160   2.227  13.466  0.4889 -1.5309 -0.8717
18703TIP3   OH277523   0.069   2.272  15.282  0.0070  0.0694 -0.8414
18703TIP3    H177524   0.081   2.367  15.277  2.4920 -0.1129  0.6457
18703TIP3    H277525   0.158   2.237  15.282 -0.8463 -2.1892 -0.2183
18704TIP3   OH277526   0.311   0.302  13.215 -0.0284 -0.6879 -0.4667
18704TIP3    H177527   0.347   0.359  13.283  0.8760 -2.0725  0.2276
18704TIP3    H277528   0.216   0.314  13.223  0.1749  2.4988 -1.9015
18705TIP3   OH277529   2.104   3.030  15.533 -0.4194  0.2922 -0.3271
18705TIP3    H177530   2.025   3.079  15.509 -1.6282  0.2074  3.2005
18705TIP3    H277531   2.077   2.938  15.527 -0.1029  0.2128 -0.5795
18706TIP3   OH277532   2.449   6.061   5.706 -0.0484  0.5499  0.3539
18706TIP3    H177533   2.386   5.989   5.710 -0.9150  1.2837  0.1902
18706TIP3    H277534   2.522   6.032   5.760 -0.7379 -0.1132  0.9468
18707TIP3   OH277535   1.837   2.977  14.982  0.2840 -0.0415 -0.5731
18707TIP3    H177536   1.849   2.998  14.889  0.8644  2.3189 -0.0209
18707TIP3    H277537   1.849   3.061  15.027  0.5353 -1.2348  1.6864
18708TIP3   OH277538   4.672   1.414  16.159  0.5083  0.2401 -0.6917
18708TIP3    H177539   4.719   1.453  16.085  0.6438 -0.3612 -0.9290
18708TIP3    H277540   4.612   1.482  16.188  0.7552  0.6308 -1.0861
18709TIP3   OH277541   2.347   3.054   2.224  0.0914 -0.4708  0.1070
18709TIP3    H177542   2.339   3.122   2.157  0.4986 -0.4453  0.0790
18709TIP3    H277543   2.289   3.082   2.294  1.1326  0.5227  0.6003
18710TIP3   OH277544   2.217   4.355  13.596 -0.1063  0.6148 -0.6954
18710TIP3    H177545   2.249   4.333  13.683  1.6530 -0.1461 -1.5059
18710TIP3    H277546   2.296   4.367  13.544 -1.1117 -1.6206 -2.8368
18711TIP3   OH277547   2.490   5.732  11.842 -0.3499  0.2372  0.3757
18711TIP3    H177548   2.468   5.757  11.931  1.9171 -1.3568  1.4632
18711TIP3    H277549   2.556   5.796  11.814  0.2501 -0.3145  0.5183
18712TIP3   OH277550   4.372   4.597   0.044 -0.3951 -0.2474  0.2770
18712TIP3    H177551   4.298   4.547   0.008 -0.6731  0.2273  0.1783
18712TIP3    H277552   4.333   4.647   0.116 -0.3934  0.8052 -0.4408
18713TIP3   OH277553   0.920   2.663  12.603  0.2146  0.4543  0.7668
18713TIP3    H177554   0.907   2.677  12.697 -1.1858  1.6405  0.4069
18713TIP3    H277555   0.996   2.717  12.581  0.8730 -0.2310  1.2987
18714TIP3   OH277556   4.044   6.627  16.407 -0.3718 -0.0865 -0.3170
18714TIP3    H177557   4.108   6.556  16.414  2.1046  2.0189 -0.9819
18714TIP3    H277558   4.018   6.645  16.497 -2.3507 -2.9298 -0.2349
18715TIP3   OH277559   4.465   0.487  10.850 -0.1410 -0.0700 -0.0080
18715TIP3    H177560   4.541   0.491  10.908  0.4710 -1.8020 -0.6571
18715TIP3    H277561   4.404   0.427  10.894  0.2930 -1.3300 -1.0916
18716TIP3   OH277562   4.160   1.019  16.171 -0.0525 -0.2234  0.2254
18716TIP3    H177563   4.129   1.011  16.261  2.1915 -1.3961  0.9334
18716TIP3    H277564   4.256   1.018  16.178  0.1732  1.0524 -2.0619
18717TIP3   OH277565   5.383   3.240  15.304 -0.3434  0.4800  0.3479
18717TIP3    H177566   5.477   3.235  15.323  0.1252 -0.2477 -2.0391
18717TIP3    H277567   5.355   3.149  15.297 -1.1945  0.6976  0.7850
18718TIP3   OH277568   5.450   2.222   4.132  0.6110 -0.4125 -0.0511
18718TIP3    H177569   5.458   2.281   4.057 -0.5107 -0.7541 -0.4545
18718TIP3    H277570   5.398   2.149   4.099  0.5964 -0.8368  0.9033
18719TIP3   OH277571   2.149   1.013   2.877 -0.0146 -0.0982 -0.2283
18719TIP3    H177572   2.141   1.108   2.884 -0.9114 -0.2520  1.0085
18719TIP3    H277573   2.059   0.980   2.881  0.2690 -0.9867 -0.9430
18720TIP3   OH277574   6.142   5.042  11.517 -0.2077  0.5199  0.0550
18720TIP3    H177575   6.106   5.117  11.563  1.3870  0.9937  0.5437
18720TIP3    H277576   6.134   4.969  11.579  0.6599  0.8575  0.5722
18721TIP3   OH277577   0.149   1.285   5.751 -0.3931  0.2276 -0.2792
18721TIP3    H177578   0.243   1.267   5.742 -0.4438 -0.0288 -0.3129
18721TIP3    H277579   0.144   1.355   5.815 -0.2022 -0.1118  0.1099
18722TIP3   OH277580   3.602   4.781  14.470  0.6204  0.3734 -0.3579
18722TIP3    H177581   3.618   4.751  14.381  2.6170 -1.0840  0.4504
18722TIP3    H277582   3.508   4.792  14.476  0.4654  0.3641 -2.6098
18723TIP3   OH277583   6.321   5.194  12.439  0.1101 -0.8481 -0.0306
18723TIP3    H177584   6.251   5.129  12.432 -1.0608  0.4264 -0.2975
18723TIP3    H277585   6.392   5.159  12.384 -0.8542 -1.4304 -0.9159
18724TIP3   OH277586   0.278   2.343   4.930 -0.1421 -0.5768 -0.0357
18724TIP3    H177587   0.201   2.317   4.880 -0.3472 -0.2919  0.1310
18724TIP3    H277588   0.310   2.422   4.885 -0.1343 -0.5116  0.0832
18725TIP3   OH277589   0.984   1.002  14.463 -0.3838 -0.1446 -0.1204
18725TIP3    H177590   1.030   0.921  14.485 -0.5973 -0.2573 -0.0922
18725TIP3    H277591   1.053   1.063  14.436 -0.3068 -0.6085 -0.9899
18726TIP3   OH277592   5.977   1.057   3.801  0.2807  0.1446  0.1036
18726TIP3    H177593   6.059   1.100   3.826  0.1896 -0.0580  0.7627
18726TIP3    H277594   6.005   0.973   3.765  0.4083  0.3983 -0.3895
18727TIP3   OH277595   2.956   1.994   6.229  0.2310 -0.1294  0.3919
18727TIP3    H177596   2.862   2.006   6.243  0.2154 -1.2397  1.2154
18727TIP3    H277597   2.962   1.927   6.162  0.4130  1.5565 -1.3435
18728TIP3   OH277598   1.713   4.877   1.360 -0.1625  0.6768  0.7045
18728TIP3    H177599   1.700   4.960   1.405 -0.0973  1.1349 -0.1118
18728TIP3    H277600   1.625   4.843   1.347 -0.3724  1.8449 -1.2143
18729TIP3   OH277601   3.360   5.899   1.586  0.2887  0.3347 -0.0161
18729TIP3    H177602   3.353   5.894   1.681  0.2314 -2.0518 -0.1029
18729TIP3    H277603   3.358   5.807   1.557 -1.0627  1.0602 -2.4039
18730TIP3   OH277604   0.968   4.082  12.187  0.6247  0.0526  0.1186
18730TIP3    H177605   0.935   4.081  12.276  0.2003 -1.1375 -0.0402
18730TIP3    H277606   0.957   4.172  12.157 -1.2659 -0.0447  0.5073
18731TIP3   OH277607   6.077   4.651   5.751  0.1453 -0.0232 -0.2806
18731TIP3    H177608   6.113   4.592   5.684 -0.3295  0.2407 -0.7674
18731TIP3    H277609   6.154   4.699   5.784  0.3833 -0.1600 -0.6282
18732TIP3   OH277610   6.506   4.690  15.957  0.2134 -0.2116 -0.4899
18732TIP3    H177611   6.601   4.679  15.951  0.1144 -1.6259  0.3001
18732TIP3    H277612   6.471   4.630  15.891 -0.1246  0.4386 -0.9030
18733TIP3   OH277613   3.093   2.274  16.821 -0.2402 -0.2388  0.2671
18733TIP3    H177614   3.119   2.185  16.797 -0.2534 -0.3899  0.8135
18733TIP3    H277615   3.100   2.277  16.917 -0.1302  0.3799  0.2442
18734TIP3   OH277616   5.619   0.183   3.822 -0.0483  0.3326  0.0506
18734TIP3    H177617   5.526   0.177   3.804 -0.1521 -1.7597  1.2084
18734TIP3    H277618   5.627   0.254   3.886 -1.0016 -0.5141  1.1083
18735TIP3   OH277619   4.381   5.236   0.847  0.1870 -0.1693  0.4616
18735TIP3    H177620   4.422   5.158   0.885 -1.6808 -0.3561  2.1566
18735TIP3    H277621   4.321   5.202   0.781 -0.8455 -0.1811  1.4084
18736TIP3   OH277622   4.899   5.779   1.460  0.1007  0.2703  0.5490
18736TIP3    H177623   4.971   5.748   1.514  0.8186  1.7943  0.4978
18736TIP3    H277624   4.863   5.853   1.508  0.2517  1.1563 -0.6724
18737TIP3   OH277625   5.580   4.033   4.183 -0.2286 -0.2257  0.2643
18737TIP3    H177626   5.612   4.031   4.092 -0.2986 -0.4460  0.2458
18737TIP3    H277627   5.488   4.007   4.177 -0.0402 -0.9422  0.4846
18738TIP3   OH277628   4.663   0.132  15.449 -0.0094  0.1693 -0.2697
18738TIP3    H177629   4.757   0.115  15.445  0.1491  0.5206  1.5901
18738TIP3    H277630   4.626   0.083  15.375  1.5221 -0.6253 -0.5203
18739TIP3   OH277631   6.721   3.749  15.302  0.1202  0.1340 -0.0989
18739TIP3    H177632   6.785   3.746  15.230  0.4784  0.3097  0.2127
18739TIP3    H277633   6.639   3.775  15.259  0.9363  3.0157 -0.0545
18740TIP3   OH277634   4.824   3.228   5.691 -0.0206 -0.7469  0.1689
18740TIP3    H177635   4.796   3.215   5.782 -0.1422  1.9011  0.5379
18740TIP3    H277636   4.879   3.306   5.693  2.3586 -2.2888 -1.5946
18741TIP3   OH277637   5.210   2.469  13.923 -0.6085 -0.1190 -0.2628
18741TIP3    H177638   5.185   2.502  14.010  0.4860 -2.8674  1.1513
18741TIP3    H277639   5.159   2.523  13.862 -2.2561  1.1395  2.1191
18742TIP3   OH277640   4.394   2.895   0.578 -0.2570  0.3672 -0.4594
18742TIP3    H177641   4.439   2.821   0.618 -0.0280  0.1445 -1.1175
18742TIP3    H277642   4.375   2.866   0.489  0.7701  1.4836 -1.0571
18743TIP3   OH277643   4.414   2.070  13.695 -0.7963  0.0531  0.1084
18743TIP3    H177644   4.394   2.035  13.782 -0.6552  0.4890  0.3187
18743TIP3    H277645   4.455   2.155  13.712 -0.4036 -0.0378 -0.3751
18744TIP3   OH277646   0.738   3.586  11.591 -0.4840 -0.0070  0.1639
18744TIP3    H177647   0.811   3.642  11.563  0.6747 -0.5712  1.9532
18744TIP3    H277648   0.660   3.640  11.577  0.3825  1.1221 -0.4886
18745TIP3   OH277649   3.224   5.664   5.666  0.5565 -0.1843  0.0752
18745TIP3    H177650   3.269   5.725   5.724 -1.6938  0.5870  1.0694
18745TIP3    H277651   3.282   5.588   5.662  1.4683  0.3621  2.0907
18746TIP3   OH277652   4.114   6.116  11.620 -0.3708 -0.2385 -0.3969
18746TIP3    H177653   4.205   6.092  11.631 -0.1511  1.4055  1.8248
18746TIP3    H277654   4.066   6.061  11.682 -0.5638  0.6216  0.2428
18747TIP3   OH277655   5.548   4.348   5.860 -0.5130 -0.3612 -0.2534
18747TIP3    H177656   5.584   4.411   5.922  0.5284 -1.0748 -0.1177
18747TIP3    H277657   5.505   4.283   5.916  0.3824 -0.9779 -0.2748
18748TIP3   OH277658   2.641   1.308   2.774  0.1764 -0.0853 -0.0536
18748TIP3    H177659   2.556   1.328   2.737 -1.1518  0.5531  3.1309
18748TIP3    H277660   2.627   1.228   2.825  1.3350  0.3115  0.9241
18749TIP3   OH277661   4.486   0.697  11.272  0.2007 -0.4160  0.0777
18749TIP3    H177662   4.432   0.726  11.199 -1.1587 -0.7897  0.9177
18749TIP3    H277663   4.454   0.609  11.292  0.0615 -0.0389  1.5842
18750TIP3   OH277664   5.039   1.967  14.379  0.1254 -0.0861 -0.0592
18750TIP3    H177665   5.032   1.968  14.283  0.5349 -2.0257 -0.1364
18750TIP3    H277666   5.098   2.038  14.400  0.6434 -0.1393 -1.3154
18751TIP3   OH277667   4.767   4.488   5.579 -0.2184  0.4470 -0.0227
18751TIP3    H177668   4.835   4.499   5.645 -0.8123  0.5745  0.5781
18751TIP3    H277669   4.814   4.490   5.496  0.3936  1.5914  0.3372
18752TIP3   OH277670   4.893   2.268   3.382 -0.6326  0.0679  0.2918
18752TIP3    H177671   4.860   2.263   3.472 -0.3382 -0.8239  0.3595
18752TIP3    H277672   4.872   2.183   3.344  0.7375 -0.1837  0.0489
18753TIP3   OH277673   1.174   4.302  16.927  0.1137  0.5421 -0.5178
18753TIP3    H177674   1.117   4.227  16.945 -0.1487  0.3534 -2.0333
18753TIP3    H277675   1.256   4.281  16.970 -0.1986 -0.2867 -0.3178
18754TIP3   OH277676   5.420   0.193  17.046  0.0015  0.1071  0.2119
18754TIP3    H177677   5.324   0.188  17.042  0.0098  0.3845 -0.3487
18754TIP3    H277678   5.447   0.213  16.956  0.7138 -2.1326 -0.0920
18755TIP3   OH277679   0.670   1.084  16.057 -0.6944 -0.8120 -0.1365
18755TIP3    H177680   0.575   1.094  16.049 -0.7280 -0.8458  0.2206
18755TIP3    H277681   0.700   1.165  16.098 -0.8903 -1.8794  2.1515
18756TIP3   OH277682   6.755   1.168   3.229  0.2622 -0.4791  0.3886
18756TIP3    H177683   6.841   1.207   3.219  0.1006 -0.1436  0.3007
18756TIP3    H277684   6.755   1.092   3.171  0.7753 -0.9309  0.9854
18757TIP3   OH277685   4.925   5.487  16.975  0.5907 -0.1314  0.6799
18757TIP3    H177686   4.888   5.519  17.057  0.2974 -0.3718  0.6392
18757TIP3    H277687   4.931   5.564  16.919 -0.6735 -0.2477  0.3777
18758TIP3   OH277688   2.521   4.235   1.672  0.2438  0.3647  0.5686
18758TIP3    H177689   2.495   4.295   1.602  1.3145  0.9641  0.6753
18758TIP3    H277690   2.477   4.153   1.651  0.7445  0.4691 -0.9500
18759TIP3   OH277691   5.882   2.626   2.963 -0.2341 -0.4952  0.2276
18759TIP3    H177692   5.950   2.571   3.002  0.5327  0.9018  0.8774
18759TIP3    H277693   5.922   2.712   2.954 -2.1966  0.5926  1.5076
18760TIP3   OH277694   0.863   6.606   5.712 -0.1208 -0.2737 -0.2692
18760TIP3    H177695   0.939   6.637   5.762 -1.2796  1.6904  0.3517
18760TIP3    H277696   0.810   6.558   5.776  0.3093 -1.1353 -0.5593
18761TIP3   OH277697   1.196   1.607  16.224  0.6626 -0.2024  0.3032
18761TIP3    H177698   1.169   1.616  16.315  0.0897  0.9647  0.0189
18761TIP3    H277699   1.115   1.585  16.177  0.4282  1.8595 -0.3216
18762TIP3   OH277700   3.266   1.436   5.988  0.3618  0.0391  0.2340
18762TIP3    H177701   3.208   1.445   5.912  1.7233  1.5893 -0.6505
18762TIP3    H277702   3.217   1.380   6.048 -0.1306 -2.4924 -2.3912
18763TIP3   OH277703   5.936   2.477   4.219 -0.1714 -0.8695 -0.1118
18763TIP3    H177704   5.871   2.544   4.199  0.9897  0.3039 -0.0218
18763TIP3    H277705   5.891   2.394   4.202 -2.0709 -0.1308  1.1030
18764TIP3   OH277706   2.477   3.111  16.434  0.1787 -0.1502 -0.4498
18764TIP3    H177707   2.540   3.179  16.460 -0.4118  0.2978 -0.1695
18764TIP3    H277708   2.395   3.159  16.420 -0.4247 -0.9170  0.4630
18765TIP3   OH277709   6.470   2.017   6.070  0.7579  0.0283  0.4090
18765TIP3    H177710   6.415   2.060   6.004  0.3074  0.6850  1.1887
18765TIP3    H277711   6.408   1.963   6.119  0.9523  0.1370  0.7719
18766TIP3   OH277712   6.003   5.363   2.381  0.6167  0.3498 -0.1039
18766TIP3    H177713   6.017   5.270   2.362  3.4492  0.8826 -0.8000
18766TIP3    H277714   6.091   5.400   2.389 -0.4620  3.0835 -0.2993
18767TIP3   OH277715   3.963   0.775   1.645 -0.3970 -1.3030 -0.0971
18767TIP3    H177716   3.929   0.852   1.601 -0.3462 -1.3945 -0.2968
18767TIP3    H277717   3.961   0.798   1.738 -1.6926 -1.5856 -0.0468
18768TIP3   OH277718   2.256   2.431   0.352 -0.3262 -0.8563  1.2392
18768TIP3    H177719   2.179   2.392   0.310  0.2751 -1.5228  0.7579
18768TIP3    H277720   2.325   2.366   0.340  1.3770  1.3770 -1.7666
18769TIP3   OH277721   5.508   4.562  13.183  0.7704 -0.1628  0.7358
18769TIP3    H177722   5.512   4.467  13.192  0.8254 -0.1510  0.8423
18769TIP3    H277723   5.587   4.585  13.134  0.0923 -0.3059 -0.4504
18770TIP3   OH277724   6.540   3.610   4.460 -0.2090  0.4599  0.1609
18770TIP3    H177725   6.479   3.597   4.387  0.3937  2.4220 -0.7443
18770TIP3    H277726   6.528   3.702   4.484  2.8632  1.0801 -0.5204
18771TIP3   OH277727   0.373   2.504   4.706 -0.3364 -0.2936  0.7481
18771TIP3    H177728   0.341   2.550   4.628 -0.7929 -1.9387 -0.0661
18771TIP3    H277729   0.456   2.546   4.728  1.3683 -1.8308 -2.5014
18772TIP3   OH277730   2.549   4.579   3.937 -0.2126 -0.0701  0.3325
18772TIP3    H177731   2.553   4.566   3.842  1.4636  0.7757  0.2799
18772TIP3    H277732   2.598   4.505   3.973 -0.1551  0.0542  0.5090
18773TIP3   OH277733   4.205   1.131  15.501  0.3832  0.3789 -0.3984
18773TIP3    H177734   4.179   1.062  15.440 -0.5181  1.1146 -0.8462
18773TIP3    H277735   4.186   1.095  15.588  1.4357 -0.5712 -0.5550
18774TIP3   OH277736   3.244   1.370   2.823 -0.2677  0.2414 -0.9078
18774TIP3    H177737   3.240   1.303   2.891  0.9487 -0.1444 -1.2045
18774TIP3    H277738   3.153   1.391   2.804 -0.6503 -1.2330 -0.7168
18775TIP3   OH277739   5.355   1.586   2.249  0.0891 -0.7345  0.2980
18775TIP3    H177740   5.381   1.494   2.250 -0.2304 -0.8137  1.4458
18775TIP3    H277741   5.300   1.597   2.326  2.0745  0.9783  1.5545
18776TIP3   OH277742   4.106   6.517   3.077 -0.0502 -0.3149  0.2172
18776TIP3    H177743   4.164   6.469   3.136 -1.1607 -0.6511  1.0535
18776TIP3    H277744   4.034   6.457   3.060 -0.2800  0.1915 -0.6094
18777TIP3   OH277745   3.107   4.140  16.237  0.1747  0.4233  0.4209
18777TIP3    H177746   3.071   4.206  16.178 -0.2410  1.2584  1.5802
18777TIP3    H277747   3.031   4.090  16.267  0.5668 -1.0502 -0.9935
18778TIP3   OH277748   4.999   3.565   3.665 -0.0935 -0.3464 -0.0867
18778TIP3    H177749   5.081   3.524   3.639  0.0593  0.5268 -1.0030
18778TIP3    H277750   5.025   3.644   3.712 -0.4152  1.1366 -2.3626
18779TIP3   OH277751   2.858   2.119  15.898 -0.1341 -0.5312  0.0062
18779TIP3    H177752   2.841   2.195  15.843  0.3461 -0.4481 -0.0339
18779TIP3    H277753   2.844   2.044  15.841  0.2177 -0.4490 -0.1926
18780TIP3   OH277754   4.127   4.607   1.271  0.1935 -0.2002  0.1154
18780TIP3    H177755   4.139   4.671   1.201  0.5090  0.0031  0.3564
18780TIP3    H277756   4.198   4.624   1.332  0.6119 -1.1478 -0.0958
18781TIP3   OH277757   2.034   1.941   4.247  0.0786 -0.3132  0.0500
18781TIP3    H177758   1.996   1.921   4.161 -0.0890 -1.6006  0.4058
18781TIP3    H277759   1.959   1.969   4.300 -0.0359 -0.7537  0.1291
18782TIP3   OH277760   3.254   4.481  15.395  0.3908 -0.0207  0.2121
18782TIP3    H177761   3.207   4.523  15.467 -1.0316  0.5224 -1.0174
18782TIP3    H277762   3.259   4.389  15.420 -0.6663  0.0538  0.7002
18783TIP3   OH277763   1.281   4.363   0.667 -0.5736  0.0509 -0.1797
18783TIP3    H177764   1.290   4.457   0.678  0.3510  0.1471 -1.6982
18783TIP3    H277765   1.326   4.325   0.743  0.1088  0.8094 -0.2076
18784TIP3   OH277766   2.810   2.267  11.432  0.6669  0.2209 -0.5771
18784TIP3    H177767   2.818   2.222  11.348  1.7524 -3.3870  1.3608
18784TIP3    H277768   2.896   2.257  11.473 -0.2215  0.8427  1.4801
18785TIP3   OH277769   5.538   5.234   1.661 -0.2484 -0.8512 -0.3423
18785TIP3    H177770   5.499   5.264   1.743  3.2600  2.6440  0.2316
18785TIP3    H277771   5.630   5.218   1.683  0.7410  0.0878 -3.5405
18786TIP3   OH277772   5.223   0.719   0.639  0.2271 -0.0144 -0.6199
18786TIP3    H177773   5.205   0.627   0.657  0.2565 -0.0863 -0.9574
18786TIP3    H277774   5.317   0.730   0.658  0.2835 -0.1162 -0.8437
18787TIP3   OH277775   5.147   4.730  17.022 -0.0186  0.7400  0.2191
18787TIP3    H177776   5.174   4.646  16.985 -1.2366  1.0123 -1.3512
18787TIP3    H277777   5.126   4.711  17.113  1.4043 -0.2869  0.3528
18788TIP3   OH277778   5.138   6.664  13.726  0.1706 -0.4063 -0.7916
18788TIP3    H177779   5.193   6.627  13.794 -0.0096  0.1245 -0.3539
18788TIP3    H277780   5.198   6.681  13.653  0.5292 -0.1278 -0.4351
18789TIP3   OH277781   1.934   3.033  13.817 -0.0623 -0.1600  0.2060
18789TIP3    H177782   1.880   2.962  13.851  0.1663 -1.2679 -1.6205
18789TIP3    H277783   2.021   3.018  13.855 -0.5925  0.5491  1.7039
18790TIP3   OH277784   4.007   1.481   5.408  0.1114  0.0413  0.4919
18790TIP3    H177785   4.082   1.540   5.406 -1.0145  1.4992  0.7979
18790TIP3    H277786   3.978   1.482   5.499  0.1867 -1.1338  0.5397
18791TIP3   OH277787   4.763   0.032   4.534 -0.8226 -0.3239  0.0722
18791TIP3    H177788   4.817   0.084   4.475  1.4973 -0.2195  2.2226
18791TIP3    H277789   4.689   0.089   4.556 -0.9141  0.1778 -1.4963
18792TIP3   OH277790   0.630   4.783   3.452 -0.8041  0.0081  0.1472
18792TIP3    H177791   0.587   4.733   3.521 -0.4384 -0.8922 -0.2721
18792TIP3    H277792   0.677   4.717   3.400  1.5365  0.9889  0.9218
18793TIP3   OH277793   4.212   3.283  11.072 -1.0273 -0.4736  0.2864
18793TIP3    H177794   4.127   3.323  11.091 -1.4166 -0.5180 -1.3317
18793TIP3    H277795   4.192   3.190  11.060 -0.2617 -1.0525  3.1296
18794TIP3   OH277796   0.655   1.156   4.908 -0.7246  0.0384 -0.8526
18794TIP3    H177797   0.690   1.087   4.852 -2.7745 -0.7705 -1.1665
18794TIP3    H277798   0.731   1.210   4.929  0.7428 -1.7509 -1.3943
18795TIP3   OH277799   0.727   3.968   5.351 -0.0304  0.3191 -0.1084
18795TIP3    H177800   0.670   3.926   5.415 -0.8308  1.3149 -0.1600
18795TIP3    H277801   0.801   3.908   5.342  0.6440  0.6839  2.5856
18796TIP3   OH277802   4.952   5.095   5.946  0.4204 -0.7418 -0.5571
18796TIP3    H177803   4.985   5.082   6.034  0.6492 -0.2998 -0.5817
18796TIP3    H277804   4.857   5.085   5.955  0.2069  1.6139  0.1613
18797TIP3   OH277805   4.147   6.022  12.608  0.3455  0.3609  0.4550
18797TIP3    H177806   4.221   5.965  12.630  0.1419 -0.8165 -1.7258
18797TIP3    H277807   4.075   5.991  12.664  0.4609 -1.0263 -0.1443
18798TIP3   OH277808   6.223   2.958   1.925 -0.5070 -0.2794 -0.3543
18798TIP3    H177809   6.277   2.909   1.864  1.2245  1.1511  0.0019
18798TIP3    H277810   6.153   2.995   1.871  0.0468 -0.4115 -1.1679
18799TIP3   OH277811   1.873   2.507  15.478 -0.0508 -0.0564  0.5756
18799TIP3    H177812   1.954   2.533  15.434 -1.1520  1.2514 -0.7496
18799TIP3    H277813   1.870   2.411  15.468  0.3029  0.0926 -1.2218
18800TIP3   OH277814   2.017   0.988   1.213  0.4743  0.1679 -0.3950
18800TIP3    H177815   2.102   1.025   1.233  1.2584 -0.7601 -1.9064
18800TIP3    H277816   1.979   0.965   1.298  2.6982 -1.5439  0.1644
18801TIP3   OH277817   6.747   2.230  11.551  1.0110 -0.0484 -0.5559
18801TIP3    H177818   6.706   2.258  11.632  2.0848 -0.3811  0.1159
18801TIP3    H277819   6.839   2.216  11.574  1.3835  0.1398 -1.8945
18802TIP3   OH277820   0.585   2.719   4.297 -0.0590  0.4623  0.2236
18802TIP3    H177821   0.619   2.632   4.317 -0.6163  1.1366  4.7618
18802TIP3    H277822   0.662   2.771   4.275  0.4939 -0.7078 -0.6561
18803TIP3   OH277823   3.877   5.605  16.456 -0.4881  0.2530 -0.2373
18803TIP3    H177824   3.937   5.542  16.495 -0.3454  0.7319  0.3085
18803TIP3    H277825   3.926   5.687  16.452 -0.6823  0.3384 -0.9224
18804TIP3   OH277826   4.822   6.507  17.131  0.0820  0.6422  0.8034
18804TIP3    H177827   4.851   6.417  17.149 -0.7441  0.2459  0.1865
18804TIP3    H277828   4.776   6.534  17.210  1.9829  1.2208  1.7315
18805TIP3   OH277829   6.107   5.007  15.745  0.1451  0.3546 -0.0549
18805TIP3    H177830   6.135   5.091  15.782 -0.7836  1.0849 -0.9641
18805TIP3    H277831   6.163   4.942  15.787  1.0285  1.4568  0.5023
18806TIP3   OH277832   1.978   4.314  13.431 -0.7496 -0.0313  0.7267
18806TIP3    H177833   2.057   4.362  13.456 -0.3376 -1.1178  1.6175
18806TIP3    H277834   2.005   4.261  13.356 -1.2587  1.2706 -0.3809
18807TIP3   OH277835   1.923   3.788  16.897  0.0085  0.7154  0.0985
18807TIP3    H177836   1.833   3.775  16.866  0.3249  0.3865 -0.6958
18807TIP3    H277837   1.974   3.723  16.849  0.6370  0.7151  0.7495
18808TIP3   OH277838   5.699   6.567  16.841 -0.1677  0.4606 -0.2083
18808TIP3    H177839   5.781   6.526  16.869 -1.8790 -2.1325  1.1293
18808TIP3    H277840   5.679   6.524  16.758 -0.6513  0.4421 -0.0794
18809TIP3   OH277841   5.346   0.851  14.780  0.4323  0.5368  0.0635
18809TIP3    H177842   5.292   0.838  14.858 -0.1816  0.1477 -0.4151
18809TIP3    H277843   5.286   0.836  14.707  0.9945  0.9250 -0.4848
18810TIP3   OH277844   2.374   2.066  14.400 -0.3300 -0.4955 -0.3118
18810TIP3    H177845   2.433   2.026  14.464 -1.2784  0.9594  1.5681
18810TIP3    H277846   2.415   2.051  14.315  0.8997 -2.6235  0.6231
18811TIP3   OH277847   4.846   2.832  16.466  0.1035 -0.4346 -0.2224
18811TIP3    H177848   4.785   2.880  16.409  0.4502  0.7374  0.3733
18811TIP3    H277849   4.920   2.812  16.409 -0.0471 -0.2643 -0.4842
18812TIP3   OH277850   5.862   4.037  16.496 -0.0627 -0.5102  0.0490
18812TIP3    H177851   5.832   4.126  16.480 -2.0266 -1.0820  0.5025
18812TIP3    H277852   5.858   3.994  16.410  1.5872  0.0180 -0.3151
18813TIP3   OH277853   6.748   5.606  14.740 -0.4784 -0.4085  0.0484
18813TIP3    H177854   6.802   5.528  14.732  0.2573 -0.0233  1.2184
18813TIP3    H277855   6.781   5.651  14.818 -0.8845  1.0732 -0.6147
18814TIP3   OH277856   3.416   2.118  11.079  0.2850 -0.4623 -0.5050
18814TIP3    H177857   3.346   2.164  11.034  0.0483  0.0787  0.4015
18814TIP3    H277858   3.371   2.064  11.145  0.7122 -0.1630  0.0382
18815TIP3   OH277859   0.403   6.238   5.059 -0.3437 -0.0723 -0.3348
18815TIP3    H177860   0.412   6.275   4.971  1.2281  1.9675  0.6295
18815TIP3    H277861   0.411   6.144   5.046  0.5142  0.2402 -2.3034
18816TIP3   OH277862   0.137   0.567   5.286 -0.2250 -0.1273  0.5635
18816TIP3    H177863   0.054   0.604   5.256  0.2008  0.8648  0.6062
18816TIP3    H277864   0.150   0.604   5.373  0.1910 -0.4063  0.6210
18817TIP3   OH277865   0.514   0.730  13.703 -0.2593 -0.4692  0.3056
18817TIP3    H177866   0.496   0.641  13.733 -0.1851 -0.4916  0.2841
18817TIP3    H277867   0.582   0.762  13.762 -0.6551 -0.2436  0.6344
18818TIP3   OH277868   0.530   5.257  12.026 -0.6843 -0.0732  0.7682
18818TIP3    H177869   0.580   5.317  12.082  1.4808  0.6807 -1.8632
18818TIP3    H277870   0.596   5.196  11.993 -1.7399  0.0924 -1.6918
18819TIP3   OH277871   2.107   3.697   5.327  0.0317 -0.4930 -0.1275
18819TIP3    H177872   2.067   3.670   5.409 -1.9301  1.5947 -0.3493
18819TIP3    H277873   2.139   3.786   5.343 -1.7148  0.5132 -2.0393
18820TIP3   OH277874   3.594   0.081   5.275 -0.3791  0.1561 -0.4039
18820TIP3    H177875   3.511   0.058   5.232 -0.4085 -0.1440 -0.1908
18820TIP3    H277876   3.585   0.044   5.363 -0.1647  0.4369 -0.2671
18821TIP3   OH277877   1.291   6.011   5.792  0.0802  0.1180  0.5207
18821TIP3    H177878   1.377   5.971   5.788 -0.3793 -0.9403  1.2415
18821TIP3    H277879   1.239   5.963   5.727  0.6120  2.2340 -1.5914
18822TIP3   OH277880   4.099   2.726  11.222 -0.1142 -0.4189 -0.0675
18822TIP3    H177881   4.079   2.677  11.302  0.9243 -0.8414 -0.0553
18822TIP3    H277882   4.034   2.696  11.158  0.1394 -1.3705  0.1173
18823TIP3   OH277883   2.421   6.536  15.649 -0.0881 -0.0685 -0.3298
18823TIP3    H177884   2.514   6.515  15.644  0.4494  2.0737  0.1101
18823TIP3    H277885   2.418   6.622  15.691 -2.2725 -0.1572 -0.2498
18824TIP3   OH277886   3.139   3.120  13.263  0.0644 -0.1499  0.0395
18824TIP3    H177887   3.191   3.195  13.234 -1.2076  1.5210  1.9557
18824TIP3    H277888   3.060   3.123  13.209 -1.2423  1.5774  1.9738
18825TIP3   OH277889   2.021   4.173  14.377 -0.0954 -0.1654 -0.1402
18825TIP3    H177890   2.066   4.256  14.359  0.0708  0.0708  1.3192
18825TIP3    H277891   1.930   4.199  14.395  0.2635 -0.1266  1.7437
18826TIP3   OH277892   6.716   3.048   3.144  0.7097 -0.0223  0.1881
18826TIP3    H177893   6.657   3.046   3.069  0.7098  1.3514  0.1380
18826TIP3    H277894   6.794   3.001   3.115  0.4836  0.0060 -0.4662
18827TIP3   OH277895   6.545   5.127   6.353  0.5933  0.1081  0.1587
18827TIP3    H177896   6.499   5.210   6.352  0.2528 -0.0734  0.5973
18827TIP3    H277897   6.553   5.104   6.446  0.1879 -0.6164  0.0180
18828TIP3   OH277898   3.815   5.652  15.479 -0.0220  0.1615  0.0785
18828TIP3    H177899   3.749   5.719  15.466 -0.4685 -0.0292  1.2941
18828TIP3    H277900   3.861   5.678  15.559  0.6706 -0.2760 -0.1690
18829TIP3   OH277901   3.776   2.294   5.073 -0.3259 -0.1119 -0.1277
18829TIP3    H177902   3.738   2.327   4.992  2.5245  0.8909 -1.1104
18829TIP3    H277903   3.802   2.204   5.053 -0.0529 -0.0211 -0.1822
18830TIP3   OH277904   1.508   5.635  16.827 -0.0905 -0.0240  0.2917
18830TIP3    H177905   1.509   5.725  16.796 -0.7208  0.3370  1.2977
18830TIP3    H277906   1.416   5.611  16.830 -0.0121 -0.2291  1.3532
18831TIP3   OH277907   5.175   6.045  12.819  0.0563  0.2388  0.1191
18831TIP3    H177908   5.200   6.051  12.727 -1.0679  1.2918 -0.1308
18831TIP3    H277909   5.251   6.007  12.862  0.9437  0.6098 -1.0951
18832TIP3   OH277910   6.250   5.326  16.350 -0.2909  0.6585  0.0691
18832TIP3    H177911   6.299   5.248  16.377  0.3060  0.7251 -0.7999
18832TIP3    H277912   6.158   5.302  16.360 -0.1098 -0.2938 -0.5844
18833TIP3   OH277913   3.631   4.230  11.594 -0.1645 -0.4219  0.7033
18833TIP3    H177914   3.687   4.297  11.555  1.1256 -2.5067 -1.1502
18833TIP3    H277915   3.690   4.177  11.647 -0.8681 -1.0606  0.8600
18834TIP3   OH277916   2.275   1.645  14.942  0.4979  0.3239  0.1146
18834TIP3    H177917   2.189   1.668  14.978  0.7489 -1.1710  1.7353
18834TIP3    H277918   2.326   1.725  14.949 -0.0173  0.5539  1.4576
18835TIP3   OH277919   5.640   1.013   4.838  0.7903  0.1274  0.4354
18835TIP3    H177920   5.616   0.958   4.913  2.0752 -0.9795  0.0591
18835TIP3    H277921   5.610   0.964   4.762  0.9697  0.4694  0.1434
18836TIP3   OH277922   2.230   1.052  11.223  0.1392 -0.0109 -0.1308
18836TIP3    H177923   2.303   1.043  11.284  0.5297  1.2162 -0.4078
18836TIP3    H277924   2.156   1.014  11.270  1.0940 -1.8931 -0.1203
18837TIP3   OH277925   5.463   5.174   0.767 -0.6428  0.8058  0.1340
18837TIP3    H177926   5.518   5.101   0.794 -1.2756 -0.0541 -0.8445
18837TIP3    H277927   5.389   5.173   0.828 -0.3026  1.0637  0.5511
18838TIP3   OH277928   5.848   3.929  11.609  0.3013 -0.3597  0.3427
18838TIP3    H177929   5.794   3.976  11.545 -0.5481  0.7141  1.8365
18838TIP3    H277930   5.825   3.837  11.595 -0.0759 -0.1153 -0.7186
18839TIP3   OH277931   3.088   5.088   0.150 -0.5207  0.6470  0.6763
18839TIP3    H177932   3.181   5.076   0.129  0.2659  3.5659  2.2211
18839TIP3    H277933   3.088   5.150   0.222 -3.7713  1.9921 -0.4164
18840TIP3   OH277934   6.720   4.360   5.031  0.0920 -0.0654 -0.3930
18840TIP3    H177935   6.688   4.298   4.966 -1.5656  0.9141 -0.5338
18840TIP3    H277936   6.746   4.437   4.980 -0.0815  0.2443 -0.0146
18841TIP3   OH277937   3.820   1.947   6.133 -0.3455 -0.6296 -0.3135
18841TIP3    H177938   3.800   2.036   6.161  0.3670 -0.6062  0.1511
18841TIP3    H277939   3.735   1.902   6.134 -0.3682 -0.6022  1.8620
18842TIP3   OH277940   5.320   2.045  16.293  0.0549  0.0458  0.6314
18842TIP3    H177941   5.295   2.042  16.200 -1.3058  1.7182  0.9195
18842TIP3    H277942   5.359   1.960  16.310 -2.9552 -1.6475 -0.5619
18843TIP3   OH277943   3.907   1.725  14.844  0.1779 -0.5089 -0.1439
18843TIP3    H177944   3.974   1.702  14.780  2.4044 -0.8359  2.2195
18843TIP3    H277945   3.892   1.818  14.830  2.3791 -0.0441  0.3860
18844TIP3   OH277946   2.529   2.695  11.053  0.7017 -0.1895 -1.0669
18844TIP3    H177947   2.567   2.607  11.053  1.3658  0.0951 -1.8773
18844TIP3    H277948   2.593   2.749  11.006 -0.2338  0.4862 -1.5789
18845TIP3   OH277949   1.561   6.721   0.115  0.2813 -0.2601 -0.2744
18845TIP3    H177950   1.476   6.707   0.156 -0.2637 -0.1061 -1.3356
18845TIP3    H277951   1.623   6.674   0.171 -0.4523 -0.1091  0.6810
18846TIP3   OH277952   6.199   4.261   1.183 -0.2836 -0.3569 -0.0132
18846TIP3    H177953   6.238   4.261   1.271 -2.5106  0.1795  1.0110
18846TIP3    H277954   6.117   4.212   1.193 -0.9636  0.4057 -1.5861
18847TIP3   OH277955   2.687   1.773  14.236  0.2314  0.2550  0.4490
18847TIP3    H177956   2.764   1.721  14.214 -0.3832 -0.6014  0.3329
18847TIP3    H277957   2.723   1.850  14.281  1.0900 -0.5494  1.1544
18848TIP3   OH277958   5.309   1.480  10.795  0.8528 -0.0199  0.8058
18848TIP3    H177959   5.364   1.544  10.750  1.1497 -2.0779 -1.9726
18848TIP3    H277960   5.355   1.463  10.877  1.2315  2.6249  1.1833
18849TIP3   OH277961   1.709   3.116   4.544  0.0900  0.1034 -0.4145
18849TIP3    H177962   1.721   3.191   4.603 -0.3383  0.5518 -0.8821
18849TIP3    H277963   1.735   3.040   4.595 -3.0598  0.1523  1.3796
18850TIP3   OH277964   2.727   1.846   2.645  0.1015  0.4236 -0.1395
18850TIP3    H177965   2.756   1.788   2.575  0.4592  0.3715  0.0516
18850TIP3    H277966   2.687   1.788   2.710 -0.4119  0.4927 -0.3910
18851TIP3   OH277967   5.452   3.891   3.433  0.2078 -0.3883 -0.2558
18851TIP3    H177968   5.397   3.870   3.509  1.5730  1.0957  1.1872
18851TIP3    H277969   5.514   3.818   3.428  0.8020  0.0432  0.7286
18852TIP3   OH277970   6.069   1.879   0.241 -0.7178 -0.5714 -0.5532
18852TIP3    H177971   5.975   1.864   0.253 -0.8768  0.8821  0.0911
18852TIP3    H277972   6.073   1.953   0.180 -0.0049  0.3552  0.6150
18853TIP3   OH277973   3.455   0.977  16.677  0.0662 -0.2257  0.2192
18853TIP3    H177974   3.461   1.064  16.639  1.1132  0.3836  1.7495
18853TIP3    H277975   3.390   0.986  16.747  1.8645 -0.0695  1.9211
18854TIP3   OH277976   3.370   0.517   4.441  0.3459 -0.0546 -0.1074
18854TIP3    H177977   3.350   0.431   4.478 -0.7999  0.1612 -0.2133
18854TIP3    H277978   3.409   0.498   4.356 -1.9183 -0.4405 -1.0985
18855TIP3   OH277979   4.307   3.403  10.843 -0.2439 -0.1446 -0.8344
18855TIP3    H177980   4.256   3.382  10.921  1.6672  1.5570  0.9438
18855TIP3    H277981   4.268   3.350  10.774 -1.6962 -2.0372  1.3554
18856TIP3   OH277982   5.341   1.872  11.061  0.2903 -0.4411 -0.0863
18856TIP3    H177983   5.315   1.795  11.113  0.6516 -0.4025  0.1523
18856TIP3    H277984   5.293   1.862  10.979  0.7388 -1.2030 -0.2659
18857TIP3   OH277985   5.826   5.702  12.293  0.2307 -0.4132 -0.1758
18857TIP3    H177986   5.773   5.724  12.369  1.5353 -0.0226  0.6243
18857TIP3    H277987   5.848   5.609  12.305 -1.7729 -1.1003 -1.4419
18858TIP3   OH277988   3.378   1.029   2.699 -0.1960 -0.2113  0.1995
18858TIP3    H177989   3.406   0.977   2.774  1.6199  0.4062 -0.0213
18858TIP3    H277990   3.419   1.115   2.713  1.2380 -0.4641 -2.1203
18859TIP3   OH277991   6.536   5.042   6.617  0.5832 -0.0934  0.4158
18859TIP3    H177992   6.455   5.021   6.663  0.4177 -0.2378  0.0630
18859TIP3    H277993   6.579   5.107   6.672  0.2011  0.0212  0.5798
18860TIP3   OH277994   3.004   3.023  12.353  0.5038  0.2734  0.0646
18860TIP3    H177995   2.979   2.945  12.302 -1.9539 -0.1752  1.8867
18860TIP3    H277996   2.924   3.074  12.359  2.0309  2.9045 -0.9045
18861TIP3   OH277997   5.890   2.872   4.674  0.0630 -0.0001 -0.4675
18861TIP3    H177998   5.978   2.892   4.643  0.1184 -0.4879 -0.6167
18861TIP3    H277999   5.893   2.780   4.699 -0.2950  0.0887 -0.0928
18862TIP3   OH278000   5.699   3.619   5.297 -0.1080 -0.5678  0.2166
18862TIP3    H178001   5.669   3.698   5.253  1.9463  0.5326  0.7314
18862TIP3    H278002   5.619   3.570   5.316 -1.2037  0.1136 -2.4909
18863TIP3   OH278003   1.928   3.864  14.148 -0.0938 -0.8575  0.1473
18863TIP3    H178004   1.835   3.883  14.161  0.1379  0.7629 -0.4191
18863TIP3    H278005   1.932   3.769  14.138 -1.7498 -0.8851 -0.3754
18864TIP3   OH278006   1.159   6.210  13.066 -0.0457 -0.4899 -0.6819
18864TIP3    H178007   1.148   6.271  12.994  0.5984  0.7542  0.2583
18864TIP3    H278008   1.247   6.175  13.056  0.0439 -0.3181 -0.4977
18865TIP3   OH278009   5.132   6.703  16.614  0.0020  0.4080 -0.4109
18865TIP3    H178010   5.118   6.791  16.579 -0.6355  0.9894  1.2706
18865TIP3    H278011   5.212   6.709  16.666  0.3796 -0.2027 -0.9060
18866TIP3   OH278012   3.141   3.475   1.625  0.1366 -0.0755 -0.1406
18866TIP3    H178013   3.219   3.424   1.605  2.1500  2.0356  1.9663
18866TIP3    H278014   3.130   3.533   1.549  1.1440  0.2320 -0.0554
18867TIP3   OH278015   5.191   3.536  17.145 -0.1728  0.1108 -0.2026
18867TIP3    H178016   5.220   3.623  17.118  0.9136  0.1273  0.9706
18867TIP3    H278017   5.192   3.484  17.065 -0.6928  1.1355 -0.8856
18868TIP3   OH278018   3.632   3.082   1.184 -0.3492 -0.2441  0.9232
18868TIP3    H178019   3.583   3.001   1.170 -0.2752 -0.3450  1.2407
18868TIP3    H278020   3.715   3.068   1.138 -0.6697 -0.0178  0.2655
18869TIP3   OH278021   2.728   5.917  14.791 -0.1311  0.4207  0.1731
18869TIP3    H178022   2.679   5.994  14.820  0.0917  0.5695  0.1540
18869TIP3    H278023   2.796   5.905  14.856 -0.8877 -0.4673  0.8178
18870TIP3   OH278024   3.201   4.822   3.556  0.1456 -0.1813 -0.5891
18870TIP3    H178025   3.228   4.754   3.495 -1.2658 -1.7586  0.5006
18870TIP3    H278026   3.260   4.812   3.631  1.6860  1.5628 -1.5161
18871TIP3   OH278027   5.021   1.619  15.419 -0.0829 -0.3708 -0.3114
18871TIP3    H178028   5.097   1.595  15.365 -0.6913 -0.4696 -1.1384
18871TIP3    H278029   4.968   1.674  15.362 -1.0529 -0.9949 -0.0192
18872TIP3   OH278030   0.012   5.852  16.518 -0.1261 -0.7382 -0.3077
18872TIP3    H178031  -0.067   5.832  16.467 -0.3741  1.5267 -0.8577
18872TIP3    H278032   0.019   5.780  16.581 -3.1617 -0.4807  0.3807
18873TIP3   OH278033   5.411   3.490   4.559  0.1097 -0.8334 -0.2420
18873TIP3    H178034   5.387   3.565   4.613  2.4485 -0.3983  0.2543
18873TIP3    H278035   5.329   3.442   4.547 -1.2081  1.2230  0.3197
18874TIP3   OH278036   2.312   0.632   3.251 -0.0630 -0.4377  0.6134
18874TIP3    H178037   2.290   0.539   3.247 -0.7870 -0.2331  0.0002
18874TIP3    H278038   2.237   0.678   3.214  0.7395  0.3357 -0.0864
18875TIP3   OH278039   2.477   5.310   1.811  0.6101 -0.4527 -0.4136
18875TIP3    H178040   2.549   5.372   1.808 -0.8289  1.3127  0.5266
18875TIP3    H278041   2.414   5.343   1.747 -1.0743  0.2816  1.5528
18876TIP3   OH278042   6.226   5.701   5.807  0.0471 -0.1945  0.0921
18876TIP3    H178043   6.177   5.682   5.727 -0.8319 -0.5492  0.7011
18876TIP3    H278044   6.316   5.710   5.778 -0.1009 -1.3492 -0.8043
18877TIP3   OH278045   3.373   1.237  11.524  0.0371  0.2253  0.0506
18877TIP3    H178046   3.290   1.197  11.552  0.8430 -3.0450 -1.9664
18877TIP3    H278047   3.351   1.287  11.446 -0.5051  1.6254  1.0853
18878TIP3   OH278048   4.357   1.360  15.398 -0.1606 -0.4912  0.2491
18878TIP3    H178049   4.347   1.397  15.486  1.7827  1.1049 -0.1517
18878TIP3    H278050   4.312   1.276  15.402 -1.1493  0.1031  2.4132
18879TIP3   OH278051   2.084   4.483   0.424 -0.6440 -0.6518 -0.4066
18879TIP3    H178052   2.080   4.426   0.347  0.3693 -1.3576  0.0538
18879TIP3    H278053   2.177   4.500   0.436 -0.7883 -0.6639  0.7433
18880TIP3   OH278054   2.629   6.716  17.237  0.1118  0.2449  0.0109
18880TIP3    H178055   2.670   6.640  17.279 -0.2280 -0.0659 -0.2233
18880TIP3    H278056   2.599   6.770  17.311 -0.7296 -0.4364  0.1742
18881TIP3   OH278057   2.440   1.065  14.683  0.0185 -0.4435 -0.4949
18881TIP3    H178058   2.478   1.103  14.604 -1.3913  0.5077 -0.7444
18881TIP3    H278059   2.514   1.048  14.740  0.9467 -0.0370 -1.5574
18882TIP3   OH278060   4.535   6.668  13.235 -0.1423  0.1832 -0.4790
18882TIP3    H178061   4.527   6.585  13.283 -1.6365 -0.0822 -1.1587
18882TIP3    H278062   4.535   6.735  13.303 -0.4418 -0.2983 -0.0011
18883TIP3   OH278063   5.762   3.683   0.006  0.3520 -0.0633  0.6113
18883TIP3    H178064   5.744   3.640   0.089  1.1886 -1.5243  0.0474
18883TIP3    H278065   5.823   3.625  -0.039 -1.3250 -0.0944 -1.7156
18884TIP3   OH278066   5.107   3.291   4.392  0.0405  0.2183  0.1316
18884TIP3    H178067   5.046   3.268   4.321 -1.9119  1.0543  1.5029
18884TIP3    H278068   5.067   3.255   4.471  0.0149  2.9370  1.4259
18885TIP3   OH278069   4.954   5.285   5.687 -0.0729  0.2737  0.3751
18885TIP3    H178070   4.929   5.199   5.653 -1.6652 -0.2540  2.7836
18885TIP3    H278071   4.934   5.345   5.615 -1.0741 -1.0943 -0.5212
18886TIP3   OH278072   0.559   6.394  13.572 -0.2997  0.4052  0.1431
18886TIP3    H178073   0.589   6.348  13.651  1.5831  1.2381 -0.0608
18886TIP3    H278074   0.466   6.372  13.566  0.2564 -2.3306  0.7445
18887TIP3   OH278075   4.147   0.118  13.928 -0.3338  0.0792  0.3764
18887TIP3    H178076   4.063   0.078  13.951  0.4503 -1.2774  0.9037
18887TIP3    H278077   4.197   0.117  14.009 -0.3222  2.2466  0.4306
18888TIP3   OH278078   4.396   1.060  10.990 -0.4672  0.3035 -0.6046
18888TIP3    H178079   4.351   0.977  11.005 -0.0286  0.4831  1.9128
18888TIP3    H278080   4.479   1.035  10.948 -0.8622 -0.4184 -0.9643
18889TIP3   OH278081   1.634   5.396  16.328 -0.2353 -0.1497 -0.1937
18889TIP3    H178082   1.623   5.468  16.265 -0.8212 -0.4518 -0.4350
18889TIP3    H278083   1.671   5.325  16.277  0.4186  0.0004  0.0642
18890TIP3   OH278084   0.646   5.993   1.937 -0.5528 -0.1818  0.5374
18890TIP3    H178085   0.715   5.944   1.982  0.4541  1.2524  0.5861
18890TIP3    H278086   0.638   6.075   1.986  0.5950  1.4257 -1.8662
18891TIP3   OH278087   5.692   5.421   1.340  0.3408 -0.0736  0.3746
18891TIP3    H178088   5.713   5.505   1.382  1.1481 -0.0373 -0.0879
18891TIP3    H278089   5.650   5.370   1.409  0.2860  0.5353  0.8008
18892TIP3   OH278090   2.579   3.800  16.994  0.4370  0.0445 -0.3101
18892TIP3    H178091   2.546   3.789  16.905 -0.5156  2.3643 -0.2938
18892TIP3    H278092   2.502   3.789  17.050  1.0276 -1.3672  0.2359
18893TIP3   OH278093   1.914   3.503  11.801 -0.4249  0.2512  0.6531
18893TIP3    H178094   1.988   3.442  11.807 -0.5558  0.0638  0.3755
18893TIP3    H278095   1.952   3.583  11.764 -0.5061 -0.0952 -0.1977
18894TIP3   OH278096   2.607   0.517   0.750 -0.5712  0.2411  0.3278
18894TIP3    H178097   2.590   0.536   0.658 -2.6873 -0.1415  0.6126
18894TIP3    H278098   2.644   0.429   0.751  2.2239  1.3565 -0.3733
18895TIP3   OH278099   1.368   4.746   5.388 -0.0889  0.3740 -0.0466
18895TIP3    H178100   1.390   4.807   5.459 -0.8989  1.0100 -0.3353
18895TIP3    H278101   1.429   4.673   5.399 -0.2585  0.4388  1.3388
18896TIP3   OH278102   4.821   5.243   2.205  0.0627 -0.2757 -0.1716
18896TIP3    H178103   4.889   5.236   2.272 -0.3023  0.1689  0.2537
18896TIP3    H278104   4.826   5.160   2.157 -0.6934 -1.2801  1.4063
18897TIP3   OH278105   0.891   0.171  11.636  0.2899  0.0541 -0.5494
18897TIP3    H178106   0.806   0.143  11.601  0.3654  1.0617 -1.5495
18897TIP3    H278107   0.950   0.166  11.561  0.9594  0.0603 -0.0230
18898TIP3   OH278108   4.793   3.183   0.488  0.5772 -0.5740  0.1461
18898TIP3    H178109   4.888   3.188   0.476  0.4079 -1.7693 -1.8198
18898TIP3    H278110   4.768   3.098   0.452 -1.4670  0.4107 -0.8419
18899TIP3   OH278111   0.978   0.300   0.185 -0.3208 -0.5080  0.0868
18899TIP3    H178112   0.910   0.342   0.133 -0.6396 -1.9279 -0.6739
18899TIP3    H278113   0.964   0.332   0.274 -0.9836  0.4401 -0.3533
18900TIP3   OH278114   2.761   5.359   5.063  0.1321  0.1595 -0.6476
18900TIP3    H178115   2.803   5.393   5.142  0.1583 -0.9951 -0.1498
18900TIP3    H278116   2.668   5.382   5.073 -0.0534 -0.9487  0.2590
18901TIP3   OH278117   5.350   4.119   4.417 -0.0691  0.2826  0.1204
18901TIP3    H178118   5.355   4.063   4.339 -1.2166  0.8270 -0.3657
18901TIP3    H278119   5.441   4.127   4.447  0.0233 -2.5563  0.7423
18902TIP3   OH278120   0.986   3.075   4.656 -1.1587  0.5601 -0.2644
18902TIP3    H178121   1.056   3.077   4.590  1.1131  0.0303  2.0412
18902TIP3    H278122   0.955   2.985   4.654 -0.0855  0.1611  0.3672
18903TIP3   OH278123   3.705   6.155  14.620  0.2916 -0.6108  1.3600
18903TIP3    H178124   3.766   6.082  14.630 -1.8699 -2.3937  1.9892
18903TIP3    H278125   3.620   6.113  14.603 -0.9189  1.7731  1.3017
18904TIP3   OH278126   5.946   0.532  13.539  0.4667 -0.2751  0.3742
18904TIP3    H178127   5.932   0.500  13.450  1.7528 -1.1470  0.4776
18904TIP3    H278128   5.940   0.627  13.532 -0.6218 -0.3887 -0.4208
18905TIP3   OH278129   0.420   6.542   3.034  0.3870  0.1857 -0.1674
18905TIP3    H178130   0.475   6.616   3.008 -0.9087  1.7710  1.5109
18905TIP3    H278131   0.443   6.526   3.126 -1.7544  0.7158  0.4819
18906TIP3   OH278132   3.514   2.514  10.990 -0.2079  0.3239 -0.3879
18906TIP3    H178133   3.473   2.488  10.907  1.9382 -1.4269 -0.9371
18906TIP3    H278134   3.567   2.591  10.967 -1.1673  1.0492 -0.2046
18907TIP3   OH278135   1.300   2.243  16.075 -0.0597 -0.0787  0.0370
18907TIP3    H178136   1.358   2.204  16.009 -1.0345  2.7366 -2.6261
18907TIP3    H278137   1.212   2.228  16.041 -0.6209  0.7546  1.0898
18908TIP3   OH278138   6.669   0.342   3.279 -0.4082 -0.4864 -0.4122
18908TIP3    H178139   6.668   0.420   3.334 -0.1696 -0.3528 -0.5933
18908TIP3    H278140   6.645   0.374   3.192 -0.0774 -0.5718 -0.5369
18909TIP3   OH278141   5.438   2.509  16.149  0.7504  0.1217  0.5921
18909TIP3    H178142   5.371   2.476  16.088  0.2189  0.1767  1.1400
18909TIP3    H278143   5.520   2.476  16.114  0.4645  0.3041 -0.2637
18910TIP3   OH278144   5.595   1.104   0.571  0.3166 -0.0161  0.4875
18910TIP3    H178145   5.591   1.056   0.488  0.9610  0.0976  0.3867
18910TIP3    H278146   5.544   1.052   0.632 -1.9188  0.9509 -0.5042
18911TIP3   OH278147   2.816   0.008   3.176 -0.3524 -0.1512 -0.5501
18911TIP3    H178148   2.750  -0.055   3.205 -1.3348  0.8769 -0.5109
18911TIP3    H278149   2.793   0.089   3.222 -0.0750  0.6691 -1.8461
18912TIP3   OH278150   6.563   5.323  12.584 -0.4766  0.4378  0.5689
18912TIP3    H178151   6.543   5.416  12.597  0.2034  0.6593  0.0665
18912TIP3    H278152   6.594   5.293  12.669  1.6492  1.2917  0.1510
18913TIP3   OH278153   2.105   4.680   3.817 -0.0368  0.4849 -0.4264
18913TIP3    H178154   2.198   4.686   3.837 -0.3635  0.5593  1.1680
18913TIP3    H278155   2.084   4.765   3.777  0.2048  1.2109  0.9237
18914TIP3   OH278156   3.318   0.246   6.075  0.2731 -0.0791  0.2416
18914TIP3    H178157   3.253   0.294   6.126 -1.3664  0.8477 -2.5950
18914TIP3    H278158   3.373   0.314   6.036  0.0211 -0.6008 -1.0844
18915TIP3   OH278159   3.459   4.843  15.354  0.4790  0.3420 -0.4669
18915TIP3    H178160   3.489   4.863  15.265 -1.8240  2.5184 -0.7881
18915TIP3    H278161   3.380   4.895  15.366 -0.6392 -1.7778  2.0020
18916TIP3   OH278162   2.404   6.782   2.084 -0.1653 -0.0407 -0.2192
18916TIP3    H178163   2.413   6.688   2.096  0.7442 -0.1969 -1.9053
18916TIP3    H278164   2.493   6.817   2.097 -0.4401  0.5358  0.1200
18917TIP3   OH278165   0.745   4.109   0.146 -0.6916 -0.4186 -0.3355
18917TIP3    H178166   0.781   4.197   0.137  0.7420 -0.9306  0.1923
18917TIP3    H278167   0.657   4.122   0.180 -0.1130  0.7786  0.7523
18918TIP3   OH278168   5.840   3.860   5.189  0.5701  0.1797  0.3822
18918TIP3    H178169   5.813   3.812   5.110 -2.0297  1.9838  0.0894
18918TIP3    H278170   5.872   3.792   5.248  0.3665 -1.4829 -1.3540
18919TIP3   OH278171   5.622   4.620  16.890  0.2732 -0.2810  0.1441
18919TIP3    H178172   5.546   4.563  16.904  1.3910 -1.5867  1.0740
18919TIP3    H278173   5.696   4.567  16.918  1.6601  0.5502 -1.9286
18920TIP3   OH278174   4.656   4.553   3.460  0.4463 -0.1193 -0.2690
18920TIP3    H178175   4.741   4.537   3.501  0.4525  0.2291 -0.1463
18920TIP3    H278176   4.636   4.644   3.480 -0.4594 -0.5060  0.6197
18921TIP3   OH278177   0.889   6.592  12.409 -0.3000  0.0624 -0.1094
18921TIP3    H178178   0.965   6.570  12.463 -0.3168 -0.9517 -0.4949
18921TIP3    H278179   0.814   6.557  12.457 -0.3472 -0.5388 -0.6136
18922TIP3   OH278180   5.948   5.286  13.409  0.4978 -0.1684  0.3431
18922TIP3    H178181   6.039   5.315  13.411  0.3424  0.4730 -0.9499
18922TIP3    H278182   5.953   5.191  13.407  1.1853 -0.1245 -0.7107
18923TIP3   OH278183   4.828   3.307   3.712  0.4812 -0.5233 -0.1651
18923TIP3    H178184   4.868   3.391   3.691 -1.1089 -0.2333 -2.1318
18923TIP3    H278185   4.840   3.254   3.633 -1.1229 -1.1399 -0.0200
18924TIP3   OH278186   3.437   4.221  11.396  0.0582  0.0521  0.2158
18924TIP3    H178187   3.497   4.221  11.471 -0.2625 -2.0208  0.5003
18924TIP3    H278188   3.493   4.244  11.321  0.7388  0.3812  0.8165
18925TIP3   OH278189   1.761   1.431  13.593  0.9441  1.0592 -0.3422
18925TIP3    H178190   1.823   1.474  13.535  0.4396  0.5306 -1.2893
18925TIP3    H278191   1.713   1.370  13.536  0.4036  0.5774  0.6131
18926TIP3   OH278192   6.117   2.777  13.108 -0.3233  0.1243 -0.1150
18926TIP3    H178193   6.075   2.705  13.060  1.2701  1.3130 -3.4477
18926TIP3    H278194   6.210   2.752  13.112 -0.4051  0.0766  2.3963
18927TIP3   OH278195   4.808   4.350   4.088 -0.2593  0.5723 -0.8209
18927TIP3    H178196   4.862   4.271   4.089 -0.3812  0.5055  1.4203
18927TIP3    H278197   4.838   4.398   4.010  1.2850 -0.6506 -1.0009
18928TIP3   OH278198   1.311   1.929   3.167  0.5335  0.1766  0.2938
18928TIP3    H178199   1.355   1.958   3.247  0.2672  0.0793  0.4754
18928TIP3    H278200   1.367   1.859   3.133  1.0727  0.7689 -0.0410
18929TIP3   OH278201   3.126   5.519   1.985  0.1523  0.3344  0.5366
18929TIP3    H178202   3.064   5.471   2.039 -0.4058 -0.0422 -0.4294
18929TIP3    H278203   3.083   5.528   1.900  0.6523  1.6952  0.4090
18930TIP3   OH278204   5.261   4.052   3.271  0.1503 -0.6784  0.6025
18930TIP3    H178205   5.270   3.966   3.312  2.6530 -1.3949 -1.3714
18930TIP3    H278206   5.283   4.038   3.179  0.0782  1.9807  0.1307
18931TIP3   OH278207   3.352   6.734   2.336  0.2909 -0.3217 -0.2895
18931TIP3    H178208   3.317   6.790   2.405  0.4550 -0.3104 -0.2162
18931TIP3    H278209   3.279   6.723   2.275 -0.1118 -1.0094  0.3028
18932TIP3   OH278210   4.926   5.311  14.098 -0.2881 -0.3603  0.5660
18932TIP3    H178211   4.942   5.277  14.186  0.3493 -1.3465  0.0855
18932TIP3    H278212   4.850   5.261  14.067 -1.4286  1.0219  1.0970
18933TIP3   OH278213   4.833   3.622   4.865 -0.3794  0.0153 -0.1944
18933TIP3    H178214   4.887   3.587   4.936  0.8138 -1.8274 -1.9227
18933TIP3    H278215   4.894   3.674   4.812 -0.6492 -0.6816 -1.2128
18934TIP3   OH278216   6.009   6.501   4.650 -0.1328 -0.4426 -0.0579
18934TIP3    H178217   6.083   6.562   4.645  0.7148 -1.5053 -0.8452
18934TIP3    H278218   5.933   6.556   4.670  0.7586  0.7546  0.0675
18935TIP3   OH278219   1.024   2.641  12.186 -0.1070  0.1349 -0.1917
18935TIP3    H178220   1.026   2.724  12.137 -0.1352  0.1200 -0.2193
18935TIP3    H278221   0.950   2.651  12.245 -0.1260  0.1184 -0.2125
18936TIP3   OH278222   0.585   2.121   1.034 -0.0856  0.0293 -0.2934
18936TIP3    H178223   0.680   2.123   1.020  0.4881  1.1447  3.3777
18936TIP3    H278224   0.565   2.204   1.077 -2.6879 -0.4289 -0.5134
18937TIP3   OH278225   4.886   6.013  11.237 -0.0039 -0.1755  0.2733
18937TIP3    H178226   4.894   5.919  11.252 -0.0251 -0.2223 -0.0037
18937TIP3    H278227   4.793   6.028  11.224 -0.0153 -0.0966  0.4517
18938TIP3   OH278228   1.892   6.103  16.797  0.0740  0.0472  0.5070
18938TIP3    H178229   1.968   6.046  16.807  0.8070  1.0529  0.7489
18938TIP3    H278230   1.821   6.057  16.841  0.4212 -1.1362 -0.1578
18939TIP3   OH278231   4.028   6.095  12.331 -0.0213 -0.4343 -0.3144
18939TIP3    H178232   3.965   6.168  12.333  1.1090  0.5500 -0.3626
18939TIP3    H278233   4.035   6.073  12.238  0.2401 -0.0886 -0.3744
18940TIP3   OH278234   0.354   3.609   4.486 -0.2915  0.6823 -0.3087
18940TIP3    H178235   0.420   3.540   4.489 -0.5858  0.4364  0.4675
18940TIP3    H278236   0.344   3.638   4.576 -0.8685  1.0809 -0.4913
18941TIP3   OH278237   0.402   6.078   4.685 -0.8848 -0.1149  0.5005
18941TIP3    H178238   0.307   6.066   4.677 -0.8274 -0.2953  0.0556
18941TIP3    H278239   0.438   5.990   4.673 -0.6476 -0.0028  0.3862
18942TIP3   OH278240   0.467   1.766  16.041 -0.1961 -0.3301  0.2709
18942TIP3    H178241   0.413   1.844  16.028 -1.1494 -0.7844  1.3383
18942TIP3    H278242   0.530   1.767  15.969  0.1628  1.7234  0.5856
18943TIP3   OH278243   1.602   2.229  12.008 -0.1800 -0.0740  0.0870
18943TIP3    H178244   1.641   2.160  12.061  0.9796  1.1759  0.9038
18943TIP3    H278245   1.615   2.309  12.060 -1.3316  0.7849 -0.9144
18944TIP3   OH278246   4.198   4.057  14.180 -0.2841  0.7051 -0.4850
18944TIP3    H178247   4.276   4.013  14.147 -1.4812 -2.1707  0.3577
18944TIP3    H278248   4.137   4.056  14.107 -0.8091 -0.3501 -0.0489
18945TIP3   OH278249   1.587   4.719  10.493  0.5781 -0.6363  0.5686
18945TIP3    H178250   1.530   4.645  10.474 -1.1007  0.1743  2.2189
18945TIP3    H278251   1.531   4.796  10.481  1.4705  0.2153  1.6977
18946TIP3   OH278252   5.671   0.029   1.266 -0.6309  0.0275  0.2557
18946TIP3    H178253   5.613   0.044   1.191 -1.2068 -0.5456  0.5850
18946TIP3    H278254   5.682  -0.066   1.269 -3.4214 -0.2651  3.0149
18947TIP3   OH278255   1.246   2.901  15.272  0.6097  0.2835  0.1970
18947TIP3    H178256   1.182   2.847  15.319  0.1886 -0.3621 -1.0705
18947TIP3    H278257   1.263   2.851  15.192  3.4534 -0.0268  0.9622
18948TIP3   OH278258   0.234   0.459  17.137 -0.3838  0.3718  0.2479
18948TIP3    H178259   0.180   0.405  17.195 -0.3280  1.2202  1.0828
18948TIP3    H278260   0.279   0.395  17.082 -1.2815 -0.3956  0.3785
18949TIP3   OH278261   6.537   2.106  12.665  0.0543 -0.4759  0.2268
18949TIP3    H178262   6.603   2.049  12.627  0.1958 -0.5881  0.6305
18949TIP3    H278263   6.454   2.072  12.631  0.3248  0.9326 -1.8948
18950TIP3   OH278264   1.284   4.351  16.200  0.9275  0.2577  0.0834
18950TIP3    H178265   1.296   4.324  16.291  1.5154  1.9687  0.5379
18950TIP3    H278266   1.234   4.432  16.206 -0.0933 -0.2809 -1.1925
18951TIP3   OH278267   6.088   1.222  16.751 -0.2718 -0.3899 -0.1757
18951TIP3    H178268   6.111   1.232  16.843  0.5820 -0.2782 -0.3932
18951TIP3    H278269   6.027   1.148  16.749 -0.8207  0.0393  0.5528
18952TIP3   OH278270   4.887   2.344   3.902  0.4006  0.3294  0.4797
18952TIP3    H178271   4.878   2.316   3.993 -0.3526  1.7775  0.8698
18952TIP3    H278272   4.981   2.343   3.886  0.7116  2.0839  1.9599
18953TIP3   OH278273   4.833   6.019   1.554 -0.1403 -0.1457  0.6177
18953TIP3    H178274   4.919   6.016   1.512 -0.2203 -0.4232  0.4747
18953TIP3    H278275   4.832   6.103   1.599  0.6031 -0.5651  1.4442
18954TIP3   OH278276   0.446   4.162   3.559 -0.5029 -0.3514 -0.0879
18954TIP3    H178277   0.487   4.129   3.479 -1.1385 -2.1978  0.3143
18954TIP3    H278278   0.413   4.083   3.603 -0.7344  0.7004  1.6664
18955TIP3   OH278279   5.431   6.746   3.829 -0.7984  0.0068 -0.5020
18955TIP3    H178280   5.376   6.710   3.759 -0.4949 -1.9351  0.2519
18955TIP3    H278281   5.521   6.736   3.797 -0.6875 -0.3813 -0.0693
18956TIP3   OH278282   4.919   3.651   2.692 -0.1871 -0.0597 -0.1245
18956TIP3    H178283   5.011   3.672   2.708  0.3129 -1.8503 -0.5603
18956TIP3    H278284   4.894   3.595   2.765 -0.5423 -0.6625 -0.6986
18957TIP3   OH278285   0.748   6.156  15.126  0.0858 -0.5161 -0.0107
18957TIP3    H178286   0.763   6.062  15.122 -0.0656 -0.5633  0.5464
18957TIP3    H278287   0.735   6.175  15.219  0.2580  0.0748 -0.1023
18958TIP3   OH278288   5.451   4.691  15.995 -0.0917 -0.1861  0.2182
18958TIP3    H178289   5.380   4.735  15.947 -0.9752 -0.3687  1.3287
18958TIP3    H278290   5.531   4.735  15.966 -0.8191  1.0849  0.1052
18959TIP3   OH278291   5.006   4.580   3.311  0.4212 -0.1599 -0.1345
18959TIP3    H178292   4.992   4.634   3.233  1.2220  0.7289  0.3189
18959TIP3    H278293   5.101   4.578   3.321  0.2497  1.9998  2.3686
18960TIP3   OH278294   2.586   5.148   3.109  0.2433 -0.0223 -0.2992
18960TIP3    H178295   2.567   5.055   3.122 -0.4824  0.1529 -0.0619
18960TIP3    H278296   2.552   5.190   3.188 -1.1979  0.6659 -1.2504
18961TIP3   OH278297   5.327   4.573   1.024 -0.3651  0.2495 -0.6269
18961TIP3    H178298   5.324   4.523   1.105  0.4325  0.9806 -0.1302
18961TIP3    H278299   5.420   4.582   1.005 -0.5441  0.3067 -1.4853
18962TIP3   OH278300   2.257   0.635   6.289 -0.6719  0.1735 -0.7170
18962TIP3    H178301   2.321   0.703   6.308 -1.3406  0.6643 -0.1943
18962TIP3    H278302   2.172   0.678   6.300 -1.0893 -0.3384 -1.8710
18963TIP3   OH278303   3.500   0.605  11.700 -0.4434  0.5799 -0.1658
18963TIP3    H178304   3.589   0.637  11.717 -0.9687  1.1431  1.6330
18963TIP3    H278305   3.460   0.673  11.646  0.3109  0.1774 -1.2433
18964TIP3   OH278306   0.227   4.181   6.121 -0.0954 -0.1449 -0.1794
18964TIP3    H178307   0.243   4.231   6.041  3.1805 -0.0629  0.4608
18964TIP3    H278308   0.188   4.244   6.182 -0.7989  0.2886 -1.0758
18965TIP3   OH278309   3.485   1.101   5.315 -0.5062  0.0730 -0.2235
18965TIP3    H178310   3.482   1.175   5.255 -1.0963  1.3798  1.3889
18965TIP3    H278311   3.550   1.042   5.277  3.2323  3.3885  0.7098
18966TIP3   OH278312   1.889   1.522   0.345  0.3658  0.0189  0.3732
18966TIP3    H178313   1.967   1.470   0.327  0.7712  0.7535  0.0299
18966TIP3    H278314   1.904   1.561   0.430  1.5290  2.2836 -0.8258
18967TIP3   OH278315   0.841   1.835  16.447  0.4669  0.3048 -0.4115
18967TIP3    H178316   0.900   1.852  16.374  0.6531  1.0457 -0.0959
18967TIP3    H278317   0.766   1.791  16.408  1.3937 -1.0032 -0.7605
18968TIP3   OH278318   3.661   5.232   4.928 -0.0438  0.6539  0.0859
18968TIP3    H178319   3.653   5.304   4.866  0.8079  0.3439 -0.3998
18968TIP3    H278320   3.717   5.168   4.883  0.5712  0.4188  1.1648
18969TIP3   OH278321   1.385   1.444   0.691 -0.5520  0.4451 -0.3061
18969TIP3    H178322   1.353   1.533   0.678 -1.9625  0.0113  0.1263
18969TIP3    H278323   1.423   1.445   0.779  1.4646  1.1942 -1.1629
18970TIP3   OH278324   0.553   3.537  14.439  0.4291 -0.0690  0.4071
18970TIP3    H178325   0.535   3.491  14.357  0.1638  3.1776 -1.4537
18970TIP3    H278326   0.629   3.491  14.476  0.6009 -1.5570 -1.6859
18971TIP3   OH278327   6.116   2.454  15.277  0.0264  0.1541  0.1129
18971TIP3    H178328   6.098   2.361  15.288  0.3881 -0.2195 -2.2906
18971TIP3    H278329   6.051   2.484  15.214  0.9299  1.1855 -0.3343
18972TIP3   OH278330   1.546   3.959   3.282  0.4509 -0.6304 -0.7127
18972TIP3    H178331   1.585   3.989   3.364 -0.7326 -3.8941  1.1154
18972TIP3    H278332   1.456   3.992   3.284  0.3724 -0.8509 -0.6311
18973TIP3   OH278333   4.271   0.818  12.800 -0.6701  0.3491  0.0261
18973TIP3    H178334   4.216   0.795  12.875  0.2753  1.4276  1.0774
18973TIP3    H278335   4.329   0.886  12.834  1.9851 -1.4474 -0.8033
18974TIP3   OH278336   1.341   3.845  15.714  0.6716  0.7327  0.4107
18974TIP3    H178337   1.402   3.918  15.714  1.0976  0.3807  0.8586
18974TIP3    H278338   1.272   3.871  15.775  0.0908  1.3535 -0.4874
18975TIP3   OH278339   5.871   0.762   6.095  0.3487 -0.5835 -0.0450
18975TIP3    H178340   5.933   0.791   6.028  1.7159  0.6299  1.7264
18975TIP3    H278341   5.921   0.761   6.176 -1.1701 -2.5113  0.9060
18976TIP3   OH278342   2.470   4.874  14.309 -0.4507  0.1145  0.2033
18976TIP3    H178343   2.505   4.847  14.224  1.4975  0.3446  0.9121
18976TIP3    H278344   2.546   4.874  14.367 -1.6695  0.4947  1.8216
18977TIP3   OH278345   3.063   0.972  15.850  0.6328 -0.4174  0.0535
18977TIP3    H178346   3.080   0.882  15.878 -0.6862 -0.3588  1.0668
18977TIP3    H278347   2.981   0.966  15.800  0.5888  0.2014  0.0492
18978TIP3   OH278348   3.278   3.678  12.167 -0.2179 -0.4284  0.3086
18978TIP3    H178349   3.314   3.630  12.093 -0.2561  1.9299 -1.2944
18978TIP3    H278350   3.351   3.729  12.201 -0.6288 -0.1509  0.7891
18979TIP3   OH278351   6.222   0.214  11.877  0.4586  0.3199 -0.0877
18979TIP3    H178352   6.313   0.225  11.905  0.5256  1.1806 -0.6030
18979TIP3    H278353   6.229   0.181  11.787  0.2502 -2.9350  1.0296
18980TIP3   OH278354   1.965   4.983  14.785  0.6378  0.0903  0.6317
18980TIP3    H178355   2.025   5.056  14.767  0.1879  0.1530 -0.6796
18980TIP3    H278356   1.931   5.001  14.872 -1.3765  2.8440 -0.6439
18981TIP3   OH278357   5.117   3.899   2.460 -0.7155 -0.4205 -0.3711
18981TIP3    H178358   5.126   3.816   2.415 -0.3087 -0.6986  0.2146
18981TIP3    H278359   5.198   3.907   2.511 -1.0475  0.0183  0.0869
18982TIP3   OH278360   3.082   0.150  15.303  0.3235 -0.3928 -0.0332
18982TIP3    H178361   3.141   0.109  15.366  1.8018  0.4558 -0.8467
18982TIP3    H278362   3.004   0.094  15.303  1.0807 -1.4619  1.1228
18983TIP3   OH278363   1.539   0.104   5.162 -0.0039 -0.3438  0.5142
18983TIP3    H178364   1.580   0.112   5.076 -1.1210  1.4054  0.1160
18983TIP3    H278365   1.497   0.017   5.160 -2.2365  0.7174 -1.7317
18984TIP3   OH278366   6.183   4.261  13.637  0.0941 -0.0071  0.3728
18984TIP3    H178367   6.231   4.286  13.558  0.0697  0.8125  0.6109
18984TIP3    H278368   6.192   4.337  13.695 -0.9175 -0.1177  0.6760
18985TIP3   OH278369   3.818   1.254   4.791 -0.2000 -0.2533  0.0223
18985TIP3    H178370   3.792   1.189   4.725  0.4729  0.1770 -0.6724
18985TIP3    H278371   3.777   1.335   4.762  1.6758  0.3689 -0.9331
18986TIP3   OH278372   4.566   1.739  12.148 -0.3855  0.1474  0.6276
18986TIP3    H178373   4.621   1.814  12.124 -0.1882  0.7179  2.7737
18986TIP3    H278374   4.603   1.666  12.099 -0.7035  1.4525 -1.6771
18987TIP3   OH278375   2.794   6.364   5.166 -0.0199  0.5185  0.0829
18987TIP3    H178376   2.793   6.274   5.133 -1.5478  0.1009  1.2072
18987TIP3    H278377   2.822   6.356   5.257 -1.4876  1.0161  0.5885
18988TIP3   OH278378   3.252   0.057   5.867  0.5808  0.5705  0.6959
18988TIP3    H178379   3.191   0.054   5.793  1.4318  2.3347 -0.1051
18988TIP3    H278380   3.230   0.139   5.913  2.2105  1.1184  0.5111
18989TIP3   OH278381   1.760   6.235   1.841 -0.0323  0.3477 -0.3229
18989TIP3    H178382   1.692   6.176   1.809 -0.0419  0.2259 -0.0777
18989TIP3    H278383   1.734   6.256   1.930 -0.3431  1.1951 -0.6026
18990TIP3   OH278384   4.948   5.922   0.582  0.6826  0.4660  0.6520
18990TIP3    H178385   4.882   5.870   0.627  0.4942  1.4410  1.5150
18990TIP3    H278386   4.901   5.962   0.509  0.8733 -0.7129 -0.1314
18991TIP3   OH278387   2.687   3.321  12.579  0.1162 -0.5406  0.3313
18991TIP3    H178388   2.624   3.393  12.567  1.9481  1.2505  1.1399
18991TIP3    H278389   2.770   3.356  12.547  1.0177 -2.3710  0.5859
18992TIP3   OH278390   4.292   4.294  13.905  0.1275  0.1526  0.1222
18992TIP3    H178391   4.284   4.343  13.986 -0.5094 -0.2712  0.3174
18992TIP3    H278392   4.204   4.262  13.886  0.1219  0.8652 -1.1291
18993TIP3   OH278393   6.208   0.151  11.618  0.5467 -1.0508 -0.0161
18993TIP3    H178394   6.162   0.137  11.536  1.2735  1.1023 -0.8399
18993TIP3    H278395   6.271   0.080  11.623 -0.2604 -1.8301 -0.7641
18994TIP3   OH278396   2.128   5.354   1.057 -0.6474 -0.3515 -0.2145
18994TIP3    H178397   2.153   5.351   0.964  2.2502 -0.6854  0.5195
18994TIP3    H278398   2.209   5.331   1.104 -1.8130  0.7615  2.4242
18995TIP3   OH278399   1.140   6.395   3.510 -0.1493  0.0465  0.3086
18995TIP3    H178400   1.048   6.385   3.531 -0.3438  1.5303  0.2279
18995TIP3    H278401   1.162   6.483   3.540  0.9276  0.1629 -0.7767
18996TIP3   OH278402   0.855   5.630  12.146  0.4513  0.2037 -0.5180
18996TIP3    H178403   0.940   5.659  12.178  0.0009  1.2512 -0.2231
18996TIP3    H278404   0.832   5.693  12.078 -1.0475  1.2487  0.8969
18997TIP3   OH278405   5.404   6.225   4.489  0.4933  0.1770 -0.2129
18997TIP3    H178406   5.342   6.163   4.450 -1.2087  1.2366  0.7385
18997TIP3    H278407   5.490   6.194   4.460 -0.5158 -0.8262 -2.2856
18998TIP3   OH278408   1.059   4.059  16.968 -0.4100 -0.5489  0.4104
18998TIP3    H178409   0.978   4.069  17.020 -1.7939 -0.3054 -1.7178
18998TIP3    H278410   1.061   3.967  16.944 -0.7940 -0.2796 -0.6813
18999TIP3   OH278411   1.188   3.495  14.788  0.2819  0.0753 -0.4925
18999TIP3    H178412   1.264   3.533  14.833  0.6672  0.4718 -1.4688
18999TIP3    H278413   1.113   3.544  14.821  0.6072  0.6369 -0.5926
19000TIP3   OH278414   3.869   6.065   5.816 -0.3071 -0.1475  0.1576
19000TIP3    H178415   3.925   6.137   5.788 -0.1845 -0.3391 -0.0946
19000TIP3    H278416   3.891   5.993   5.757  0.6106 -0.8418  1.3009
19001TIP3   OH278417   5.922   1.056   5.028  0.4023  0.5595 -0.0739
19001TIP3    H178418   5.914   1.152   5.024 -0.4649  0.4646 -0.6399
19001TIP3    H278419   5.965   1.040   5.112  1.3425  1.4881 -0.3657
19002TIP3   OH278420   5.091   3.623  11.359  0.3236  0.2804 -0.3439
19002TIP3    H178421   5.125   3.576  11.283  0.7473 -0.9441  0.5812
19002TIP3    H278422   5.024   3.681  11.324  0.9126  0.1347 -1.7270
19003TIP3   OH278423   0.454   3.948   0.172 -0.3344  0.0218  0.1065
19003TIP3    H178424   0.476   4.041   0.177  1.9929 -0.5821  2.0485
19003TIP3    H278425   0.379   3.938   0.229 -0.1828  0.6057  0.4179
19004TIP3   OH278426   4.671   5.240  14.445  0.0020  0.2495  1.1563
19004TIP3    H178427   4.653   5.322  14.492 -0.2439 -0.2694  1.9718
19004TIP3    H278428   4.668   5.265  14.353  3.6639  1.9729  1.4213
19005TIP3   OH278429   1.157   3.333  12.873  0.2452  0.9519 -0.1199
19005TIP3    H178430   1.237   3.287  12.849 -0.0237  0.4523 -0.0583
19005TIP3    H278431   1.173   3.365  12.962  0.3431  0.7815 -0.0771
19006TIP3   OH278432   3.044   6.499  12.067 -0.1604 -0.5744 -0.2134
19006TIP3    H178433   2.969   6.440  12.070  0.3204 -1.2811 -1.5338
19006TIP3    H278434   3.012   6.577  12.022 -0.4134 -0.4072  0.2567
19007TIP3   OH278435   2.638   2.604   1.547 -0.0441 -0.5200 -0.5295
19007TIP3    H178436   2.548   2.580   1.570  0.4173 -1.5586  0.2673
19007TIP3    H278437   2.685   2.520   1.546  1.2197  0.1543  0.5071
19008TIP3   OH278438   1.953   4.408  13.801  0.5345 -0.2882  0.1856
19008TIP3    H178439   1.951   4.431  13.894 -0.3669  0.7306 -0.0807
19008TIP3    H278440   2.040   4.437  13.771  0.7752 -0.4970  0.6789
19009TIP3   OH278441   1.195   1.749  11.919  0.5194  0.5413  0.3055
19009TIP3    H178442   1.150   1.827  11.951 -0.4179 -0.0883  0.5453
19009TIP3    H278443   1.234   1.710  11.997 -0.3968 -0.1151  0.4394
19010TIP3   OH278444   4.847   2.992  13.971  0.2773 -0.3875 -0.2207
19010TIP3    H178445   4.909   3.043  14.024 -1.2833  0.1873  1.1174
19010TIP3    H278446   4.766   3.044  13.973  0.0944 -0.4994 -2.9787
19011TIP3   OH278447   0.433   2.583  15.168 -0.3591  0.2514  0.6151
19011TIP3    H178448   0.493   2.576  15.243 -0.1188 -0.7754  0.3345
19011TIP3    H278449   0.373   2.509  15.178  0.4950 -0.6804 -0.9210
19012TIP3   OH278450   3.479   5.393  13.987  0.3300  0.9483 -0.3977
19012TIP3    H178451   3.538   5.360  13.920  0.6940  0.4208  0.1755
19012TIP3    H278452   3.401   5.338  13.980  0.2695  1.0534 -0.5508
19013TIP3   OH278453   4.957   0.213   1.719 -0.2028  0.1951  0.0282
19013TIP3    H178454   4.934   0.155   1.646 -2.5099 -0.5866  1.3172
19013TIP3    H278455   4.923   0.299   1.694 -0.6457  0.0148  0.0100
19014TIP3   OH278456   5.913   5.954   1.486  0.1171 -0.2663  0.1670
19014TIP3    H178457   5.846   5.920   1.427 -0.1111  0.5736 -0.0600
19014TIP3    H278458   5.970   6.008   1.430  0.0485  0.3236  0.6553
19015TIP3   OH278459   5.364   4.106  16.931 -0.1114 -0.2467 -0.2341
19015TIP3    H178460   5.302   4.099  16.858 -0.5381  0.1907  0.0881
19015TIP3    H278461   5.330   4.177  16.985 -0.3279 -1.2000  0.9102
19016TIP3   OH278462   2.617   2.920  14.027  0.3820  0.2758 -0.4235
19016TIP3    H178463   2.571   2.900  13.946 -0.4894 -0.0057  0.1268
19016TIP3    H278464   2.634   3.014  14.022  1.0541  0.1075 -1.2907
19017TIP3   OH278465   1.637   1.017   0.591  0.2628 -0.4314  0.2403
19017TIP3    H178466   1.620   1.098   0.542  0.8665 -1.4420 -1.7052
19017TIP3    H278467   1.567   0.958   0.563  0.0556 -0.7194  1.3521
19018TIP3   OH278468   1.115   1.483   1.340 -0.0978  0.0896  0.1360
19018TIP3    H178469   1.091   1.467   1.248 -2.3271  1.4789  0.4494
19018TIP3    H278470   1.031   1.481   1.387  1.1616 -2.2818  2.4338
19019TIP3   OH278471   2.612   4.542  14.213 -0.6314 -0.0274 -0.0742
19019TIP3    H178472   2.647   4.594  14.140 -1.4923  0.6096 -0.0422
19019TIP3    H278473   2.525   4.515  14.183 -0.7976 -0.1628  0.5285
19020TIP3   OH278474   0.147   1.328  14.805 -0.3756  0.1520 -0.5263
19020TIP3    H178475   0.224   1.363  14.760 -0.1954  1.5699  0.8115
19020TIP3    H278476   0.176   1.244  14.841  0.7022  0.9143  0.3976
19021TIP3   OH278477   4.204   1.481  15.191  0.5667  0.0455 -0.7189
19021TIP3    H178478   4.119   1.499  15.231 -0.9904 -0.6814 -3.5238
19021TIP3    H278479   4.246   1.419  15.251 -1.0326  0.1244  0.5243
19022TIP3   OH278480   4.479   4.266  12.590  0.0138  0.1049  0.6805
19022TIP3    H178481   4.417   4.199  12.561  0.1404 -0.1725  1.0513
19022TIP3    H278482   4.564   4.222  12.589  0.1643  0.3981  0.4586
19023TIP3   OH278483   2.628   1.171   3.256  0.1335  0.6125  0.3032
19023TIP3    H178484   2.723   1.175   3.246  0.2295 -3.4912 -1.1987
19023TIP3    H278485   2.597   1.251   3.213  2.8095  1.4486 -0.1893
19024TIP3   OH278486   2.691   6.347   3.254 -0.9566  0.0391 -0.2114
19024TIP3    H178487   2.686   6.253   3.272  1.1403  0.2199  1.6118
19024TIP3    H278488   2.716   6.352   3.162  0.9645 -1.2634  0.2028
19025TIP3   OH278489   1.145   3.406  11.514 -0.4124 -0.3391  0.2194
19025TIP3    H178490   1.195   3.335  11.472 -1.3371 -1.3886  0.8477
19025TIP3    H278491   1.202   3.482  11.508  0.3775 -0.9984 -0.9844
19026TIP3   OH278492   6.592   2.514  16.335  0.2277 -0.2826 -0.0995
19026TIP3    H178493   6.595   2.554  16.248  2.2679 -0.6501 -0.1991
19026TIP3    H278494   6.566   2.586  16.393 -0.1639  0.1969 -0.8559
19027TIP3   OH278495   3.740   3.146  12.554  0.4734 -0.4776 -0.3211
19027TIP3    H178496   3.782   3.085  12.615  0.4761 -0.1442  0.0150
19027TIP3    H278497   3.783   3.229  12.571  1.0393 -0.5524 -1.3542
19028TIP3   OH278498   5.170   0.748   5.073  0.2111 -0.2067  0.6465
19028TIP3    H178499   5.184   0.795   4.991 -1.7992  0.8299  0.8560
19028TIP3    H278500   5.166   0.656   5.049 -0.4081  0.0986 -0.4420
19029TIP3   OH278501   2.435   5.723   0.258 -0.6014 -0.0599  0.0389
19029TIP3    H178502   2.372   5.737   0.328  0.9576 -0.9463  1.6605
19029TIP3    H278503   2.428   5.630   0.238 -0.5908  0.0658 -0.5740
19030TIP3   OH278504   1.297   6.306   0.172  0.3702  0.2615 -0.1706
19030TIP3    H178505   1.325   6.323   0.082 -0.0637 -1.6316 -0.6928
19030TIP3    H278506   1.368   6.338   0.226  0.0763  2.6243 -1.1098
19031TIP3   OH278507   2.158   1.592  14.673 -0.1976  0.0772 -0.4443
19031TIP3    H178508   2.152   1.659  14.741  1.8377  0.8573 -1.0218
19031TIP3    H278509   2.067   1.580  14.644 -0.9745  0.3867  1.7583
19032TIP3   OH278510   6.619   5.932  12.006 -0.1422  0.2895 -0.5136
19032TIP3    H178511   6.683   6.002  12.014  1.0522 -0.8637  0.0826
19032TIP3    H278512   6.670   5.853  11.990 -1.3577 -0.7646  0.6766
19033TIP3   OH278513   3.463   5.728   3.760 -0.2146  0.1955  0.3740
19033TIP3    H178514   3.412   5.776   3.825 -1.9131 -1.4322  0.2875
19033TIP3    H278515   3.531   5.684   3.810  0.0393  0.9802  0.7199
19034TIP3   OH278516   4.324   6.401  10.962 -0.1439 -0.0134 -0.1313
19034TIP3    H178517   4.289   6.343  10.894 -0.1872  1.2857 -1.2382
19034TIP3    H278518   4.281   6.485  10.947  0.7701  0.6292  0.7305
19035TIP3   OH278519   2.964   1.243   0.251 -0.5029  0.0554  0.0435
19035TIP3    H178520   3.048   1.199   0.262  0.6438  2.1472  0.0641
19035TIP3    H278521   2.920   1.195   0.181  0.0625 -1.9949  1.0802
19036TIP3   OH278522   0.476   0.783   2.557  0.3159 -0.1705 -1.0889
19036TIP3    H178523   0.435   0.853   2.607  0.1295 -0.0742 -1.3775
19036TIP3    H278524   0.547   0.752   2.613 -0.8308 -1.0733 -0.1025
19037TIP3   OH278525   1.258   4.825   3.845 -0.6234 -0.2430  0.6891
19037TIP3    H178526   1.267   4.749   3.902  1.7296  0.0426  0.7379
19037TIP3    H278527   1.167   4.823   3.816 -0.9635 -2.2457  1.8406
19038TIP3   OH278528   0.376   3.559  16.931  0.0658  0.1724 -0.9500
19038TIP3    H178529   0.435   3.524  16.998 -1.7777  1.6556  1.5040
19038TIP3    H278530   0.288   3.537  16.962 -0.7987  0.1721 -3.3106
19039TIP3   OH278531   6.119   0.056   6.453  0.0296  0.1105  0.2785
19039TIP3    H178532   6.026   0.076   6.449  0.3563  1.3589 -2.0279
19039TIP3    H278533   6.131  -0.015   6.390  0.8748  1.0553 -0.6499
19040TIP3   OH278534   5.684   6.445   6.360  0.4998 -0.2083 -0.3605
19040TIP3    H178535   5.683   6.400   6.445  2.7040 -0.4955 -0.4508
19040TIP3    H278536   5.699   6.537   6.382 -0.3922 -0.0596 -0.3683
19041TIP3   OH278537   4.751   0.638  16.916  0.4277  0.3192  0.0428
19041TIP3    H178538   4.798   0.691  16.852  3.5671 -1.6236  0.6099
19041TIP3    H278539   4.689   0.698  16.957  3.4682  3.4211  0.3110
19042TIP3   OH278540   0.382   3.187   1.805 -0.5755  0.2431 -0.8262
19042TIP3    H178541   0.463   3.136   1.810 -1.1978 -0.8424 -1.5374
19042TIP3    H278542   0.381   3.221   1.716 -0.9064  0.2589 -0.8146
19043TIP3   OH278543   4.838   0.871   2.981  0.0428  0.0434 -0.2421
19043TIP3    H178544   4.773   0.933   2.947  1.1716  1.1311 -0.4070
19043TIP3    H278545   4.908   0.871   2.916  1.1212  0.3476  0.8944
19044TIP3   OH278546   0.732   5.088  15.311 -0.1519  0.4902 -0.2608
19044TIP3    H178547   0.647   5.046  15.317  0.4393 -0.6308  0.3648
19044TIP3    H278548   0.714   5.174  15.272 -1.8751  1.2220  2.0315
19045TIP3   OH278549   6.373   3.496   1.002 -0.7790 -0.3137 -0.0936
19045TIP3    H178550   6.419   3.571   0.963 -0.2272  1.3284  3.4507
19045TIP3    H278551   6.442   3.444   1.043 -1.4403 -1.3585 -0.2938
19046TIP3   OH278552   1.197   6.046  14.208 -0.6547  0.3417 -0.0373
19046TIP3    H178553   1.179   6.088  14.124  0.1809 -0.1244 -0.4606
19046TIP3    H278554   1.282   6.004  14.196  0.8900  2.7837  2.0101
19047TIP3   OH278555   0.876   3.986   5.894 -0.3071 -0.1934 -0.0826
19047TIP3    H178556   0.941   3.943   5.838 -0.1334 -0.0333 -0.0048
19047TIP3    H278557   0.912   3.978   5.983 -1.1034 -1.4117  0.1414
19048TIP3   OH278558   3.616   4.876  11.609 -0.1700  0.2453  0.2616
19048TIP3    H178559   3.619   4.867  11.705  1.1301  2.8206  0.5056
19048TIP3    H278560   3.523   4.880  11.588 -0.4601  1.1320  1.6134
19049TIP3   OH278561   5.785   1.059  12.639  0.1104  0.2114 -0.0430
19049TIP3    H178562   5.703   1.087  12.599  0.5866  0.0351 -1.1479
19049TIP3    H278563   5.823   1.139  12.674 -1.1290  0.1078  1.5871
19050TIP3   OH278564   3.707   6.445   1.238 -0.2769 -0.6441  0.1829
19050TIP3    H178565   3.660   6.527   1.223  1.0027 -0.1402 -1.2928
19050TIP3    H278566   3.787   6.472   1.283 -0.4561 -1.2492  0.8674
19051TIP3   OH278567   4.878   1.826  15.779 -0.4321  0.4768  0.0918
19051TIP3    H178568   4.954   1.777  15.747 -0.1799  0.5053  0.6499
19051TIP3    H278569   4.913   1.884  15.846 -1.1629 -0.4448  1.2801
19052TIP3   OH278570   1.289   1.295   2.140  0.0154  0.2968 -0.2519
19052TIP3    H178571   1.235   1.327   2.068 -1.3119 -2.0114 -0.3023
19052TIP3    H278572   1.277   1.200   2.140  1.9616  0.0122  1.4429
19053TIP3   OH278573   2.061   1.248  16.769 -0.8494 -0.0324 -0.7760
19053TIP3    H178574   2.107   1.324  16.804  0.7090 -2.1915  2.0675
19053TIP3    H278575   2.019   1.209  16.845  0.1238 -3.1866 -1.7973
19054TIP3   OH278576   6.700   5.191  12.801  0.1843 -0.3199 -0.6346
19054TIP3    H178577   6.739   5.160  12.883  1.9216  2.6964 -0.2487
19054TIP3    H278578   6.770   5.184  12.737 -0.3372 -0.0689 -1.2304
19055TIP3   OH278579   6.394   1.155   1.556  0.1769 -0.7781 -0.0250
19055TIP3    H178580   6.407   1.238   1.510 -1.1217  0.3353  1.5224
19055TIP3    H278581   6.387   1.090   1.487  0.9129  0.4626 -1.2870
19056TIP3   OH278582   1.407   3.828  12.867 -0.1370  0.1230  0.3357
19056TIP3    H178583   1.335   3.835  12.805 -0.7162 -1.2023  0.8565
19056TIP3    H278584   1.372   3.861  12.950  0.2502  0.6963  0.2744
19057TIP3   OH278585   1.060   1.090  14.780 -0.1359 -0.6406  0.2943
19057TIP3    H178586   1.082   1.037  14.856 -0.5080 -0.8205  0.2773
19057TIP3    H278587   1.078   1.034  14.705 -0.7052 -0.8118  0.2818
19058TIP3   OH278588   6.589   6.755   3.781 -0.0747  0.2085 -0.2972
19058TIP3    H178589   6.568   6.778   3.690  0.8242  1.8610 -0.1118
19058TIP3    H278590   6.511   6.779   3.830  0.2005  1.2518 -0.3575
19059TIP3   OH278591   2.297   1.391   1.538 -0.2704 -0.1992  0.1051
19059TIP3    H178592   2.344   1.339   1.474 -0.7646 -0.7729  0.2063
19059TIP3    H278593   2.332   1.364   1.622  1.0791  1.2625  0.0259
19060TIP3   OH278594   0.719   6.530   3.797 -0.0130  0.3837 -0.1703
19060TIP3    H178595   0.685   6.567   3.715 -0.6869 -0.3345 -0.2215
19060TIP3    H278596   0.712   6.436   3.785 -1.0877  0.2936  1.1352
19061TIP3   OH278597   4.862   3.778   3.392  0.0053 -0.1231 -0.0271
19061TIP3    H178598   4.851   3.684   3.404 -2.9811  0.5304  3.2051
19061TIP3    H278599   4.947   3.797   3.432  0.0957 -1.2705  0.3430
19062TIP3   OH278600   4.713   4.005   4.154  0.1070 -0.0884 -0.3243
19062TIP3    H178601   4.751   3.970   4.073  2.2655  2.2680 -0.4158
19062TIP3    H278602   4.640   4.059   4.124  1.1034  1.0458 -0.7943
19063TIP3   OH278603   4.600   1.270   3.369 -0.0810  0.1681 -0.3062
19063TIP3    H178604   4.509   1.268   3.400  0.3876 -0.7147  1.0529
19063TIP3    H278605   4.607   1.194   3.310  0.4509 -1.2602  1.5714
19064TIP3   OH278606   6.415   0.821  11.111 -0.0905 -0.0057 -0.1576
19064TIP3    H178607   6.499   0.793  11.148  0.0366  1.5447  0.7775
19064TIP3    H278608   6.413   0.782  11.023  1.2025 -0.7861  0.1428
19065TIP3   OH278609   6.477   5.766  13.194 -0.1747  0.0853 -0.2954
19065TIP3    H178610   6.422   5.780  13.271  0.3033 -0.9321  0.2448
19065TIP3    H278611   6.462   5.674  13.171  1.1274 -0.1322 -0.2735
19066TIP3   OH278612   2.892   5.108  14.259 -0.0026 -0.1996 -0.0542
19066TIP3    H178613   2.903   5.178  14.325  1.1123  0.5191 -0.9858
19066TIP3    H278614   2.966   5.119  14.200  0.7176 -2.7942  0.3225
19067TIP3   OH278615   6.725   3.142  11.845  0.0127  0.2712 -0.1580
19067TIP3    H178616   6.799   3.092  11.812  0.0382  0.0572  0.2199
19067TIP3    H278617   6.662   3.143  11.773 -0.2837 -0.9022  0.0818
19068TIP3   OH278618   2.984   2.223   4.659  0.6772 -0.3713 -0.2684
19068TIP3    H178619   2.970   2.167   4.582  0.0248 -1.2202  0.4588
19068TIP3    H278620   2.944   2.307   4.635  1.1630 -0.3834 -1.1505
19069TIP3   OH278621   6.073   4.696   4.883 -0.1881  0.0045 -0.1535
19069TIP3    H178622   5.991   4.726   4.923 -0.2905 -0.8544  0.3004
19069TIP3    H278623   6.141   4.740   4.933 -0.3587  0.2622 -0.1473
19070TIP3   OH278624   1.506   1.567  12.259 -0.0092 -0.0566 -0.0502
19070TIP3    H178625   1.463   1.582  12.343 -0.0663 -0.5079 -0.0008
19070TIP3    H278626   1.434   1.554  12.197  0.0445 -0.2131 -0.0784
19071TIP3   OH278627   6.351   1.225  16.603 -0.7357  0.1532  0.0538
19071TIP3    H178628   6.401   1.240  16.523  0.5239  1.7593  1.0918
19071TIP3    H278629   6.260   1.217  16.575 -0.4535  1.8762 -1.4318
19072TIP3   OH278630   6.058   0.829   3.677 -0.2612 -0.1484  0.0509
19072TIP3    H178631   6.058   0.753   3.734 -0.9254  0.4771  0.9089
19072TIP3    H278632   6.124   0.810   3.610 -0.1551 -1.2957  0.4805
19073TIP3   OH278633   5.506   5.007   2.033 -0.3358 -0.0231  0.0390
19073TIP3    H178634   5.530   5.056   2.112 -0.2801  1.5453 -0.9324
19073TIP3    H278635   5.586   5.007   1.980 -0.0754 -1.9305  0.3956
19074TIP3   OH278636   1.960   4.411  16.968  0.0107  0.1038 -0.2504
19074TIP3    H178637   1.882   4.441  16.923  0.0287  0.2139 -0.2085
19074TIP3    H278638   2.009   4.362  16.902  0.0059  0.2095 -0.3328
19075TIP3   OH278639   5.360   5.517  11.719  0.0331  0.6065 -0.2516
19075TIP3    H178640   5.338   5.609  11.736 -0.0354  0.4483  0.4935
19075TIP3    H278641   5.325   5.469  11.794  1.5024  0.1646  0.1676
19076TIP3   OH278642   3.137   2.535   3.817  1.0041  0.1470  0.0444
19076TIP3    H178643   3.112   2.593   3.745  1.4025  0.1519 -0.0903
19076TIP3    H278644   3.134   2.447   3.780  1.2601  0.1533  0.0058
19077TIP3   OH278645   5.117   4.377  11.965 -0.0452 -0.1161  0.0328
19077TIP3    H178646   5.125   4.369  12.060  1.1467 -0.9115 -0.1174
19077TIP3    H278647   5.169   4.455  11.943 -0.2012 -0.0164  0.0167
19078TIP3   OH278648   0.597   5.447   6.551  0.0042  0.6834  0.0598
19078TIP3    H178649   0.546   5.386   6.497  0.3174  1.1369 -0.7630
19078TIP3    H278650   0.671   5.395   6.583  1.0947  1.0003 -1.8697
19079TIP3   OH278651   2.820   4.130  11.395 -0.0045 -0.2227 -0.6899
19079TIP3    H178652   2.760   4.110  11.467  0.2891 -1.7476 -0.8518
19079TIP3    H278653   2.844   4.222  11.409  1.2472 -0.9191  2.0603
19080TIP3   OH278654   3.370   0.369  12.241 -0.1962  0.0126 -0.3565
19080TIP3    H178655   3.386   0.301  12.306 -1.0564  0.6361  0.5207
19080TIP3    H278656   3.357   0.322  12.159  0.2783 -0.8116  0.0355
19081TIP3   OH278657   5.796   0.928   1.035 -0.0865  0.0338  0.5580
19081TIP3    H178658   5.789   0.885   1.120  0.8807  0.5426  0.9049
19081TIP3    H278659   5.818   0.857   0.974 -1.6008 -0.4730  0.5679
19082TIP3   OH278660   5.250   3.641  12.528 -0.4269 -0.0503 -0.1017
19082TIP3    H178661   5.242   3.550  12.558 -0.9122  0.3083  0.8833
19082TIP3    H278662   5.277   3.634  12.436  1.0093 -1.1644  0.3916
19083TIP3   OH278663   0.745   2.729   3.138 -0.1753  0.2845 -0.5169
19083TIP3    H178664   0.659   2.769   3.154  0.1181  0.1508  1.5793
19083TIP3    H278665   0.731   2.636   3.153  0.1476  0.1542 -1.0223
19084TIP3   OH278666   4.173   2.797  16.008  0.2823 -0.0193  0.2474
19084TIP3    H178667   4.156   2.703  16.012 -1.2780  0.2400  0.1740
19084TIP3    H278668   4.143   2.824  15.921  3.2591  0.1085 -0.8071
19085TIP3   OH278669   4.101   5.246  13.969  0.0592  0.3484  0.0085
19085TIP3    H178670   4.111   5.160  13.929  1.0376  0.4977 -0.0876
19085TIP3    H278671   4.082   5.227  14.061  2.2709  0.0240  0.4267
19086TIP3   OH278672   1.013   6.247   5.004  0.6836  0.6257 -0.7479
19086TIP3    H178673   0.999   6.233   4.910  1.0829  0.7179 -0.8208
19086TIP3    H278674   1.102   6.216   5.020  0.0707 -0.8580 -0.0898
19087TIP3   OH278675   0.565   0.776   3.892  0.3576 -0.3100  0.1265
19087TIP3    H178676   0.505   0.847   3.866  0.3919 -0.8430 -1.5128
19087TIP3    H278677   0.607   0.808   3.971 -0.2554  1.1513 -0.1086
19088TIP3   OH278678   1.554   3.960   6.461  0.4321  0.1480  0.1346
19088TIP3    H178679   1.545   3.992   6.371 -0.1650 -1.0122 -0.2409
19088TIP3    H278680   1.648   3.946   6.473  0.5996  1.1047 -0.0134
19089TIP3   OH278681   3.930   4.437  11.193 -0.7148  0.1911  0.4727
19089TIP3    H178682   3.870   4.448  11.119  0.8471  1.8942 -0.5699
19089TIP3    H278683   3.968   4.524  11.206  0.7139 -0.6172  1.8446
19090TIP3   OH278684   0.325   0.369   4.140 -0.1901  0.1717  0.2148
19090TIP3    H178685   0.258   0.378   4.071  1.0897  0.7766 -0.9817
19090TIP3    H278686   0.406   0.398   4.098  1.0283 -1.5699  1.3194
19091TIP3   OH278687   3.706   5.003   1.598 -0.1549  0.3094 -0.5856
19091TIP3    H178688   3.696   5.028   1.689 -0.9344 -0.2667 -0.5142
19091TIP3    H278689   3.692   5.084   1.549 -0.5633  0.4499 -0.2367
19092TIP3   OH278690   3.914   6.715   5.917 -0.2559 -0.4736  0.7143
19092TIP3    H178691   3.853   6.768   5.865 -0.6262 -1.4895  0.1170
19092TIP3    H278692   3.987   6.774   5.934 -0.5841  0.1814 -0.0991
19093TIP3   OH278693   4.922   0.043   2.848 -0.0021 -0.0172  0.6406
19093TIP3    H178694   4.885  -0.011   2.779  1.7061  1.2782 -1.3631
19093TIP3    H278695   4.874   0.125   2.844  2.1157  1.1977 -1.1239
19094TIP3   OH278696   1.191   1.963  16.023 -0.0918 -0.4836  0.5921
19094TIP3    H178697   1.154   1.892  15.970  0.7081 -2.2149  2.2935
19094TIP3    H278698   1.280   1.935  16.041  0.5934  1.5009  0.3824
19095TIP3   OH278699   5.223   3.260   3.978  0.3813  0.3950 -0.0011
19095TIP3    H178700   5.177   3.342   3.999  0.5710  0.4441  0.2248
19095TIP3    H278701   5.277   3.243   4.055  1.4681  0.8394 -0.6627
19096TIP3   OH278702   2.720   4.320  12.940 -0.0078 -0.0577  0.2395
19096TIP3    H178703   2.722   4.252  12.872 -1.2607  0.9033 -0.8015
19096TIP3    H278704   2.706   4.401  12.891  0.2649  0.7918  1.5643
19097TIP3   OH278705   2.513   3.889   3.389  0.1619  0.2013  0.3128
19097TIP3    H178706   2.446   3.839   3.436  0.0799 -0.7147 -0.7686
19097TIP3    H278707   2.595   3.844   3.408  0.1929  0.1050 -0.0449
19098TIP3   OH278708   1.180   5.300   4.298  0.1295 -0.6088 -0.3921
19098TIP3    H178709   1.178   5.293   4.203 -0.7050 -3.2848 -0.2206
19098TIP3    H278710   1.093   5.273   4.327  0.0966  0.9882  1.1035
19099TIP3   OH278711   1.054   4.776  12.650 -0.1761 -0.1001 -0.5923
19099TIP3    H178712   0.982   4.826  12.687  0.8380  0.2023  1.0557
19099TIP3    H278713   1.045   4.689  12.687  0.9774  0.2646  0.5938
19100TIP3   OH278714   3.481   5.276  12.241 -0.0571  0.0092 -0.1395
19100TIP3    H178715   3.543   5.348  12.228 -0.0622 -0.1856 -1.2564
19100TIP3    H278716   3.442   5.294  12.327 -0.4954  1.6678 -0.6661
19101TIP3   OH278717   3.163   4.576   6.636  0.0320 -0.3784  0.2178
19101TIP3    H178718   3.092   4.628   6.672 -0.4906  0.6435 -2.2062
19101TIP3    H278719   3.243   4.615   6.672 -0.5144  0.0280  0.9763
19102TIP3   OH278720   3.736   2.716  14.766  0.0821 -0.2183 -0.1124
19102TIP3    H178721   3.730   2.811  14.763  0.7976 -0.1703 -0.1775
19102TIP3    H278722   3.818   2.696  14.721 -1.3575 -1.0243 -2.4536
19103TIP3   OH278723   1.140   5.036  12.426  0.2953 -0.6059  0.2165
19103TIP3    H178724   1.064   5.006  12.377 -0.0144 -0.3243  0.5172
19103TIP3    H278725   1.104   5.066  12.509  0.5094  1.1209 -0.2925
19104TIP3   OH278726   1.616   4.234  15.591 -0.4732 -0.0911 -0.0891
19104TIP3    H178727   1.648   4.266  15.675  0.0158  0.2571 -0.4100
19104TIP3    H278728   1.528   4.271  15.583 -1.1411 -1.3926  0.9892
19105TIP3   OH278729   2.062   4.349  12.770  0.6249 -0.2374  0.0267
19105TIP3    H178730   2.072   4.272  12.826  2.3112 -0.1331 -0.0901
19105TIP3    H278731   2.094   4.321  12.685  0.0726  0.2328 -0.3364
19106TIP3   OH278732   5.014   0.182   5.480 -0.0157 -0.2091 -0.2514
19106TIP3    H178733   5.064   0.190   5.398  0.0948  1.9410 -0.0042
19106TIP3    H278734   4.973   0.268   5.491 -1.2625 -0.9808  1.1704
19107TIP3   OH278735   3.916   4.190  16.373 -0.6696  0.0812  0.0840
19107TIP3    H178736   3.997   4.194  16.322 -0.1090  1.8890  1.0449
19107TIP3    H278737   3.853   4.242  16.322 -0.9742 -0.5927 -0.2302
19108TIP3   OH278738   5.624   2.751  13.585 -0.8894 -0.3448 -0.5422
19108TIP3    H178739   5.604   2.664  13.621 -1.9608 -0.3058 -1.0286
19108TIP3    H278740   5.552   2.806  13.614 -0.3990  0.3028 -0.5531
19109TIP3   OH278741   2.440   4.715   3.665  0.1211 -0.7667 -0.4734
19109TIP3    H178742   2.458   4.781   3.732  2.0661 -2.1812  0.4361
19109TIP3    H278743   2.383   4.760   3.602  0.3697  1.3717  0.7766
19110TIP3   OH278744   2.547   1.817  13.271  0.6151  0.1796  0.1887
19110TIP3    H178745   2.521   1.730  13.299  0.5728  0.2278  0.2962
19110TIP3    H278746   2.475   1.848  13.216  0.6515  0.1285  0.1115
19111TIP3   OH278747   5.117   0.364  12.470 -0.2819  0.1670 -0.1293
19111TIP3    H178748   5.116   0.341  12.563  1.0022 -0.7515 -0.3425
19111TIP3    H278749   5.107   0.459  12.469 -0.2201  0.1909  0.9446
19112TIP3   OH278750   0.714   2.311   3.992  0.1595 -0.2921  0.4673
19112TIP3    H178751   0.777   2.383   3.988  0.4516 -0.6226 -1.4401
19112TIP3    H278752   0.653   2.329   3.920 -1.3146 -0.5381  1.6367
19113TIP3   OH278753   2.134   0.250  16.068  0.0372  0.5441  0.7384
19113TIP3    H178754   2.129   0.333  16.117 -0.1763  1.0167 -0.0764
19113TIP3    H278755   2.046   0.239  16.030 -0.0963 -0.3340  1.2839
19114TIP3   OH278756   6.784   2.448   2.784  0.1956 -0.3618  0.5133
19114TIP3    H178757   6.703   2.397   2.780 -1.5210  2.2936 -0.2348
19114TIP3    H278758   6.833   2.409   2.857 -0.6655 -3.5138 -0.5124
19115TIP3   OH278759   4.991   2.992  11.647 -0.0725  0.5170  0.2583
19115TIP3    H178760   4.987   2.968  11.554 -1.5799 -2.3075  0.9996
19115TIP3    H278761   5.081   2.974  11.673  0.3980  1.4656 -0.6697
19116TIP3   OH278762   4.139   5.144   0.221  0.2203 -0.3399  0.2653
19116TIP3    H178763   4.207   5.184   0.167  0.4664 -1.6001 -0.3764
19116TIP3    H278764   4.057   5.164   0.175  0.2911 -0.1142  0.2363
19117TIP3   OH278765   2.378   0.158  14.991  0.5202 -0.2180  0.3124
19117TIP3    H178766   2.423   0.166  15.075  0.1766 -0.4165  0.5138
19117TIP3    H278767   2.409   0.233  14.940 -1.4024  1.4835  1.5980
19118TIP3   OH278768   3.033   5.104  13.750 -0.6401  0.4600  0.0309
19118TIP3    H178769   3.059   5.123  13.840  1.9443 -0.1688 -0.5276
19118TIP3    H278770   3.042   5.187  13.704 -1.9115  0.7695  0.3278
19119TIP3   OH278771   5.249   4.327  16.342  0.1275  0.0091  0.2891
19119TIP3    H178772   5.178   4.262  16.340 -0.6564  0.8816 -0.6490
19119TIP3    H278773   5.234   4.381  16.265 -0.0695  2.2199  1.8418
19120TIP3   OH278774   5.626   1.962   3.784  0.0066  0.3332  0.1118
19120TIP3    H178775   5.620   1.928   3.695  0.5857 -0.1305  0.2422
19120TIP3    H278776   5.669   1.892   3.833 -1.0130  0.2749  0.9253
19121TIP3   OH278777   4.446   3.781   4.235  0.3473  0.2565  0.3868
19121TIP3    H178778   4.490   3.806   4.317 -0.5399 -0.3906  1.0669
19121TIP3    H278779   4.436   3.864   4.188 -0.4535  0.8596  1.5872
19122TIP3   OH278780   3.449   5.241   3.784  0.1147 -0.2036 -0.2999
19122TIP3    H178781   3.510   5.267   3.716  0.1551 -0.7537 -0.4809
19122TIP3    H278782   3.477   5.290   3.861 -0.8009  1.4803 -1.0325
19123TIP3   OH278783   5.726   1.754  16.273 -0.3103 -0.1135 -0.6311
19123TIP3    H178784   5.742   1.843  16.305 -2.5698  0.0616  0.0859
19123TIP3    H278785   5.715   1.701  16.352 -3.3744 -0.1657 -1.0496
19124TIP3   OH278786   3.810   6.608  12.520  0.0410 -0.1214 -0.2562
19124TIP3    H178787   3.810   6.566  12.434 -0.5623 -2.3548  0.7974
19124TIP3    H278788   3.721   6.595  12.553  0.2742  0.7033  0.7221
19125TIP3   OH278789   3.676   6.312   5.290  0.1960  0.3745 -0.2636
19125TIP3    H178790   3.765   6.329   5.259  0.6945  0.1571  1.0637
19125TIP3    H278791   3.642   6.399   5.314  0.5685  0.2654  0.6448
19126TIP3   OH278792   6.683   5.249   3.876  0.3504 -0.8224  0.2202
19126TIP3    H178793   6.686   5.171   3.931  1.0784 -0.4684  0.7000
19126TIP3    H278794   6.687   5.322   3.938  0.1321 -0.4104 -0.2463
19127TIP3   OH278795   1.791   2.909  13.594 -0.6647 -0.1708  0.6371
19127TIP3    H178796   1.861   2.922  13.658 -1.1743  1.7406  0.8542
19127TIP3    H278797   1.712   2.943  13.636 -1.0488  0.9062 -0.8666
19128TIP3   OH278798   3.205   0.630   0.508  0.1859  0.3262 -0.4981
19128TIP3    H178799   3.233   0.549   0.464  1.8307 -0.4491  1.8819
19128TIP3    H278800   3.281   0.688   0.501  0.1784  0.4768  0.6198
19129TIP3   OH278801   4.765   2.672   0.293  0.2166 -0.0867  0.1886
19129TIP3    H178802   4.842   2.726   0.272  0.0265 -0.2926 -1.0727
19129TIP3    H278803   4.723   2.657   0.208 -0.2418 -1.4429  0.6585
19130TIP3   OH278804   6.592   5.248  13.513 -0.6953  0.5942 -0.3248
19130TIP3    H178805   6.561   5.179  13.571  0.1581 -0.4970 -1.1418
19130TIP3    H278806   6.554   5.227  13.427  0.9678  0.1514 -0.9693
19131TIP3   OH278807   0.763   0.433  12.431 -0.4561  0.1125  0.7413
19131TIP3    H178808   0.714   0.477  12.362 -0.7272 -0.6296  0.4587
19131TIP3    H278809   0.844   0.483  12.438 -0.1247 -0.2273 -0.5913
19132TIP3   OH278810   3.291   1.099  14.360 -0.1745  0.1846  0.5785
19132TIP3    H178811   3.222   1.079  14.423  1.4069 -0.9676  1.9829
19132TIP3    H278812   3.321   1.014  14.329  0.6668  0.6726  0.0113
19133TIP3   OH278813   3.899   6.632   1.374  0.3133  0.4682 -0.1368
19133TIP3    H178814   3.964   6.693   1.410  0.8244 -0.4371  0.4889
19133TIP3    H278815   3.922   6.547   1.413 -0.8751  0.0311 -0.3886
19134TIP3   OH278816   2.532   4.915  17.111 -0.0460  0.0723 -0.7679
19134TIP3    H178817   2.453   4.967  17.126 -0.1246 -0.1827 -0.2947
19134TIP3    H278818   2.600   4.979  17.091 -0.3167  0.3088 -0.9189
19135TIP3   OH278819   1.621   2.876  17.118 -0.4448  0.0551 -0.0696
19135TIP3    H178820   1.544   2.826  17.093 -1.4319  1.7571 -0.4947
19135TIP3    H278821   1.656   2.909  17.035 -0.3372  0.8421  0.2843
19136TIP3   OH278822   2.777   2.184   5.681  0.1781 -0.2485 -0.1342
19136TIP3    H178823   2.791   2.098   5.722  0.5929 -0.6861 -1.1750
19136TIP3    H278824   2.828   2.180   5.600 -0.8509  0.4943 -0.8333
19137TIP3   OH278825   3.205   0.144  12.111 -0.0038 -0.0501  0.0550
19137TIP3    H178826   3.277   0.194  12.072  0.5585 -1.4159 -0.6879
19137TIP3    H278827   3.239   0.055  12.117 -0.2371 -0.0055  3.2130
19138TIP3   OH278828   1.331   2.323  12.712 -0.5416 -0.5170  0.4103
19138TIP3    H178829   1.326   2.253  12.776  1.9345 -1.0021  0.1029
19138TIP3    H278830   1.370   2.282  12.634  1.6130  1.3508  0.4745
19139TIP3   OH278831   0.686   2.630  13.621 -0.1825 -0.0138  0.3445
19139TIP3    H178832   0.729   2.642  13.706  0.8918  0.2395 -0.2205
19139TIP3    H278833   0.593   2.623  13.642  0.1693 -1.1296  1.6570
19140TIP3   OH278834   4.835   0.087   1.501 -0.1556 -0.2703  0.1808
19140TIP3    H178835   4.855   0.165   1.449 -0.7268 -0.2323  0.0137
19140TIP3    H278836   4.916   0.037   1.502  0.5315  0.8292  1.1734
19141TIP3   OH278837   4.775   0.203   3.818  0.2742 -0.1432  0.5186
19141TIP3    H178838   4.827   0.262   3.764 -0.3636 -0.0956 -0.0495
19141TIP3    H278839   4.774   0.120   3.770 -1.1519  0.1961 -0.0584
19142TIP3   OH278840   5.617   1.381   3.438 -0.3560 -0.0585  0.1682
19142TIP3    H178841   5.615   1.323   3.514 -2.0600 -0.5517 -0.2293
19142TIP3    H278842   5.587   1.325   3.365 -0.4948  0.9058 -0.5205
19143TIP3   OH278843   0.270   0.896   0.006  0.0516  0.0294  0.4189
19143TIP3    H178844   0.239   0.808   0.025 -1.7160  0.7550  1.0286
19143TIP3    H278845   0.366   0.888   0.001 -0.1599 -2.0702 -0.4598
19144TIP3   OH278846   2.384   4.737   2.913  0.1513 -0.0838 -0.1045
19144TIP3    H178847   2.441   4.796   2.962 -0.1581  0.1478 -0.0189
19144TIP3    H278848   2.303   4.787   2.900 -0.6375 -1.0069  1.1749
19145TIP3   OH278849   2.928   4.684  15.423  0.1642  0.8558  0.4204
19145TIP3    H178850   2.902   4.602  15.381 -0.6974  1.9082 -1.1415
19145TIP3    H278851   3.014   4.704  15.384 -0.2517  1.3960 -0.2311
19146TIP3   OH278852   1.417   2.146   3.502  0.0720  0.1188 -0.2456
19146TIP3    H178853   1.334   2.132   3.549  0.2959 -1.2698 -0.2463
19146TIP3    H278854   1.391   2.151   3.410 -0.1281  0.7597 -0.1582
19147TIP3   OH278855   1.868   4.549   4.204  0.3393 -0.3077  0.3245
19147TIP3    H178856   1.806   4.597   4.259  1.0587  0.1692  0.7319
19147TIP3    H278857   1.953   4.586   4.227  0.5183  0.9104 -2.1875
19148TIP3   OH278858   5.369   5.401  14.411 -0.2161  0.1502 -0.2601
19148TIP3    H178859   5.418   5.479  14.438  1.8663 -1.2042  0.0228
19148TIP3    H278860   5.311   5.432  14.342  0.2105  2.0584  0.2021
19149TIP3   OH278861   3.012   6.381   0.206 -0.1095  0.4598  0.1327
19149TIP3    H178862   2.946   6.396   0.138 -0.1028  2.6003  0.5621
19149TIP3    H278863   3.080   6.446   0.189  1.0271 -0.5419  0.7737
19150TIP3   OH278864   3.472   2.951  12.749 -0.4249  0.3934 -0.2538
19150TIP3    H178865   3.564   2.937  12.769 -0.1554  1.2812 -0.8302
19150TIP3    H278866   3.472   3.014  12.677 -1.4938  0.7508  0.0446
19151TIP3   OH278867   4.677   6.494  15.238 -0.1040 -0.5822  0.2121
19151TIP3    H178868   4.691   6.400  15.228  0.8687 -0.3573 -0.5662
19151TIP3    H278869   4.641   6.503  15.326 -0.8475 -1.7442  0.0469
19152TIP3   OH278870   3.357   1.592   2.697 -0.5801 -0.0898 -0.2182
19152TIP3    H178871   3.388   1.620   2.783 -0.9103 -0.4106  0.0042
19152TIP3    H278872   3.307   1.512   2.714  2.1963 -2.0686 -1.1176
19153TIP3   OH278873   6.395   0.291   5.157 -0.2675 -0.4653 -0.0734
19153TIP3    H178874   6.299   0.282   5.151  0.0208 -2.5378 -2.7478
19153TIP3    H278875   6.421   0.320   5.070  1.5212  0.5522  0.7913
19154TIP3   OH278876   5.816   3.847  13.018  0.3678  0.3135  1.1377
19154TIP3    H178877   5.723   3.840  13.041  0.2852  0.6527  0.9265
19154TIP3    H278878   5.817   3.903  12.940  0.6267 -1.0472  0.1642
19155TIP3   OH278879   2.560   2.231   1.269  0.3985 -0.0127  0.3392
19155TIP3    H178880   2.536   2.269   1.184  0.7802  1.2442  0.7884
19155TIP3    H278881   2.483   2.179   1.294 -0.5148  1.2119  0.1488
19156TIP3   OH278882   4.944   5.309  11.886  0.1447 -0.2441 -0.2523
19156TIP3    H178883   4.898   5.239  11.932  0.6817  0.7870  1.9280
19156TIP3    H278884   5.037   5.289  11.900  0.3444 -0.4825 -1.8025
19157TIP3   OH278885   5.315   3.583  11.711 -0.4905 -0.0573 -0.1483
19157TIP3    H178886   5.411   3.583  11.705 -0.3896  0.8317  1.2177
19157TIP3    H278887   5.289   3.662  11.664 -0.5728 -0.4732 -0.8003
19158TIP3   OH278888   5.315   5.979   1.697  0.1996 -0.0209  0.1810
19158TIP3    H178889   5.242   5.926   1.666  0.2866 -0.5555  0.8641
19158TIP3    H278890   5.275   6.060   1.727  0.0167  0.1390 -0.5043
19159TIP3   OH278891   4.209   0.363   2.605 -0.2842  0.1630 -0.2148
19159TIP3    H178892   4.289   0.311   2.612  0.0716  0.9117  1.4066
19159TIP3    H278893   4.138   0.300   2.608  0.2008 -0.3883 -0.2561
19160TIP3   OH278894   2.785   3.976  15.876  0.1141 -0.0360 -0.2188
19160TIP3    H178895   2.748   3.954  15.791 -0.5571  0.4766 -0.0659
19160TIP3    H278896   2.813   4.067  15.867 -1.0199  0.3965  0.4529
19161TIP3   OH278897   2.420   4.873  11.541  0.1132 -0.0706  0.0610
19161TIP3    H178898   2.405   4.845  11.632 -0.4852  0.3121  0.0789
19161TIP3    H278899   2.502   4.830  11.516 -0.9591 -2.1461 -0.0267
19162TIP3   OH278900   3.415   5.688   4.277  0.8973  0.2348 -0.7959
19162TIP3    H178901   3.432   5.594   4.268  2.3795  0.4836 -0.7722
19162TIP3    H278902   3.395   5.700   4.370  0.5100 -0.0916 -0.8392
19163TIP3   OH278903   4.746   1.494  10.777 -0.1188  0.6761  0.4480
19163TIP3    H178904   4.820   1.497  10.715 -0.5207  0.2568 -0.0619
19163TIP3    H278905   4.751   1.406  10.815 -0.9963  0.2598 -0.3868
19164TIP3   OH278906   1.852   6.662  13.165  0.3391  0.2097 -0.5829
19164TIP3    H178907   1.818   6.718  13.096  0.8310 -1.0213 -1.8546
19164TIP3    H278908   1.799   6.684  13.242 -0.3383  1.4659 -1.3936
19165TIP3   OH278909   3.119   0.422   5.767  0.4306 -0.0295 -0.1000
19165TIP3    H178910   3.147   0.341   5.725 -1.6387 -0.9642  0.2239
19165TIP3    H278911   3.074   0.393   5.847  1.4478  1.5498  1.0707
19166TIP3   OH278912   6.232   0.385   1.218 -0.1482 -0.1411  0.3971
19166TIP3    H178913   6.232   0.403   1.312  0.1240  0.0015  0.3696
19166TIP3    H278914   6.325   0.381   1.195 -0.2273  0.6761 -0.0375
19167TIP3   OH278915   0.713   0.905  13.884 -0.2748 -0.0703 -0.0626
19167TIP3    H178916   0.685   0.957  13.960 -2.0982 -0.7387 -0.2413
19167TIP3    H278917   0.739   0.821  13.921  1.7162  0.6031  0.1207
19168TIP3   OH278918   4.688   3.379   2.721 -0.2022 -0.2485 -0.2362
19168TIP3    H178919   4.746   3.445   2.758  0.2700 -0.6695 -0.2185
19168TIP3    H278920   4.659   3.416   2.638 -0.6318  0.3552  0.1769
19169TIP3   OH278921   3.228   5.461   0.543  0.1536  0.4064  0.1547
19169TIP3    H178922   3.201   5.496   0.458 -1.6978 -0.6852  0.2871
19169TIP3    H278923   3.320   5.436   0.530  0.1065  0.9225 -1.2931
19170TIP3   OH278924   2.954   6.741  15.538 -0.6695  0.6011 -0.2546
19170TIP3    H178925   2.990   6.658  15.570  0.3976  1.9166  2.0967
19170TIP3    H278926   2.859   6.732  15.548 -0.5472 -0.2531  0.1775
19171TIP3   OH278927   5.364   0.885  13.727 -0.2180 -0.1291 -0.7095
19171TIP3    H178928   5.321   0.966  13.700 -1.0052 -0.4610 -0.4493
19171TIP3    H278929   5.335   0.820  13.663 -0.7916 -0.5468 -0.0230
19172TIP3   OH278930   5.428   1.019  12.339 -0.0162  0.0304  0.6248
19172TIP3    H178931   5.419   0.951  12.272 -2.6587  0.9239 -0.0134
19172TIP3    H278932   5.522   1.033  12.347  0.6121 -3.8110  0.9310
19173TIP3   OH278933   4.702   3.020   1.338  0.0948 -0.5480 -0.1502
19173TIP3    H178934   4.643   3.002   1.264  2.3168 -0.9466 -1.8981
19173TIP3    H278935   4.645   3.019   1.415 -2.1183 -1.2404 -1.7283
19174TIP3   OH278936   2.816   2.360   5.261  0.7695 -0.3413 -0.0481
19174TIP3    H178937   2.756   2.428   5.229  0.0161 -1.2546 -0.6107
19174TIP3    H278938   2.780   2.279   5.226  2.8615 -0.8103 -1.1481
19175TIP3   OH278939   5.032   1.041   3.144 -0.2156  0.0481  0.1814
19175TIP3    H178940   4.949   1.009   3.108 -1.8877  3.5161  0.7715
19175TIP3    H278941   5.085   1.064   3.067 -0.1713 -1.2159 -0.1771
19176TIP3   OH278942   6.534   4.316   1.045 -0.2308  0.7827 -0.0011
19176TIP3    H178943   6.447   4.285   1.069 -0.7968  3.2213  1.2113
19176TIP3    H278944   6.544   4.290   0.953 -3.0863  2.3114 -0.7658
19177TIP3   OH278945   5.107   4.749   1.036  0.7175 -0.3196  0.0747
19177TIP3    H178946   5.181   4.690   1.024 -0.8443 -1.9184 -2.1096
19177TIP3    H278947   5.055   4.709   1.106  0.9152 -0.2544  0.2568
19178TIP3   OH278948   4.716   4.429  16.751  0.0423 -0.1252  0.3461
19178TIP3    H178949   4.625   4.418  16.725 -0.0180  1.2824 -0.0740
19178TIP3    H278950   4.765   4.368  16.696 -0.5376 -0.1426 -0.1511
19179TIP3   OH278951   1.178   1.429  14.218  0.3245 -0.2288  0.2952
19179TIP3    H178952   1.190   1.523  14.205 -3.3178  0.4860  1.7327
19179TIP3    H278953   1.229   1.409  14.297 -2.6412  1.5356  2.7613
19180TIP3   OH278954   5.336   3.278   2.172  0.4049 -0.8153 -0.2674
19180TIP3    H178955   5.314   3.215   2.102  0.2796 -1.3298  0.2322
19180TIP3    H278956   5.413   3.240   2.214  0.8843 -0.1661 -0.5494
19181TIP3   OH278957   6.591   6.260   4.052 -0.5276 -0.2669  1.0663
19181TIP3    H178958   6.670   6.299   4.088  0.4462 -1.4849  0.2989
19181TIP3    H278959   6.609   6.252   3.958 -0.5666 -2.7882  1.2359
19182TIP3   OH278960   2.689   0.484  12.989  0.1844 -0.1474 -0.0728
19182TIP3    H178961   2.760   0.541  13.016  1.6482 -1.8838 -0.1732
19182TIP3    H278962   2.697   0.406  13.045 -2.7285  0.3651  1.1466
19183TIP3   OH278963   0.137   4.729  14.870 -0.3278  0.1978 -0.1475
19183TIP3    H178964   0.232   4.737  14.879 -0.1652 -1.0982 -0.6745
19183TIP3    H278965   0.103   4.802  14.922  0.9785  1.5304 -1.1087
19184TIP3   OH278966   2.801   1.898  15.543  0.6292  0.1687 -0.2456
19184TIP3    H178967   2.854   1.950  15.604 -0.7430  1.5361 -0.1872
19184TIP3    H278968   2.750   1.840  15.600 -0.9111  1.6889 -0.0337
19185TIP3   OH278969   1.052   6.533  11.804  0.1443  0.1593 -0.0208
19185TIP3    H178970   0.971   6.583  11.799  1.1390  1.9337  1.1538
19185TIP3    H278971   1.025   6.447  11.837 -1.2832  0.6529  0.1446
19186TIP3   OH278972   1.688   2.491  16.936  0.8396 -0.3683 -0.1410
19186TIP3    H178973   1.717   2.540  17.013  0.9768 -0.9434  0.1743
19186TIP3    H278974   1.706   2.400  16.958  2.8614 -0.3700 -1.6994
19187TIP3   OH278975   5.098   2.716  11.021  0.3444 -0.3303  0.0292
19187TIP3    H178976   5.090   2.659  10.945 -1.1307  1.0206 -0.8630
19187TIP3    H278977   5.025   2.778  11.012  0.3998  0.1107  2.3105
19188TIP3   OH278978   5.598   5.969   2.040 -0.5257 -0.4789  0.7358
19188TIP3    H178979   5.511   5.936   2.018 -0.1074 -1.3611  0.3831
19188TIP3    H278980   5.602   6.055   1.999 -0.8718 -0.8496 -0.0815
19189TIP3   OH278981   1.430   2.829   3.506 -0.5877  0.4362  0.4326
19189TIP3    H178982   1.355   2.813   3.450  0.5811 -0.7341 -0.8490
19189TIP3    H278983   1.487   2.887   3.455  0.1983 -0.1198  0.6560
19190TIP3   OH278984   5.007   4.160   4.240 -0.2691 -0.3545 -0.4132
19190TIP3    H178985   4.995   4.097   4.170  1.2452  0.6578 -1.6032
19190TIP3    H278986   5.085   4.209   4.216 -0.0590  0.4006  1.6848
19191TIP3   OH278987   6.210   1.703   6.001  0.3788 -0.0014  0.5202
19191TIP3    H178988   6.119   1.686   6.024 -0.1969  1.2748 -0.6908
19191TIP3    H278989   6.252   1.726   6.084 -0.9386  1.5828  0.7963
19192TIP3   OH278990   1.666   1.150  15.505 -0.2020  0.1339  0.4944
19192TIP3    H178991   1.718   1.169  15.427 -1.7778  0.8553 -0.3968
19192TIP3    H278992   1.699   1.212  15.570 -0.7991  1.4565 -0.4412
19193TIP3   OH278993   4.391   4.507   2.403  0.1720 -0.8170  0.6188
19193TIP3    H178994   4.316   4.458   2.368 -0.2090  1.2647 -1.6210
19193TIP3    H278995   4.368   4.524   2.494 -2.0760 -0.2499 -0.0133
19194TIP3   OH278996   3.292   5.703  11.820 -0.3134  0.0035  0.2861
19194TIP3    H178997   3.231   5.700  11.746 -1.1062 -0.5744  0.9539
19194TIP3    H278998   3.373   5.737  11.782 -0.9871  0.6065 -0.6567
19195TIP3   OH278999   3.846   4.549   0.711  0.2087  0.3238 -0.0797
19195TIP3    H179000   3.859   4.486   0.782 -2.7804 -0.5528 -0.2510
19195TIP3    H279001   3.803   4.624   0.752 -0.9351  0.0869 -0.8197
19196TIP3   OH279002   1.672   1.648  16.567  0.1605  0.0605  0.2527
19196TIP3    H179003   1.688   1.565  16.523 -0.4615 -0.5327  1.1318
19196TIP3    H279004   1.645   1.624  16.656  0.2407  1.2046  0.6015
19197TIP3   OH279005   5.458   1.627   6.072 -0.3860 -0.1665 -0.0195
19197TIP3    H179006   5.518   1.579   6.129  0.2140  1.8144  1.0881
19197TIP3    H279007   5.432   1.703   6.124 -1.8888  0.3234 -1.4386
19198TIP3   OH279008   6.529   2.261  15.899  0.0018 -0.0480 -0.3476
19198TIP3    H179009   6.547   2.190  15.961 -0.1332  0.1343 -0.0971
19198TIP3    H279010   6.510   2.216  15.817 -2.5480 -0.4447  0.3909
19199TIP3   OH279011   2.116   5.662  13.300 -0.3816  0.3834 -0.4879
19199TIP3    H179012   2.193   5.719  13.295 -0.7990  0.9677 -0.3340
19199TIP3    H279013   2.094   5.643  13.209  0.1428 -0.0666 -0.5288
19200TIP3   OH279014   6.468   6.734   5.892  0.2654 -0.2208 -0.6276
19200TIP3    H179015   6.543   6.714   5.948 -1.0983 -1.3369  0.8440
19200TIP3    H279016   6.457   6.829   5.901 -0.1640 -0.4260  1.3306
19201TIP3   OH279017   0.301   4.497  16.314  0.0030 -0.1370 -0.0908
19201TIP3    H179018   0.325   4.430  16.378 -2.3956 -2.0763 -1.1402
19201TIP3    H279019   0.209   4.517  16.332  0.0061  1.1538 -1.3203
19202TIP3   OH279020   4.304   0.797  16.836 -0.6899  0.2814 -0.0784
19202TIP3    H179021   4.232   0.853  16.868 -1.4618 -1.1059  0.6585
19202TIP3    H279022   4.303   0.721  16.894  1.0144 -0.0323 -0.4271
19203TIP3   OH279023   3.671   2.341   0.105  0.5211 -0.8362 -0.1048
19203TIP3    H179024   3.765   2.343   0.123  0.6539 -0.3310 -0.7964
19203TIP3    H279025   3.630   2.380   0.182  0.9016 -0.7966  0.0767
19204TIP3   OH279026   5.119   1.993   0.397  0.0362  0.3632 -0.2142
19204TIP3    H179027   5.125   1.994   0.492 -0.5580  0.2120 -0.1705
19204TIP3    H279028   5.196   1.945   0.368 -0.0524 -0.0408  0.2154
19205TIP3   OH279029   6.625   2.988  16.977 -0.5283  0.5295 -0.8882
19205TIP3    H179030   6.675   2.913  16.946  1.6276  1.4258  0.3329
19205TIP3    H279031   6.665   3.064  16.934 -2.4775  1.0467 -1.8629
19206TIP3   OH279032   0.974   6.104   2.414 -0.3670 -0.2034  0.4820
19206TIP3    H179033   1.056   6.129   2.371  0.4278 -0.4184  1.8484
19206TIP3    H279034   0.915   6.177   2.398 -0.7454 -1.1337 -2.6705
19207TIP3   OH279035   5.638   3.995   2.492 -0.6492 -0.0978 -0.4135
19207TIP3    H179036   5.670   4.023   2.578 -0.4644  0.5169 -0.6812
19207TIP3    H279037   5.656   4.069   2.435 -0.9146 -0.4500 -0.9512
19208TIP3   OH279038   0.819   3.311  10.472  0.4541  0.1659  0.1284
19208TIP3    H179039   0.887   3.318  10.404 -0.6541 -0.2886 -1.0483
19208TIP3    H279040   0.750   3.259  10.431 -0.4021  0.2265  1.4795
19209TIP3   OH279041   1.566   6.472   1.934 -0.5350  0.6286  0.1016
19209TIP3    H179042   1.611   6.477   2.018  1.2486 -0.9963 -0.7033
19209TIP3    H279043   1.635   6.484   1.869 -1.5034 -0.3729 -1.1556
19210TIP3   OH279044   2.505   0.013  13.974  0.3481 -0.1810 -0.3947
19210TIP3    H179045   2.438  -0.041  13.934 -0.0390  0.0763 -0.0899
19210TIP3    H279046   2.469   0.039  14.059  0.4681  0.6592 -0.5906
19211TIP3   OH279047   0.172   5.248   1.867 -0.2849 -0.0915  0.5621
19211TIP3    H179048   0.253   5.286   1.902 -1.1461  1.7198  0.5962
19211TIP3    H279049   0.201   5.200   1.790  0.6340  1.8478 -0.3334
19212TIP3   OH279050   5.132   5.400   4.163 -0.0116 -0.3412 -0.5531
19212TIP3    H179051   5.205   5.459   4.182 -0.2165 -0.1310 -0.4089
19212TIP3    H279052   5.059   5.437   4.213  0.1250 -1.3124  0.3691
19213TIP3   OH279053   3.101   0.964   2.666  0.0605  0.5209 -0.4044
19213TIP3    H179054   3.034   1.024   2.698  1.6497  0.7166  2.7810
19213TIP3    H279055   3.180   1.017   2.661  1.1705 -0.9463  1.1370
19214TIP3   OH279056   6.605   3.735  16.436 -0.4301 -1.1164 -0.4482
19214TIP3    H179057   6.526   3.783  16.413  0.6922  1.1036  0.2243
19214TIP3    H279058   6.635   3.698  16.353 -1.6588 -1.2218 -0.8629
19215TIP3   OH279059   6.079   3.588  15.959  0.9057  0.9358 -0.2052
19215TIP3    H179060   6.144   3.549  15.900  0.3399  1.7160 -1.3566
19215TIP3    H279061   6.117   3.672  15.984  0.3375  1.3932 -0.8786
19216TIP3   OH279062   2.839   0.046   0.344  0.8005  0.8124 -0.6229
19216TIP3    H179063   2.895   0.010   0.275  0.7268 -0.0854 -0.2150
19216TIP3    H279064   2.752   0.050   0.305  0.7152  0.0944 -0.5121
19217TIP3   OH279065   3.418   1.490  11.902 -0.2902 -0.2375 -0.3654
19217TIP3    H179066   3.333   1.516  11.866 -0.2977 -0.9631 -0.8832
19217TIP3    H279067   3.470   1.465  11.825 -0.4246 -2.1509  0.1346
19218TIP3   OH279068   2.615   4.909  16.471  0.0193  0.4507 -0.3982
19218TIP3    H179069   2.598   5.001  16.494 -0.9497  0.0016  0.7766
19218TIP3    H279070   2.563   4.859  16.534 -0.1824 -0.9008 -1.6036
19219TIP3   OH279071   0.589   2.841  12.552 -0.8448 -0.9917  0.3732
19219TIP3    H179072   0.520   2.876  12.496  0.6373  0.2723 -0.7112
19219TIP3    H279073   0.670   2.868  12.510  0.3256 -0.3438  2.9127
19220TIP3   OH279074   0.362   0.434  15.875 -0.6133  0.6080 -0.1108
19220TIP3    H179075   0.431   0.371  15.858 -0.1155  0.7124  1.4007
19220TIP3    H279076   0.409   0.517  15.891 -1.1359  0.8777  0.0320
19221TIP3   OH279077   0.197   5.051   5.226  0.5686  0.3032 -0.4729
19221TIP3    H179078   0.119   5.106   5.224  0.7066  0.4808 -1.8698
19221TIP3    H279079   0.176   4.981   5.287 -1.3115 -0.5643 -2.0569
19222TIP3   OH279080   4.914   4.348   4.698 -0.7797 -0.5476  0.7201
19222TIP3    H179081   4.979   4.397   4.749 -1.5209  0.5122  0.6520
19222TIP3    H279082   4.964   4.314   4.624 -0.2907  0.2565  0.6674
19223TIP3   OH279083   4.949   6.755  17.160  0.1059 -0.4690  0.4680
19223TIP3    H179084   4.914   6.667  17.149 -0.3490 -0.2465  0.1404
19223TIP3    H279085   4.891   6.797  17.224 -0.2885 -0.0736 -0.1390
19224TIP3   OH279086   4.758   2.530   3.362 -0.0334  0.1407  0.6929
19224TIP3    H179087   4.824   2.464   3.383  0.9258  1.0458  0.6064
19224TIP3    H279088   4.758   2.589   3.437  0.9210  1.4316 -0.2724
19225TIP3   OH279089   1.504   6.013  15.891 -0.0003  1.1731  0.0382
19225TIP3    H179090   1.534   5.976  15.974  1.2718  0.3189 -0.7800
19225TIP3    H279091   1.536   6.103  15.891 -0.3380  1.2889  0.6496
19226TIP3   OH279092   5.719   0.602   0.613 -0.0800 -0.2743 -0.0735
19226TIP3    H179093   5.705   0.529   0.675 -0.1688  0.6048  0.9600
19226TIP3    H279094   5.633   0.642   0.603  0.1964  0.4022  0.2675
19227TIP3   OH279095   2.253   0.930  14.837  0.4218 -0.0966  0.0508
19227TIP3    H179096   2.313   0.986  14.789  0.7155 -0.2344  0.2582
19227TIP3    H279097   2.307   0.886  14.903 -0.4098  2.0706  2.2752
19228TIP3   OH279098   6.048   4.034   2.358 -0.1714  0.5560  0.5919
19228TIP3    H179099   6.041   4.009   2.266 -0.8915 -1.1381  1.0843
19228TIP3    H279100   6.034   4.129   2.358 -1.6025  0.3714 -0.8857
19229TIP3   OH279101   4.981   3.924  15.679  0.3098 -0.2101  0.4859
19229TIP3    H179102   5.075   3.937  15.674  0.5955 -1.8327  1.5740
19229TIP3    H279103   4.960   3.868  15.604 -0.0074  1.2573 -0.5465
19230TIP3   OH279104   1.327   3.599  15.853  0.1921 -0.4319 -0.4231
19230TIP3    H179105   1.325   3.685  15.811 -0.4952  0.9628  2.3154
19230TIP3    H279106   1.394   3.608  15.921 -1.4937 -1.2849  1.4026
19231TIP3   OH279107   1.106   3.989  15.239  0.5928 -0.9635 -0.3615
19231TIP3    H179108   1.049   3.984  15.316  2.9567  1.5669  1.6650
19231TIP3    H279109   1.126   3.897  15.218 -0.4607 -1.7063  1.7739
19232TIP3   OH279110   1.175   5.411   3.835 -0.8889 -0.5701  0.3169
19232TIP3    H179111   1.085   5.440   3.848 -1.0444 -0.4122 -0.9865
19232TIP3    H279112   1.179   5.385   3.742  0.6236  0.2288  0.1389
19233TIP3   OH279113   3.925   4.408   4.406 -0.0262 -0.2834  0.2887
19233TIP3    H179114   3.957   4.336   4.460 -0.4177  0.7338  1.9242
19233TIP3    H279115   3.955   4.487   4.451  0.0760  0.5854 -1.2723
19234TIP3   OH279116   6.120   6.157  12.900  0.1206 -0.2791 -0.3551
19234TIP3    H179117   6.094   6.114  12.818  2.6965 -2.8145  0.0835
19234TIP3    H279118   6.038   6.189  12.937 -1.5023 -1.9326 -2.3679
19235TIP3   OH279119   6.504   3.995   4.690  0.0195 -0.2290 -0.0814
19235TIP3    H179120   6.437   4.060   4.715  0.2272 -0.0747  0.0734
19235TIP3    H279121   6.471   3.912   4.725  0.0449 -0.1057  0.2370
19236TIP3   OH279122   4.850   1.034  10.661 -0.1366 -0.3136  0.3178
19236TIP3    H179123   4.759   1.005  10.653 -0.2153  0.3438 -1.4024
19236TIP3    H279124   4.898   0.955  10.687 -1.0294 -0.9252  0.1384
19237TIP3   OH279125   5.914   1.547  11.481 -0.1899 -0.4047 -0.1701
19237TIP3    H179126   5.934   1.595  11.562  1.4472 -1.0922 -0.1414
19237TIP3    H279127   5.867   1.469  11.510  0.7260 -0.8390  0.1680
19238TIP3   OH279128   0.435   4.882  16.901 -0.1300  0.2071 -0.1655
19238TIP3    H179129   0.474   4.929  16.974  1.5622 -0.1504 -0.8205
19238TIP3    H279130   0.444   4.942  16.827  0.0557 -0.2674 -0.5262
19239TIP3   OH279131   4.792   2.431   2.609 -0.3250  0.2945  0.5718
19239TIP3    H179132   4.758   2.503   2.661  1.5549  0.6071  1.3990
19239TIP3    H279133   4.721   2.367   2.608 -1.5802  1.6644  0.7846
19240TIP3   OH279134   5.362   2.351   1.524 -0.1001 -0.4141 -0.2341
19240TIP3    H179135   5.426   2.419   1.504  0.3168 -0.7298  0.0189
19240TIP3    H279136   5.346   2.308   1.440  1.4351 -1.5495  0.0289
19241TIP3   OH279137   2.374   5.153  13.581 -0.3160 -0.0611 -0.5099
19241TIP3    H179138   2.464   5.168  13.549 -0.3465 -1.5288 -1.3356
19241TIP3    H279139   2.367   5.207  13.660  1.5969 -0.6311  0.0741
19242TIP3   OH279140   2.958   4.662   5.878 -0.2510  0.1854 -0.4054
19242TIP3    H179141   2.889   4.607   5.839 -1.2732  0.7857  0.5247
19242TIP3    H279142   2.947   4.747   5.836 -0.2827  0.3756 -0.0045
19243TIP3   OH279143   4.079   5.987   1.293  0.1159 -0.4714 -0.2003
19243TIP3    H179144   4.008   6.050   1.308 -2.6300 -3.2320 -1.0687
19243TIP3    H279145   4.103   5.956   1.380  0.0627  0.2911  0.0864
19244TIP3   OH279146   1.583   2.711   5.283  0.1898 -0.4347  0.4180
19244TIP3    H179147   1.499   2.753   5.265  0.0601 -1.2421 -0.9340
19244TIP3    H279148   1.590   2.712   5.379 -2.5564 -2.6506  0.7280
19245TIP3   OH279149   4.172   1.925   4.353 -1.0723 -0.0400  0.3816
19245TIP3    H179150   4.189   1.840   4.394  3.8968 -0.2596 -1.7378
19245TIP3    H279151   4.167   1.986   4.426  1.7963 -1.2643  1.7064
19246TIP3   OH279152   2.985   3.750   2.559  0.6217  0.2974  0.2111
19246TIP3    H179153   2.921   3.679   2.552  1.0007 -0.1314  1.0500
19246TIP3    H279154   2.950   3.819   2.504  0.1361 -0.4611 -0.4518
19247TIP3   OH279155   2.267   0.941   4.532 -0.1514  0.5087 -0.2250
19247TIP3    H179156   2.302   1.000   4.465 -1.2989  1.3194 -0.1234
19247TIP3    H279157   2.173   0.941   4.517 -0.2598 -0.5597  0.3886
19248TIP3   OH279158   5.189   1.873   0.987  0.0433  0.1864  0.0949
19248TIP3    H179159   5.160   1.844   1.073 -0.1326  0.0723 -0.0015
19248TIP3    H279160   5.276   1.910   1.001 -0.8389  2.1056  0.6892
19249TIP3   OH279161   5.121   4.994  16.474 -0.5157  0.1376 -0.2453
19249TIP3    H179162   5.029   5.004  16.452 -0.5186  1.5644  0.3875
19249TIP3    H279163   5.146   5.078  16.514  0.3478 -1.1657  2.0588
19250TIP3   OH279164   1.930   0.164  14.153 -0.4005  0.3466 -0.0424
19250TIP3    H179165   1.995   0.187  14.219 -0.7524  0.4553  0.2659
19250TIP3    H279166   1.849   0.202  14.184 -1.0441 -1.5023  0.6119
19251TIP3   OH279167   2.897   5.652   4.361  0.4663  0.1133 -0.1067
19251TIP3    H179168   2.933   5.566   4.381  2.0611  0.2905 -2.0541
19251TIP3    H279169   2.971   5.712   4.372 -0.6926  1.3076  1.4933
19252TIP3   OH279170   6.038   1.927  11.136 -0.4840  0.0120 -0.0028
19252TIP3    H179171   6.026   1.842  11.093 -1.5473  0.3847 -0.4738
19252TIP3    H279172   6.121   1.960  11.104 -0.8315 -0.1387 -1.0628
19253TIP3   OH279173   0.069   6.330   4.125 -0.2147 -0.2198  0.1914
19253TIP3    H179174   0.131   6.403   4.124 -1.0588  0.5065  0.0748
19253TIP3    H279175   0.121   6.253   4.100  0.4474  0.5222 -0.7196
19254TIP3   OH279176   6.338   6.692   1.566  0.1711 -0.6938  0.3793
19254TIP3    H179177   6.264   6.752   1.561 -0.4754 -1.5253 -0.0964
19254TIP3    H279178   6.400   6.727   1.502  0.6169  0.5531  1.4596
19255TIP3   OH279179   2.198   6.583   1.719  0.7884 -0.4006 -0.1171
19255TIP3    H179180   2.233   6.598   1.631 -0.8221  0.6379 -0.6197
19255TIP3    H279181   2.113   6.540   1.704  0.4482 -0.1129  0.9246
19256TIP3   OH279182   4.694   3.212   5.314  0.0062  0.7798 -0.2797
19256TIP3    H179183   4.639   3.233   5.390  1.0366  0.8657  0.4605
19256TIP3    H279184   4.768   3.272   5.321 -0.0309  0.9873 -1.5331
19257TIP3   OH279185   3.618   0.314  12.529 -0.1910 -0.4657  0.4850
19257TIP3    H179186   3.639   0.317  12.435 -0.6393 -0.3864  0.3839
19257TIP3    H279187   3.622   0.220  12.550  1.2713 -0.3607  0.7127
19258TIP3   OH279188   5.254   0.457   1.633  0.2387 -0.0134 -0.7302
19258TIP3    H179189   5.263   0.417   1.720  0.2767  1.8451  0.1434
19258TIP3    H279190   5.239   0.383   1.575 -3.2194 -1.0536  1.3262
19259TIP3   OH279191   4.261   2.368   4.537  0.5856  0.3871 -0.3527
19259TIP3    H179192   4.188   2.349   4.597  1.1406 -0.2635  0.1210
19259TIP3    H279193   4.289   2.456   4.561  1.0961 -0.0398  0.6537
19260TIP3   OH279194   4.731   3.483   0.085  0.3047  0.4214  0.4161
19260TIP3    H179195   4.730   3.492  -0.010 -0.2302  1.0153  0.4734
19260TIP3    H279196   4.745   3.572   0.118  1.1042  0.1326  0.8859
19261TIP3   OH279197   1.479   3.380  13.056 -0.0397  0.5863 -0.5120
19261TIP3    H179198   1.418   3.447  13.088 -0.8245 -1.0165  1.4801
19261TIP3    H279199   1.561   3.400  13.100  0.4129  1.6162 -1.7584
19262TIP3   OH279200   0.647   4.270   4.619  0.2832 -0.9865 -0.2244
19262TIP3    H179201   0.571   4.294   4.565  1.8037 -0.3101 -2.1067
19262TIP3    H279202   0.707   4.344   4.610  1.3116 -1.6586  1.0089
19263TIP3   OH279203   1.002   2.995  12.223 -0.0630 -0.8332  0.2318
19263TIP3    H179204   0.925   2.969  12.173 -0.5970 -0.3384  0.7922
19263TIP3    H279205   0.968   3.019  12.309  0.6396 -0.0339  0.2955
19264TIP3   OH279206   4.317   4.307  16.569  0.2470 -0.4472  0.1393
19264TIP3    H179207   4.273   4.343  16.492 -1.5240 -0.3791  1.1609
19264TIP3    H279208   4.296   4.214  16.568 -0.0728 -0.3879  0.7147
19265TIP3   OH279209   2.967   0.996  14.296 -0.1842 -0.0678  0.2602
19265TIP3    H179210   2.966   1.086  14.328  3.0700 -0.1158  0.6065
19265TIP3    H279211   2.954   1.005  14.201  1.0491  0.8432  0.1624
19266TIP3   OH279212   3.560   6.000  12.385 -0.2715  0.0244  0.0766
19266TIP3    H179213   3.634   5.986  12.326 -0.3790  0.1222 -0.0813
19266TIP3    H279214   3.483   5.988  12.330 -0.3745 -0.0992  0.2478
19267TIP3   OH279215   6.623   3.392   1.227  0.1072 -0.3778  0.0330
19267TIP3    H179216   6.707   3.385   1.181  0.4855 -1.1644  0.8314
19267TIP3    H279217   6.613   3.308   1.272 -1.6148 -0.6957 -0.9045
19268TIP3   OH279218   0.129   0.438   5.747 -0.7839 -0.3305 -0.4662
19268TIP3    H179219   0.114   0.397   5.832  0.3645  1.8032  0.7871
19268TIP3    H279220   0.060   0.505   5.740  0.3139  0.8439 -0.3120
19269TIP3   OH279221   6.567   0.819   0.831 -0.3371  0.3055  0.0336
19269TIP3    H179222   6.503   0.773   0.886  0.2481 -1.2675 -0.5747
19269TIP3    H279223   6.547   0.912   0.843 -1.5214 -0.1024  1.3146
19270TIP3   OH279224   1.336   0.667  11.528  0.1109  0.0926  0.0876
19270TIP3    H179225   1.325   0.762  11.531 -0.7465  0.0364 -0.8541
19270TIP3    H279226   1.268   0.633  11.587  0.5166  0.0665  0.5415
19271TIP3   OH279227   5.058   0.497  16.437 -0.0626  0.1112  0.2204
19271TIP3    H179228   5.080   0.586  16.466  0.8062  0.4917 -1.5032
19271TIP3    H279229   5.120   0.480  16.366 -0.6770 -1.6257  0.0842
19272TIP3   OH279230   0.541   6.286   3.655 -0.2787  0.2456  0.2456
19272TIP3    H179231   0.513   6.374   3.631 -1.5289  0.1505  1.3185
19272TIP3    H279232   0.554   6.241   3.571  0.1707  1.3791 -0.3026
19273TIP3   OH279233   0.036   2.717  10.765  0.1501  0.1582  0.0448
19273TIP3    H179234   0.088   2.750  10.838  1.3182 -1.7766  0.1191
19273TIP3    H279235   0.098   2.669  10.711 -1.5999 -2.5656  0.3404
19274TIP3   OH279236   6.658   2.731  13.205  0.6743 -0.1873  0.2685
19274TIP3    H179237   6.638   2.657  13.263  1.1513  0.4801  1.2952
19274TIP3    H279238   6.607   2.803  13.241 -0.6789 -0.2809 -1.4043
19275TIP3   OH279239   1.920   2.815  15.602  0.4924 -0.1306  0.2648
19275TIP3    H179240   1.885   2.729  15.628  0.3856 -0.6054 -1.4087
19275TIP3    H279241   1.910   2.869  15.680 -0.9582 -1.1840  0.8287
19276TIP3   OH279242   4.212   6.641   5.805  0.5228  1.1403  0.1047
19276TIP3    H179243   4.277   6.659   5.738  0.7044  1.2719  0.3154
19276TIP3    H279244   4.260   6.593   5.873  0.0224 -0.2306 -0.4940
19277TIP3   OH279245   2.734   0.507  16.519  0.1709 -0.0759 -0.3985
19277TIP3    H179246   2.800   0.472  16.579 -0.4825  0.4452  0.6536
19277TIP3    H279247   2.710   0.591  16.558  1.4732  1.4130 -2.6823
19278TIP3   OH279248   6.030   4.125   5.915  0.8903  0.0293 -0.4253
19278TIP3    H179249   6.096   4.120   5.985 -0.6140  0.1501  1.0470
19278TIP3    H279250   5.947   4.115   5.961 -0.1978  1.3378 -2.0678
19279TIP3   OH279251   0.809   3.717  13.344  0.3683 -0.0927 -0.1233
19279TIP3    H179252   0.788   3.810  13.337  0.0718 -0.1164  0.4097
19279TIP3    H279253   0.724   3.673  13.336  0.5489 -0.3361 -0.7278
19280TIP3   OH279254   6.149   4.301  15.873  0.7599  0.5954 -0.0768
19280TIP3    H179255   6.102   4.275  15.951 -0.7368  1.1152 -0.7900
19280TIP3    H279256   6.242   4.294  15.897  0.3187  1.6421  2.0314
19281TIP3   OH279257   0.978   0.550  13.816 -0.5390 -0.0192  0.2364
19281TIP3    H179258   0.918   0.501  13.873  1.6423 -3.5367 -0.3418
19281TIP3    H279259   1.065   0.521  13.844  0.8160  2.9792 -0.7292
19282TIP3   OH279260   3.718   3.853   4.595  0.3524  0.5674 -0.0106
19282TIP3    H179261   3.656   3.855   4.522 -1.7219  1.6508  1.7282
19282TIP3    H279262   3.768   3.934   4.586  1.6565 -0.3685 -1.4880
19283TIP3   OH279263   1.260   3.592  16.613 -1.0179 -0.1944 -0.3761
19283TIP3    H179264   1.176   3.622  16.580  0.0679  1.2512 -1.9841
19283TIP3    H279265   1.312   3.577  16.533  1.5615  2.9534  0.5717
19284TIP3   OH279266   2.713   6.516  13.851  0.1846 -0.0710  0.4047
19284TIP3    H179267   2.646   6.451  13.871  0.3598  0.0182  1.3136
19284TIP3    H279268   2.796   6.471  13.868  0.2826  0.6941  2.0016
19285TIP3   OH279269   2.944   2.202  17.224  0.3214  0.1032 -0.0056
19285TIP3    H179270   2.894   2.270  17.270  1.0055  0.1564  0.6836
19285TIP3    H279271   2.887   2.174  17.153 -1.1901 -0.6880  1.4755
19286TIP3   OH279272   1.267   2.098   4.951 -0.1771  0.5012 -0.1181
19286TIP3    H179273   1.213   2.037   4.900 -1.2434  1.3492 -0.0313
19286TIP3    H279274   1.235   2.088   5.041  0.0783  0.7236 -0.0042
19287TIP3   OH279275   4.275   0.090   1.726  0.8539 -0.3113  0.2386
19287TIP3    H179276   4.204   0.152   1.710 -0.5337 -2.4680 -2.3737
19287TIP3    H279277   4.351   0.127   1.681  0.5936  0.5114  0.4757
19288TIP3   OH279278   0.634   6.089  11.194 -0.4361 -0.1014 -0.1931
19288TIP3    H179279   0.626   6.180  11.165 -0.4017  0.0666  0.3239
19288TIP3    H279280   0.729   6.074  11.199 -0.4285  0.2132  0.8805
19289TIP3   OH279281   3.827   3.106   3.194  0.2967 -0.4261 -0.4894
19289TIP3    H179282   3.757   3.116   3.258  1.1892  1.5332  0.2256
19289TIP3    H279283   3.797   3.035   3.137 -2.7170  1.0103 -0.8059
19290TIP3   OH279284   6.466   2.452   1.980  0.1366 -0.3937 -0.1232
19290TIP3    H179285   6.510   2.511   1.918  1.4768 -0.0106  1.1748
19290TIP3    H279286   6.382   2.495   1.998  0.6990  0.6388  0.0749
19291TIP3   OH279287   6.159   5.593   5.550 -0.4105 -0.4691 -0.0583
19291TIP3    H179288   6.207   5.623   5.473  0.7803 -0.1051  0.8223
19291TIP3    H279289   6.084   5.545   5.513  0.9576 -1.6106 -1.4426
19292TIP3   OH279290   3.816   3.235   1.017 -0.1074  0.2040  0.3141
19292TIP3    H179291   3.805   3.277   1.102 -0.2029  2.4166 -0.7460
19292TIP3    H279292   3.868   3.298   0.966 -1.5168 -0.2680 -1.7954
19293TIP3   OH279293   0.933   2.390   0.031  0.6256  0.1347 -0.3706
19293TIP3    H179294   0.953   2.311   0.082 -1.0519 -0.1082 -0.0513
19293TIP3    H279295   0.945   2.462   0.094 -2.1740 -0.2208  0.6338
19294TIP3   OH279296   0.528   5.634   5.246 -0.3663  0.0177  0.1407
19294TIP3    H179297   0.472   5.571   5.200 -1.6640  0.5968  0.9102
19294TIP3    H279298   0.468   5.686   5.298  1.0326 -0.2444  2.0596
19295TIP3   OH279299   2.101   4.517   0.686  0.4984 -0.0443  0.4233
19295TIP3    H179300   2.101   4.523   0.591 -2.5062  0.2284  0.3991
19295TIP3    H279301   2.060   4.598   0.716 -0.6695 -1.1040  1.8283
19296TIP3   OH279302   0.445   6.644  16.718 -0.2646  0.0417  0.0417
19296TIP3    H179303   0.430   6.549  16.717  0.9037 -0.1442 -0.2547
19296TIP3    H279304   0.358   6.682  16.706 -0.7666 -0.9900  0.3765
19297TIP3   OH279305   3.506   3.817   0.021 -0.2309 -0.1093  0.4989
19297TIP3    H179306   3.470   3.766   0.093 -1.6777 -0.7862 -0.6631
19297TIP3    H279307   3.472   3.774  -0.058  1.9351  0.1461 -0.6124
19298TIP3   OH279308   0.742   2.362  11.225 -0.4108 -0.5274 -0.3883
19298TIP3    H179309   0.820   2.308  11.213 -0.2786 -1.0502  2.3882
19298TIP3    H279310   0.760   2.442  11.176  1.8286 -0.7027  0.0907
19299TIP3   OH279311   2.641   4.085   3.024  0.2874 -0.0985  0.0026
19299TIP3    H179312   2.601   4.136   2.955  0.0437  0.2659  0.4131
19299TIP3    H279313   2.716   4.043   2.982 -0.4830 -0.7481 -0.7577
19300TIP3   OH279314   4.696   0.820  11.406  0.3163 -0.5906  0.0092
19300TIP3    H179315   4.776   0.783  11.371 -1.0784 -2.7701 -0.9903
19300TIP3    H279316   4.627   0.760  11.377 -1.5124  0.4654  2.0265
19301TIP3   OH279317   5.748   0.207  13.122  0.3718 -0.2732 -0.0596
19301TIP3    H179318   5.838   0.218  13.153  0.8708  0.9167 -1.8945
19301TIP3    H279319   5.728   0.288  13.076 -1.5562 -0.6478  0.0768
19302TIP3   OH279320   0.432   2.727   5.492  0.0313  0.2866 -0.2566
19302TIP3    H179321   0.515   2.691   5.461  0.6144  0.8900  0.5587
19302TIP3    H279322   0.412   2.676   5.571  0.0425  0.6742 -0.0013
19303TIP3   OH279323   0.344   4.615   0.032 -0.4094 -0.2104 -0.4479
19303TIP3    H179324   0.396   4.610   0.113  1.1415 -1.0754 -1.4741
19303TIP3    H279325   0.313   4.705   0.029 -0.8591 -0.2825  1.3401
19304TIP3   OH279326   0.624   6.005   4.117  0.8144 -0.8903  0.2265
19304TIP3    H179327   0.587   5.974   4.200  2.3821  1.6312  1.9247
19304TIP3    H279328   0.588   5.945   4.051 -2.9984 -1.0375  2.2756
19305TIP3   OH279329   5.493   0.635   5.389 -0.1606  0.7062  0.5506
19305TIP3    H179330   5.494   0.721   5.432 -1.7400 -0.6258  3.4089
19305TIP3    H279331   5.558   0.584   5.436  0.4527  0.1835 -0.8458
19306TIP3   OH279332   5.880   3.469   5.917 -0.1694 -0.1994 -0.6804
19306TIP3    H179333   5.958   3.515   5.947 -0.7456  0.3800 -0.0319
19306TIP3    H279334   5.831   3.451   5.998 -1.8562  1.5530 -1.2835
19307TIP3   OH279335   0.597   6.366  10.539  0.3559 -0.0155 -0.6573
19307TIP3    H179336   0.599   6.290  10.481  1.2615 -0.1430 -0.4636
19307TIP3    H279337   0.627   6.438  10.485  3.2975 -0.5307  0.2124
19308TIP3   OH279338   3.826   0.836  14.944  0.8750  0.1865  0.0613
19308TIP3    H179339   3.913   0.872  14.930  0.6472  0.4172 -0.8051
19308TIP3    H279340   3.777   0.861  14.865  0.0731 -0.0686  0.4762
19309TIP3   OH279341   5.104   3.874   3.510  0.0339  0.1985 -0.1198
19309TIP3    H179342   5.121   3.962   3.544  0.0190  0.1234  0.0873
19309TIP3    H279343   5.173   3.819   3.549  0.0561  0.1226 -0.2644
19310TIP3   OH279344   5.874   6.169   5.383  0.1993  0.3153  0.3063
19310TIP3    H179345   5.868   6.082   5.421  0.0002 -0.0584 -0.5701
19310TIP3    H279346   5.917   6.222   5.450 -1.2226 -0.0397  1.5075
19311TIP3   OH279347   2.875   3.421   1.452  0.3318 -0.1923 -0.3401
19311TIP3    H179348   2.805   3.478   1.421 -1.3549 -1.6066  0.8079
19311TIP3    H279349   2.921   3.474   1.518  0.4449  0.7704 -1.1690
19312TIP3   OH279350   4.527   5.343  13.639  0.0450  0.2904  0.5420
19312TIP3    H179351   4.623   5.354  13.638  0.2018 -1.0692 -0.3118
19312TIP3    H279352   4.511   5.283  13.712 -0.1387  0.3489  0.5500
19313TIP3   OH279353   1.083   0.932  14.053 -0.6670  0.0519  0.1324
19313TIP3    H179354   1.111   1.022  14.037  1.4414 -0.4632  0.6860
19313TIP3    H279355   1.066   0.896  13.966 -2.2987  1.2150 -0.0338
19314TIP3   OH279356   1.716   1.538   3.166  0.4230 -0.1089  0.7754
19314TIP3    H179357   1.685   1.476   3.100 -0.7033 -0.3685  1.5378
19314TIP3    H279358   1.809   1.549   3.147  0.1935 -0.4829 -0.6119
19315TIP3   OH279359   4.205   4.006  12.688 -0.2498  0.1925  0.2581
19315TIP3    H179360   4.119   3.988  12.649 -0.8593  0.9271  1.2553
19315TIP3    H279361   4.266   3.999  12.614 -1.1294 -0.5608 -0.4186
19316TIP3   OH279362   3.411   3.303   2.780  0.1198  0.3319  0.4540
19316TIP3    H179363   3.353   3.232   2.808 -0.4687  0.8283  0.5114
19316TIP3    H279364   3.403   3.304   2.685 -0.5704  0.8973  0.5104
19317TIP3   OH279365   6.241   1.306   2.240  0.3418  0.2175 -0.4672
19317TIP3    H179366   6.307   1.347   2.297  0.5978 -0.0556 -0.5648
19317TIP3    H279367   6.189   1.380   2.207 -0.2991  0.3051  0.7325
19318TIP3   OH279368   6.013   1.923  16.186  0.2132  1.0891  0.0060
19318TIP3    H179369   6.072   1.866  16.138  0.2294  0.9417  0.2020
19318TIP3    H279370   5.987   1.872  16.263  0.6961  1.5731  0.4881
19319TIP3   OH279371   1.184   0.090  12.746  0.3805 -0.1129  0.0943
19319TIP3    H179372   1.261   0.041  12.775  0.8738  1.8272  2.2234
19319TIP3    H279373   1.130   0.097  12.825 -1.1244  0.1275 -0.9341
19320TIP3   OH279374   6.746   1.146   1.483 -0.0612  0.4029 -0.2479
19320TIP3    H179375   6.790   1.065   1.459  0.0936  0.1753  0.8199
19320TIP3    H279376   6.689   1.123   1.556 -1.4327  0.8473 -1.1309
19321TIP3   OH279377   4.835   3.819  16.350 -0.2827 -0.1186 -0.3237
19321TIP3    H179378   4.772   3.797  16.418  2.8792 -1.1276  2.3760
19321TIP3    H279379   4.819   3.754  16.281 -0.8967 -1.5825  1.1608
19322TIP3   OH279380   4.887   3.441   2.908  0.1542  1.1875  0.1496
19322TIP3    H179381   4.849   3.408   2.990  0.1729  0.3402 -0.1807
19322TIP3    H279382   4.974   3.403   2.905  0.2711  1.4758 -0.1142
19323TIP3   OH279383   4.107   0.098   0.455  0.2751 -0.2273 -0.2141
19323TIP3    H179384   4.048   0.161   0.413 -0.6692 -0.8769  0.1264
19323TIP3    H279385   4.189   0.147   0.466 -0.9506  1.5227  1.5662
19324TIP3   OH279386   0.904   1.258  14.292 -0.7697 -0.4609  0.1761
19324TIP3    H179387   0.835   1.213  14.340  0.4953 -1.6215  0.9614
19324TIP3    H279388   0.975   1.268  14.356 -0.6693  1.8432 -0.2522
19325TIP3   OH279389   5.260   5.567  12.914  0.7034 -0.3430  0.0292
19325TIP3    H179390   5.322   5.564  12.841  1.0965 -3.5738  0.3949
19325TIP3    H279391   5.174   5.568  12.872  0.9525  0.8414 -0.4704
19326TIP3   OH279392   4.588   4.596  14.014  0.9088 -0.3072 -0.0136
19326TIP3    H179393   4.613   4.660  13.947 -1.4013 -0.4374 -1.0506
19326TIP3    H279394   4.518   4.640  14.063 -0.9512 -2.1485 -0.9689
19327TIP3   OH279395   4.636   1.246  10.609 -0.1080 -0.3463  0.2353
19327TIP3    H179396   4.611   1.160  10.642  1.7876 -0.9230  0.1916
19327TIP3    H279397   4.600   1.308  10.673 -0.0953 -1.2417  1.1126
19328TIP3   OH279398   0.426   3.615   2.608  0.1045 -0.4334 -0.4462
19328TIP3    H179399   0.506   3.613   2.556 -0.0329 -2.8930 -0.6231
19328TIP3    H279400   0.369   3.551   2.566 -1.2822  0.0103  0.7382
19329TIP3   OH279401   2.971   4.507  13.968 -0.2936  0.5234  0.0868
19329TIP3    H179402   3.045   4.448  13.980  0.5550  1.6269  0.3435
19329TIP3    H279403   2.988   4.552  13.886 -0.5241  1.0000  0.2956
19330TIP3   OH279404   5.786   3.874   4.640  0.3250  0.0590  0.1041
19330TIP3    H179405   5.824   3.794   4.606  0.4543  0.6277 -1.1192
19330TIP3    H279406   5.861   3.929   4.664  0.2365 -0.3594  1.3838
19331TIP3   OH279407   0.239   5.353  16.489  0.1267  0.6439  0.0311
19331TIP3    H179408   0.159   5.391  16.526 -0.0126 -0.3252  0.7441
19331TIP3    H279409   0.298   5.345  16.563  0.7959  1.0985 -0.4433
19332TIP3   OH279410   4.036   0.406   1.910 -0.0390 -0.3708 -0.4109
19332TIP3    H179411   3.980   0.480   1.935  0.0281 -0.9217  1.4319
19332TIP3    H279412   4.126   0.441   1.917 -0.0870  0.1802 -2.2740
19333TIP3   OH279413   2.922   2.084   3.815 -0.0003 -0.5142 -0.1614
19333TIP3    H179414   2.993   2.020   3.814 -1.7622 -2.5455  1.1508
19333TIP3    H279415   2.846   2.036   3.849 -1.9564  1.6653 -1.2741
19334TIP3   OH279416   6.761   3.805   1.629 -0.2890  0.2372  0.3106
19334TIP3    H179417   6.731   3.714   1.637 -1.1790  0.4306 -0.6087
19334TIP3    H279418   6.680   3.856   1.624  0.1972  1.2091  2.0096
19335TIP3   OH279419   5.806   2.582  15.507  0.4971 -0.1117  0.0591
19335TIP3    H179420   5.817   2.506  15.449  0.5812 -0.2276  0.2269
19335TIP3    H279421   5.762   2.547  15.584 -0.9710  0.3322 -0.5696
19336TIP3   OH279422   5.396   3.335  12.299 -0.0295 -0.5275  0.7696
19336TIP3    H179423   5.354   3.288  12.227  0.2800 -0.1635  0.3520
19336TIP3    H279424   5.353   3.301  12.378 -0.4101 -0.8804  0.4103
19337TIP3   OH279425   2.710   6.098   5.216  0.1464  0.2359  0.1774
19337TIP3    H179426   2.669   6.051   5.289 -0.8679 -1.6789 -1.5639
19337TIP3    H279427   2.662   6.069   5.138  2.9583  0.0888 -1.6038
19338TIP3   OH279428   6.715   5.493   4.900  0.0636  0.0090  0.4222
19338TIP3    H179429   6.622   5.518   4.897 -0.4693 -1.8444  0.8356
19338TIP3    H279430   6.744   5.520   4.987  0.0980  1.2230  0.0368
19339TIP3   OH279431   1.014   0.456   2.176  0.7167  0.3942 -0.1445
19339TIP3    H179432   0.995   0.541   2.217  0.4404  0.6854 -0.8722
19339TIP3    H279433   0.986   0.392   2.242 -1.6539  0.8301 -0.6614
19340TIP3   OH279434   6.136   0.337   5.429 -0.3763  0.4161  0.1401
19340TIP3    H179435   6.210   0.374   5.476 -0.3434 -0.0286  0.4347
19340TIP3    H279436   6.115   0.256   5.476 -1.3268  0.7633  0.3197
19341TIP3   OH279437   0.682   0.763   1.397  0.2633 -0.1128  0.2357
19341TIP3    H179438   0.649   0.833   1.453  0.1235 -0.5360  0.6803
19341TIP3    H279439   0.769   0.743   1.431 -0.4009 -1.3733  1.2198
19342TIP3   OH279440   2.594   2.755  12.791  0.2057 -0.5424  0.0388
19342TIP3    H179441   2.583   2.662  12.774  0.9788 -0.7345  0.5406
19342TIP3    H279442   2.668   2.759  12.851  1.4032  0.5228 -1.4668
19343TIP3   OH279443   0.978   5.629   3.081  0.2656  0.3208 -0.3410
19343TIP3    H179444   1.042   5.622   3.010  1.7894  0.2718  1.0160
19343TIP3    H279445   0.982   5.544   3.125 -0.4223  0.4655  0.0114
19344TIP3   OH279446   5.372   2.476   4.180  0.1962  0.1433 -0.3827
19344TIP3    H179447   5.408   2.401   4.229  0.8208  0.8038  0.1764
19344TIP3    H279448   5.278   2.461   4.180  0.2592 -0.2873  0.3290
19345TIP3   OH279449   4.526   4.531   0.822  0.7087  0.7574  0.7531
19345TIP3    H179450   4.508   4.500   0.733  0.0041  2.1007  0.4079
19345TIP3    H279451   4.620   4.521   0.833  1.0378  2.0868 -0.7460
19346TIP3   OH279452   2.147   1.566   1.230 -0.0222  0.0793  0.1233
19346TIP3    H179453   2.097   1.489   1.202 -1.3970  1.1319 -0.3534
19346TIP3    H279454   2.225   1.530   1.272 -1.1192 -1.5843  0.7769
19347TIP3   OH279455   0.666   5.012   1.075 -0.6400 -0.4897  0.0847
19347TIP3    H179456   0.741   5.048   1.123 -0.2936  0.9011 -1.4463
19347TIP3    H279457   0.665   4.919   1.098  0.2157 -0.0855  1.8416
19348TIP3   OH279458   2.509   3.086  11.076  0.3341 -0.4991 -0.5377
19348TIP3    H179459   2.415   3.104  11.079  0.3394 -0.7373  1.3044
19348TIP3    H279460   2.550   3.168  11.105  0.6596 -0.7445 -0.3087
19349TIP3   OH279461   3.453   3.593   1.511 -0.3409 -0.2349  0.7080
19349TIP3    H179462   3.417   3.680   1.491 -1.7338 -0.1925  3.2560
19349TIP3    H279463   3.393   3.532   1.467 -1.1918  0.0001  1.5134
19350TIP3   OH279464   0.146   5.513   1.666 -0.8004 -0.5906 -0.0762
19350TIP3    H179465   0.138   5.544   1.756 -0.2919 -2.7199  0.7536
19350TIP3    H279466   0.202   5.435   1.673 -1.0463 -0.9871 -2.1804
19351TIP3   OH279467   2.626   6.589   1.172 -0.0997  0.3047 -0.0057
19351TIP3    H179468   2.561   6.524   1.144  0.9849 -0.0608 -1.7368
19351TIP3    H279469   2.600   6.670   1.128 -0.2722  0.5355  0.5220
19352TIP3   OH279470   2.390   1.182   1.890 -0.4349 -0.3356 -0.9620
19352TIP3    H179471   2.428   1.180   1.802  2.0338  0.7273  0.0465
19352TIP3    H279472   2.328   1.255   1.888 -1.2251 -1.0325 -2.1401
19353TIP3   OH279473   5.201   3.530   3.064  0.2061 -0.1141 -0.0399
19353TIP3    H179474   5.287   3.519   3.104 -1.5483 -0.1844  3.9739
19353TIP3    H279475   5.160   3.444   3.071 -0.1887 -0.1119 -2.0441
19354TIP3   OH279476   1.953   1.009  15.224 -0.1621 -0.0092 -0.0240
19354TIP3    H179477   1.926   0.921  15.197 -1.3448 -0.1276  1.4461
19354TIP3    H279478   1.911   1.067  15.162 -0.0643 -0.4439 -0.4997
19355TIP3   OH279479   5.769   2.542  14.748  0.3677 -0.0687  0.4760
19355TIP3    H179480   5.796   2.469  14.804 -1.8941 -1.1422  0.2277
19355TIP3    H279481   5.694   2.580  14.794  0.3054  0.8707 -0.3942
19356TIP3   OH279482   2.288   2.061   3.313 -0.6269  0.6171  0.1731
19356TIP3    H179483   2.358   2.126   3.313  0.0697 -0.1009 -0.7799
19356TIP3    H279484   2.331   1.980   3.342 -0.6123 -0.2569 -2.1843
19357TIP3   OH279485   0.262   4.243  12.850  0.5080 -0.4608 -0.2947
19357TIP3    H179486   0.168   4.249  12.870  0.5690  0.1966 -0.1748
19357TIP3    H279487   0.301   4.208  12.930  0.2968 -1.2262 -0.5280
19358TIP3   OH279488   5.736   6.674  11.740  0.0987  0.5870  0.0012
19358TIP3    H179489   5.762   6.605  11.801 -0.4039 -0.2322 -0.7104
19358TIP3    H279490   5.818   6.704  11.701  0.3803  0.8249  0.7534
19359TIP3   OH279491   6.117   3.734   0.577 -0.2781  0.9867 -0.1756
19359TIP3    H179492   6.107   3.708   0.486 -1.2347  0.9498 -0.0645
19359TIP3    H279493   6.133   3.652   0.624 -0.3425  0.9412 -0.2328
19360TIP3   OH279494   6.775   4.091  10.866 -0.1599  0.4486  0.2089
19360TIP3    H179495   6.765   3.997  10.879 -2.3652  0.3786 -1.7711
19360TIP3    H279496   6.824   4.120  10.944  2.5837 -2.6314 -0.2197
19361TIP3   OH279497   4.079   0.803   1.267  0.2466 -0.2387  0.3643
19361TIP3    H179498   4.144   0.795   1.336  0.8508  0.6356 -0.0976
19361TIP3    H279499   4.011   0.859   1.304  0.3316 -0.1759  0.4249
19362TIP3   OH279500   4.424   3.260   0.540 -0.4406  0.2800  0.0631
19362TIP3    H179501   4.384   3.174   0.546 -0.8776  0.4807  0.0517
19362TIP3    H279502   4.438   3.273   0.446  2.5831 -1.1225  0.2697
19363TIP3   OH279503   5.796   5.714  16.109  0.1746 -0.2154  0.3377
19363TIP3    H179504   5.838   5.774  16.170  1.0314 -0.7043  0.2290
19363TIP3    H279505   5.813   5.627  16.145 -0.3746 -0.4454  0.0580
19364TIP3   OH279506   6.528   5.525  15.373  0.4543  0.1293 -0.0392
19364TIP3    H179507   6.550   5.468  15.299 -0.9077  0.3385 -0.6184
19364TIP3    H279508   6.587   5.600  15.364  2.3205 -1.2068  0.7776
19365TIP3   OH279509   6.578   4.695   2.819  0.3868 -0.2935 -0.0455
19365TIP3    H179510   6.655   4.639   2.803  1.2092  0.2882  1.7342
19365TIP3    H279511   6.595   4.774   2.768  0.0012 -0.9848 -1.2614
19366TIP3   OH279512   3.512   6.085  11.470  0.4331 -0.5739 -0.4805
19366TIP3    H179513   3.484   6.058  11.383  1.5133 -1.5212 -0.5417
19366TIP3    H279514   3.598   6.125  11.457  0.7657 -1.0471  0.1854
19367TIP3   OH279515   1.513   0.282  17.211  0.5900 -0.7515 -0.0693
19367TIP3    H179516   1.591   0.252  17.257  1.3769 -1.1263 -1.6164
19367TIP3    H279517   1.512   0.377  17.224  1.1765 -0.7725  0.1321
19368TIP3   OH279518   0.853   4.154   5.182 -0.1346  0.1178 -0.4455
19368TIP3    H179519   0.918   4.201   5.236 -0.6471  0.9595 -0.5598
19368TIP3    H279520   0.796   4.111   5.246 -0.6405  0.9789 -0.3132
19369TIP3   OH279521   1.699   5.025   5.506  0.2592 -0.1675 -0.3885
19369TIP3    H179522   1.674   4.958   5.442 -0.4876 -0.6146  0.3626
19369TIP3    H279523   1.637   5.013   5.578  1.4758 -0.0746  0.6898
19370TIP3   OH279524   2.655   2.778  12.287 -0.4270  0.2512  0.0152
19370TIP3    H179525   2.577   2.830  12.269 -0.1783  0.5142 -0.2858
19370TIP3    H279526   2.724   2.842  12.301 -0.2404  0.0134  0.1900
19371TIP3   OH279527   2.750   5.361   0.366  0.3725  0.1018  0.2527
19371TIP3    H179528   2.779   5.330   0.451  0.7399 -0.3250 -0.0232
19371TIP3    H279529   2.787   5.449   0.358 -2.0744  1.2955  1.7484
19372TIP3   OH279530   5.568   2.800   2.233 -0.1694  0.2017 -0.2381
19372TIP3    H179531   5.557   2.788   2.139 -1.6264 -0.0717 -0.0494
19372TIP3    H279532   5.612   2.720   2.263 -1.4113 -0.5651 -0.4150
19373TIP3   OH279533   5.667   2.092   1.532  0.2629 -0.6504  0.1289
19373TIP3    H179534   5.627   2.109   1.617 -1.8728  0.5092 -1.0541
19373TIP3    H279535   5.661   1.997   1.521 -2.9325 -0.4647 -0.3131
19374TIP3   OH279536   0.194   4.945   2.165  0.0350  0.5954 -0.4573
19374TIP3    H179537   0.134   4.872   2.147 -0.7908  0.5442  2.3192
19374TIP3    H279538   0.280   4.911   2.141 -0.6914 -0.2612 -1.9649
19375TIP3   OH279539   5.743   6.248   2.488 -0.1640  0.0753  0.0778
19375TIP3    H179540   5.775   6.338   2.500 -0.7019  0.2789 -0.0286
19375TIP3    H279541   5.753   6.207   2.574  1.1496 -0.1068 -0.1422
19376TIP3   OH279542   3.818   4.395  10.749  0.2524  0.0653  0.2863
19376TIP3    H179543   3.803   4.302  10.769 -0.1526  0.1425  0.3427
19376TIP3    H279544   3.859   4.394  10.663 -0.8261 -0.1130 -0.2350
19377TIP3   OH279545   4.785   5.006  16.444  0.0856 -0.4768  0.1009
19377TIP3    H179546   4.786   5.075  16.378 -0.3098 -0.6476 -0.0823
19377TIP3    H279547   4.731   5.042  16.515 -0.1940 -0.6427 -0.0333
19378TIP3   OH279548   3.547   0.294   0.491 -0.3414 -0.2519  0.1346
19378TIP3    H179549   3.593   0.377   0.504 -1.6922  0.5726 -0.2562
19378TIP3    H279550   3.611   0.237   0.450  1.0380  0.1495  1.6604
19379TIP3   OH279551   3.106   6.156   5.965  0.3997 -0.0701  0.0004
19379TIP3    H179552   3.143   6.084   5.913  1.7554  0.3500  0.3575
19379TIP3    H279553   3.127   6.235   5.915  0.3566  0.2165  0.4275
19380TIP3   OH279554   0.045   2.127  16.015 -0.1891 -0.0477 -0.5333
19380TIP3    H179555   0.040   2.109  16.109  2.9579 -0.7372 -0.4303
19380TIP3    H279556   0.089   2.212  16.009  0.8374 -0.6193 -1.3753
19381TIP3   OH279557   0.035   1.449   5.438 -0.3787  0.1493  0.2218
19381TIP3    H179558   0.098   1.421   5.504 -0.3328  0.6524  0.3911
19381TIP3    H279559  -0.051   1.435   5.479 -0.3914 -0.7857 -0.1079
19382TIP3   OH279560   3.882   4.109   2.998  0.2502 -0.2132  0.4856
19382TIP3    H179561   3.905   4.198   3.023 -0.8422  0.4861 -0.9820
19382TIP3    H279562   3.788   4.102   3.015  0.5667 -1.5291  1.8596
19383TIP3   OH279563   3.676   4.934  11.886  0.3129  0.3371 -0.9314
19383TIP3    H179564   3.706   4.993  11.956  1.2355  0.4911 -1.4387
19383TIP3    H279565   3.643   4.858  11.932  1.8525  0.0037 -0.3227
19384TIP3   OH279566   3.602   2.136   5.748 -0.5023  0.5130  0.3886
19384TIP3    H179567   3.588   2.071   5.817 -0.1957  0.4235  0.3659
19384TIP3    H279568   3.553   2.102   5.673  0.8351 -0.4167 -0.0708
19385TIP3   OH279569   2.944   6.613  15.147 -0.1750 -0.5233 -0.1349
19385TIP3    H179570   2.859   6.624  15.190  0.3418 -1.1138  1.0742
19385TIP3    H279571   3.001   6.578  15.216  0.5801 -1.8498 -1.3902
19386TIP3   OH279572   2.441   5.236  14.933 -0.2372  0.2556 -0.0801
19386TIP3    H179573   2.395   5.313  14.900  0.7301  0.8353 -0.0671
19386TIP3    H279574   2.462   5.257  15.024  0.8555  0.3491 -0.3561
19387TIP3   OH279575   5.554   1.379   4.566  0.1458  0.5881  0.4779
19387TIP3    H179576   5.484   1.319   4.540 -0.4940  0.9364  1.3598
19387TIP3    H279577   5.610   1.385   4.489 -1.2669  0.9806 -0.5344
19388TIP3   OH279578   0.674   3.386  16.621  0.4412  0.0768  0.4818
19388TIP3    H179579   0.639   3.299  16.642 -0.0016  0.1924  0.2310
19388TIP3    H279580   0.612   3.447  16.660  0.4867  0.2826  0.2368
19389TIP3   OH279581   5.882   6.695   3.476  0.0099  0.2355  0.8869
19389TIP3    H179582   5.953   6.718   3.537  0.8678 -0.6383  0.2457
19389TIP3    H279583   5.924   6.637   3.412 -1.0778  0.4650 -0.0479
19390TIP3   OH279584   3.396   6.337  12.681  0.5243 -0.0211 -0.0028
19390TIP3    H179585   3.462   6.326  12.612  0.8542 -0.3707  0.3663
19390TIP3    H279586   3.430   6.287  12.755 -0.9034 -1.4960 -0.3115
19391TIP3   OH279587   6.173   2.753   3.087 -0.2827 -0.2086  0.3409
19391TIP3    H179588   6.138   2.671   3.122 -1.9973  0.0102 -0.7911
19391TIP3    H279589   6.256   2.728   3.048 -0.3670 -1.2467  0.7907
19392TIP3   OH279590   5.707   0.629  14.221  0.2887 -0.0960  0.7505
19392TIP3    H179591   5.666   0.577  14.290  0.7522  0.2470  1.2885
19392TIP3    H279592   5.793   0.590  14.209 -0.2297 -0.9021 -0.4798
19393TIP3   OH279593   1.934   3.682  12.409 -0.5106  0.1189  0.1578
19393TIP3    H179594   2.012   3.706  12.359  0.8582 -2.0764  1.1686
19393TIP3    H279595   1.889   3.764  12.424  0.9881  1.2804 -1.4764
19394TIP3   OH279596   6.339   0.475  14.415  0.3882 -0.6081 -0.4561
19394TIP3    H179597   6.343   0.382  14.392 -1.6867 -1.2645  1.5878
19394TIP3    H279598   6.250   0.501  14.394  0.3520  0.3651  0.8394
19395TIP3   OH279599   4.255   0.535   5.749 -0.8222 -0.2931 -0.2655
19395TIP3    H179600   4.209   0.486   5.818 -0.2044 -0.2793  0.1605
19395TIP3    H279601   4.319   0.588   5.797 -0.8199  0.1888 -0.8074
19396TIP3   OH279602   2.059   4.465   3.998 -0.3733  0.0647 -0.4828
19396TIP3    H179603   1.976   4.431   4.030  0.5973 -0.6821  1.2627
19396TIP3    H279604   2.037   4.553   3.966 -1.7204  0.0970  0.4717
19397TIP3   OH279605   0.135   3.537   1.206  0.2654 -0.0444  0.1770
19397TIP3    H179606   0.117   3.573   1.119  0.6515 -0.6487 -0.1531
19397TIP3    H279607   0.205   3.592   1.241  0.5180 -0.1660 -0.1332
19398TIP3   OH279608   5.799   2.529  15.034 -0.3450  0.3872 -0.4184
19398TIP3    H179609   5.821   2.621  15.022  0.2743  0.6747  2.5649
19398TIP3    H279610   5.709   2.529  15.067  0.3046  0.0788  1.4347
19399TIP3   OH279611   3.985   5.901  15.151  0.0772 -0.4371 -0.4295
19399TIP3    H179612   3.988   5.885  15.245 -1.2417  0.8979 -0.1322
19399TIP3    H279613   3.930   5.980  15.142  1.2909  0.2368 -2.2052
19400TIP3   OH279614   2.312   0.966   5.371 -0.1087 -0.3433  0.5241
19400TIP3    H179615   2.235   0.942   5.319  1.5442  0.0437 -2.2180
19400TIP3    H279616   2.385   0.961   5.309  1.7620  1.4715  2.5035
19401TIP3   OH279617   3.474   1.117   4.886 -0.2193  0.1143 -0.3699
19401TIP3    H179618   3.488   1.042   4.827  0.4882 -1.5830  1.8638
19401TIP3    H279619   3.560   1.158   4.892  0.0929 -0.6762  0.7106
19402TIP3   OH279620   0.230   2.668   3.417  0.0428 -0.0714  0.5386
19402TIP3    H179621   0.235   2.693   3.510  1.0975  0.0225  0.4667
19402TIP3    H279622   0.242   2.573   3.417 -1.6201 -0.2905  0.6247
19403TIP3   OH279623   2.281   5.472  13.075  0.6720 -0.0158 -0.1363
19403TIP3    H179624   2.331   5.434  13.147  0.6929  0.6324  0.1942
19403TIP3    H279625   2.345   5.524  13.027 -0.1558  2.7502  1.6495
19404TIP3   OH279626   0.281   4.443  11.898  0.4426 -0.1037 -0.0951
19404TIP3    H179627   0.369   4.480  11.904  0.3062 -0.0229  1.4440
19404TIP3    H279628   0.290   4.371  11.835  1.7936 -0.6512  0.7153
19405TIP3   OH279629   5.972   1.115  15.847  0.6528 -0.1301  0.4457
19405TIP3    H179630   5.988   1.209  15.838 -1.4977  0.2768  0.5353
19405TIP3    H279631   5.893   1.110  15.900  0.5437 -1.9986  0.1215
19406TIP3   OH279632   4.168   0.623   4.387  0.2532  0.1744 -0.1543
19406TIP3    H179633   4.196   0.573   4.310 -0.4702  0.2466 -0.4730
19406TIP3    H279634   4.083   0.660   4.361 -0.3137 -0.3430  0.9221
19407TIP3   OH279635   1.988   0.174  15.497  0.0236  0.3131  0.5390
19407TIP3    H179636   1.897   0.204  15.493  0.4041  1.5636  0.9445
19407TIP3    H279637   2.019   0.202  15.584  0.1706 -1.9501  1.2431
19408TIP3   OH279638   2.790   3.684  17.124  0.3391 -0.1566  0.2357
19408TIP3    H179639   2.848   3.654  17.054  1.0821 -1.0007  1.2000
19408TIP3    H279640   2.703   3.687  17.085  1.0990  1.6534 -1.3945
19409TIP3   OH279641   3.469   2.995  11.162  0.4609 -0.2389 -0.7717
19409TIP3    H179642   3.448   2.990  11.069  0.0179 -1.5408 -0.6147
19409TIP3    H279643   3.548   2.943  11.172  1.2493  0.9741 -0.6264
19410TIP3   OH279644   0.216   0.407  14.641 -0.1488  0.3812 -0.3433
19410TIP3    H179645   0.305   0.390  14.672  0.1164  0.6036 -0.9639
19410TIP3    H279646   0.190   0.489  14.683 -1.4594 -1.4972  2.7297
19411TIP3   OH279647   2.280   3.787   4.364  1.0169 -0.1193 -0.7575
19411TIP3    H179648   2.371   3.811   4.346  1.3496 -0.1381  0.8685
19411TIP3    H279649   2.243   3.865   4.406  0.9298 -0.9401  0.6967
19412TIP3   OH279650   6.167   0.264   4.724 -0.0945  0.2106 -0.0889
19412TIP3    H179651   6.192   0.354   4.704  2.3247 -0.5333 -0.6728
19412TIP3    H279652   6.228   0.237   4.793  0.6949 -1.6697 -1.4706
19413TIP3   OH279653   2.702   4.439  16.045 -0.0010  0.5840  0.0163
19413TIP3    H179654   2.654   4.363  16.079  0.9666 -1.2118 -2.4337
19413TIP3    H279655   2.783   4.441  16.097 -0.8512  1.0809  1.3342
19414TIP3   OH279656   4.641   0.339  15.228  0.5717  0.1107 -0.8336
19414TIP3    H179657   4.675   0.299  15.308 -0.2384 -0.3261 -0.7016
19414TIP3    H279658   4.707   0.319  15.161  1.2180  0.4179 -0.2976
19415TIP3   OH279659   5.777   1.858   5.506 -0.0048  0.0743 -0.4578
19415TIP3    H179660   5.723   1.912   5.564 -0.4419  0.5162 -1.2656
19415TIP3    H279661   5.745   1.879   5.418 -0.4171 -1.7795 -0.7632
19416TIP3   OH279662   3.190   2.873  14.514 -0.1915 -0.0915  0.2929
19416TIP3    H179663   3.211   2.781  14.528  1.2284  0.2110  0.1891
19416TIP3    H279664   3.262   2.907  14.461 -1.4466  0.7226 -0.9335
19417TIP3   OH279665   4.715   1.216   6.282 -0.1639  0.3187 -0.1907
19417TIP3    H179666   4.712   1.143   6.344 -2.1658  0.5999  0.0926
19417TIP3    H279667   4.631   1.261   6.295 -0.2069  0.9319 -2.4322
19418TIP3   OH279668   4.137   4.441  16.728 -0.0111 -0.1279  0.3003
19418TIP3    H179669   4.065   4.390  16.691  0.2792 -0.8633  0.7418
19418TIP3    H279670   4.216   4.401  16.691  0.1689  0.8553 -0.4114
19419TIP3   OH279671   1.178   4.450   3.002  0.3228  0.3954 -0.1671
19419TIP3    H179672   1.246   4.517   3.013  1.0482 -0.5299  0.9982
19419TIP3    H279673   1.223   4.367   3.012 -1.1369 -0.2276  1.7360
19420TIP3   OH279674   1.681   5.107  17.038  0.5704  0.2685 -0.1470
19420TIP3    H179675   1.688   5.117  16.943  2.6615  0.6875  0.0427
19420TIP3    H279676   1.634   5.185  17.067 -0.7733 -0.2337 -0.8977
19421TIP3   OH279677   4.888   1.957   2.223  0.1769 -0.0818  0.4763
19421TIP3    H179678   4.896   1.909   2.140 -1.3573  0.9222 -0.2973
19421TIP3    H279679   4.893   2.049   2.198 -1.9655  0.2865  1.2453
19422TIP3   OH279680   2.824   5.291   0.610  0.2641  0.0609 -0.5288
19422TIP3    H179681   2.789   5.213   0.654  0.3659  0.2037 -0.1929
19422TIP3    H279682   2.787   5.364   0.659  0.4519  0.2193 -0.6261
19423TIP3   OH279683   5.693   4.274   0.596  0.1191  0.2013 -0.0601
19423TIP3    H179684   5.601   4.295   0.615 -0.1884 -1.6666  0.5279
19423TIP3    H279685   5.689   4.193   0.546  1.5527 -0.8163  1.4430
19424TIP3   OH279686   3.541   1.392  14.326 -1.1569 -0.3468  0.5922
19424TIP3    H179687   3.529   1.374  14.419  1.7769 -0.3297  1.0374
19424TIP3    H279688   3.619   1.341  14.302 -0.4744  1.4950 -1.2537
19425TIP3   OH279689   6.170   5.798  11.622  0.2289  0.3153 -0.5113
19425TIP3    H179690   6.229   5.777  11.695 -0.0353  0.5685 -0.2213
19425TIP3    H279691   6.088   5.756  11.646 -0.7177  2.8022  0.7293
19426TIP3   OH279692   6.138   3.754   3.191 -0.2056 -0.1422 -0.1305
19426TIP3    H179693   6.229   3.781   3.184 -0.6087  1.2232 -0.3253
19426TIP3    H279694   6.088   3.832   3.165 -1.4138 -0.9595 -0.2887
19427TIP3   OH279695   5.009   2.980  11.364  0.5446 -0.1687  0.2376
19427TIP3    H179696   4.983   3.042  11.296  0.9669  0.8740  1.0141
19427TIP3    H279697   5.082   2.931  11.326  0.9874  0.6340  0.0639
19428TIP3   OH279698   0.155   1.032   4.052  0.3591  0.1834  0.0082
19428TIP3    H179699   0.162   1.057   3.959 -1.7540 -0.3122 -0.2959
19428TIP3    H279700   0.214   0.957   4.060 -0.0137 -0.2492 -1.1179
19429TIP3   OH279701   4.414   2.363  15.957 -0.3056  0.5224  0.1586
19429TIP3    H179702   4.387   2.271  15.965 -0.1496  0.4285 -0.3622
19429TIP3    H279703   4.503   2.365  15.992  0.1052  0.2571 -0.8706
19430TIP3   OH279704   2.068   0.956  14.106 -0.2337 -0.8958  0.4177
19430TIP3    H179705   2.058   0.960  14.010 -1.7229 -1.8592  0.5074
19430TIP3    H279706   2.150   0.909  14.119 -0.0148 -0.7536 -0.3976
19431TIP3   OH279707   3.868   4.397  11.500 -0.3155 -0.2488  0.8122
19431TIP3    H179708   3.876   4.406  11.405 -0.3944  0.2621  0.8489
19431TIP3    H279709   3.913   4.474  11.535 -1.0125  0.0034  1.1618
19432TIP3   OH279710   0.536   1.190   1.164  0.1516 -0.3105 -0.3161
19432TIP3    H179711   0.498   1.222   1.083  0.2748 -0.5844 -0.4821
19432TIP3    H279712   0.507   1.252   1.231  0.7362  0.3882 -0.7018
19433TIP3   OH279713   0.741   3.373  12.019  0.1889 -0.9283  0.0976
19433TIP3    H179714   0.754   3.468  12.021 -1.4985 -0.6841 -0.1379
19433TIP3    H279715   0.739   3.352  11.925  3.0543 -1.5739  0.1390
19434TIP3   OH279716   4.048   2.942   1.343 -0.1345 -0.4834  0.2261
19434TIP3    H179717   4.105   2.888   1.398  2.2372  1.6037 -0.0979
19434TIP3    H279718   4.021   3.013   1.400  2.0872  1.5252 -1.1097
19435TIP3   OH279719   0.508   3.853  15.482 -0.0417 -0.2060  0.4759
19435TIP3    H179720   0.534   3.942  15.503  0.5005 -0.1837 -0.2675
19435TIP3    H279721   0.586   3.800  15.498 -0.1776 -0.4579  0.3183
19436TIP3   OH279722   5.245   2.537   4.675 -0.6113 -0.0894  0.8307
19436TIP3    H179723   5.272   2.581   4.594 -2.3806  0.1079  0.3298
19436TIP3    H279724   5.269   2.597   4.745 -0.3811  0.3754  0.3536
19437TIP3   OH279725   3.827   5.121  10.899 -0.2432  0.2732 -0.1496
19437TIP3    H179726   3.895   5.069  10.943 -1.5155 -2.5318 -1.3560
19437TIP3    H279727   3.872   5.157  10.822  0.5489  0.6326  0.4683
19438TIP3   OH279728   5.227   2.798  11.350  0.0922 -0.3119 -0.0023
19438TIP3    H179729   5.300   2.860  11.361  0.7827 -0.9654 -0.7910
19438TIP3    H279730   5.254   2.743  11.276 -0.4383 -1.6457  0.7753
19439TIP3   OH279731   4.686   0.697  12.879 -0.7549  0.1788  0.5780
19439TIP3    H179732   4.615   0.644  12.842 -1.6884  1.3769  0.6204
19439TIP3    H279733   4.754   0.697  12.811 -1.4323  0.2964 -0.1148
19440TIP3   OH279734   4.676   1.221  12.202 -0.1752 -0.2765 -0.2657
19440TIP3    H179735   4.626   1.173  12.136  0.6907 -1.1709 -0.2788
19440TIP3    H279736   4.646   1.312  12.193 -0.7240 -0.5496 -1.2637
19441TIP3   OH279737   1.890   3.499   4.516  0.6790  0.3279  0.2735
19441TIP3    H179738   1.816   3.473   4.571  1.5352  0.6301  1.5799
19441TIP3    H279739   1.968   3.477   4.568  1.5027  0.5656 -0.8381
19442TIP3   OH279740   0.056   0.240   2.413 -0.1651 -0.4054  0.1248
19442TIP3    H179741   0.011   0.157   2.401 -0.8380 -0.0991  0.4571
19442TIP3    H279742  -0.012   0.299   2.448 -0.1984  0.8328 -1.9623
19443TIP3   OH279743   3.813   2.513  17.018  0.3194  0.5864  0.2294
19443TIP3    H179744   3.836   2.453  16.947  0.1482 -0.1004  0.7510
19443TIP3    H279745   3.800   2.597  16.974  2.2521  0.6450 -0.2756
19444TIP3   OH279746   0.466   4.024   3.064 -0.3556  0.2812 -0.1106
19444TIP3    H179747   0.478   4.117   3.084  0.6311  0.6503 -2.1999
19444TIP3    H279748   0.555   3.991   3.054 -0.7352 -0.6469 -0.4318
19445TIP3   OH279749   5.632   0.928  16.712 -0.1402 -0.3773  0.2098
19445TIP3    H179750   5.601   0.843  16.681 -0.8315 -0.1571  0.2778
19445TIP3    H279751   5.594   0.992  16.651  1.8013 -0.2379 -0.8782
19446TIP3   OH279752   2.186   2.069  13.555 -0.0621  0.1693 -0.1987
19446TIP3    H179753   2.186   2.117  13.472 -1.6354  0.2955 -0.1559
19446TIP3    H279754   2.145   1.985  13.533 -1.3689  0.5769  0.6336
19447TIP3   OH279755   1.718   3.918  14.622 -0.4683 -0.1863  0.0891
19447TIP3    H179756   1.651   3.952  14.680  1.3658  1.6195  1.2239
19447TIP3    H279757   1.754   3.842  14.669 -0.9347 -0.4654 -0.0030
19448TIP3   OH279758   4.409   0.783   3.076  0.4249 -0.1652 -0.4528
19448TIP3    H179759   4.352   0.839   3.129  0.4590 -0.2926 -0.2815
19448TIP3    H279760   4.480   0.758   3.135  0.3602 -0.4647 -0.5018
19449TIP3   OH279761   4.291   4.684   3.516 -0.3469 -0.0218 -0.2890
19449TIP3    H179762   4.322   4.616   3.575  2.2962  1.6398  0.3078
19449TIP3    H279763   4.195   4.678   3.519 -0.1503 -3.1759  0.3254
19450TIP3   OH279764   4.240   6.351  15.954  0.0453 -0.2102 -0.3172
19450TIP3    H179765   4.332   6.348  15.931 -0.0378 -0.2125 -0.6533
19450TIP3    H279766   4.231   6.288  16.026  0.5278  0.6882  0.5242
19451TIP3   OH279767   4.197   1.532  16.232  0.3008 -0.3450  0.2687
19451TIP3    H179768   4.252   1.456  16.250  1.2056 -0.7263 -3.6891
19451TIP3    H279769   4.239   1.575  16.158 -2.5697  1.5692 -0.3200
19452TIP3   OH279770   6.228   1.621  16.705  0.2098  0.1648 -0.1011
19452TIP3    H179771   6.288   1.695  16.700 -0.2465  0.4419 -1.5764
19452TIP3    H279772   6.230   1.595  16.797  0.3490  2.0271  0.4399
19453TIP3   OH279773   0.511   1.613   3.603  0.0509  0.0987 -0.0257
19453TIP3    H179774   0.477   1.545   3.660  0.4002 -0.7168 -0.7832
19453TIP3    H279775   0.457   1.608   3.524  0.6139  0.1466 -0.4197
19454TIP3   OH279776   1.306   2.277  11.969 -0.0780  0.0494 -0.8429
19454TIP3    H179777   1.279   2.296  12.059 -0.7130 -1.6012 -0.6751
19454TIP3    H279778   1.402   2.285  11.971 -0.1136  0.3553 -0.1093
19455TIP3   OH279779   0.297   4.525   2.686 -0.1995  0.4894  0.0398
19455TIP3    H179780   0.293   4.431   2.671 -1.3997  0.4723  0.4295
19455TIP3    H279781   0.341   4.534   2.771 -1.2741  0.2192  0.6318
19456TIP3   OH279782   6.490   1.423   4.672 -0.1335  0.3621 -0.3081
19456TIP3    H179783   6.505   1.513   4.644 -0.1402  0.4907  0.0919
19456TIP3    H279784   6.575   1.393   4.703 -0.3778  0.6174  0.6341
19457TIP3   OH279785   5.752   5.420   6.420 -0.0224 -0.1075  0.3480
19457TIP3    H179786   5.759   5.382   6.508 -1.4110 -1.2669 -0.0147
19457TIP3    H279787   5.718   5.348   6.367  0.5033  0.6889 -1.0666
19458TIP3   OH279788   4.843   5.920   4.832 -0.3037 -0.3403  0.6248
19458TIP3    H179789   4.761   5.968   4.821  0.2705  0.1798 -1.5870
19458TIP3    H279790   4.861   5.883   4.746  2.3050  0.3897  0.8045
19459TIP3   OH279791   5.241   4.152   5.045  0.2576 -0.2976 -0.5410
19459TIP3    H179792   5.191   4.218   5.092  2.0874  1.2336 -0.6710
19459TIP3    H279793   5.323   4.145   5.093  0.9272 -0.9329 -1.7422
19460TIP3   OH279794   3.678   0.578  13.254 -0.0079 -0.2837 -0.4249
19460TIP3    H179795   3.611   0.643  13.234 -0.5143 -1.4509 -2.7453
19460TIP3    H279796   3.653   0.542  13.339 -0.4701  1.5510  0.2412
19461TIP3   OH279797   3.442   0.570   2.774  0.2427 -0.3514 -0.2967
19461TIP3    H179798   3.354   0.575   2.736 -0.0702  2.4269  0.6146
19461TIP3    H279799   3.499   0.605   2.705  0.6089 -1.9519 -0.8077
19462TIP3   OH279800   1.872   3.232  14.154 -0.3201 -0.9931  0.2111
19462TIP3    H179801   1.937   3.201  14.217  0.4704 -1.6317 -0.9082
19462TIP3    H279802   1.872   3.327  14.165  0.9127 -0.9742  0.1373
19463TIP3   OH279803   5.871   3.286   3.353  0.4527 -0.3305 -0.2998
19463TIP3    H179804   5.950   3.317   3.308 -0.8138  2.2132 -0.8400
19463TIP3    H279805   5.845   3.207   3.305  2.5077 -1.0773 -0.2467
19464TIP3   OH279806   6.608   3.073  11.418  0.2062 -0.5052 -0.0972
19464TIP3    H179807   6.600   3.146  11.480  2.7382 -1.0515  0.9242
19464TIP3    H279808   6.597   2.994  11.471 -2.6197 -0.9273 -1.2202
19465TIP3   OH279809   2.722   5.950  15.701 -0.5875 -0.2226 -0.0469
19465TIP3    H179810   2.810   5.973  15.732  0.1352 -0.9363 -1.4906
19465TIP3    H279811   2.664   5.977  15.772  0.8445 -0.2685  1.1865
19466TIP3   OH279812   6.566   1.346   0.415 -0.0861 -0.6156  0.0519
19466TIP3    H179813   6.596   1.380   0.331 -0.5916 -1.6728 -0.5604
19466TIP3    H279814   6.647   1.332   0.465  0.1008  2.4661  0.7386
19467TIP3   OH279815   2.908   1.310   1.018  0.1783 -0.6269 -0.2557
19467TIP3    H179816   2.899   1.214   1.021  4.0422 -1.0442  1.0576
19467TIP3    H279817   2.980   1.325   0.956  0.0919  1.3647  0.1141
19468TIP3   OH279818   3.110   4.495  13.446  0.1413  0.0739 -0.1352
19468TIP3    H179819   3.187   4.444  13.470 -0.6790 -1.6184 -0.9729
19468TIP3    H279820   3.089   4.467  13.357 -0.3086  1.9361 -0.6418
19469TIP3   OH279821   4.875   0.470   3.976 -0.6859  0.5162  0.2276
19469TIP3    H179822   4.900   0.458   3.884  2.2388 -1.6142  1.2056
19469TIP3    H279823   4.780   0.462   3.976 -0.8965  2.1910 -2.8326
19470TIP3   OH279824   2.850   3.933   5.977  0.1960 -0.4215  0.0016
19470TIP3    H179825   2.757   3.954   5.971  0.6776  1.6041 -0.9173
19470TIP3    H279826   2.889   4.009   6.021  1.4790 -1.0361 -0.0571
19471TIP3   OH279827   3.660   0.363  11.520  0.1049 -0.1819  0.0982
19471TIP3    H179828   3.628   0.421  11.450  0.9084 -0.2168 -0.3065
19471TIP3    H279829   3.626   0.402  11.600  2.2015  1.9667  0.0046
19472TIP3   OH279830   1.908   5.057   2.990  0.2503  0.1320 -0.1744
19472TIP3    H179831   1.943   4.976   2.953 -0.3258  0.4679 -1.4720
19472TIP3    H279832   1.899   5.116   2.915  1.6391  1.7615  0.9040
19473TIP3   OH279833   5.845   3.400   0.130  0.1889 -0.4382 -0.3961
19473TIP3    H179834   5.845   3.333   0.199  1.3969 -0.8349 -0.7684
19473TIP3    H279835   5.828   3.351   0.050 -0.6011 -0.0596 -0.4625
19474TIP3   OH279836   6.722   1.984  11.065 -0.3070  0.0085  0.1543
19474TIP3    H179837   6.772   2.037  11.127 -0.6389 -0.2374  0.6416
19474TIP3    H279838   6.768   1.994  10.982  0.5561 -0.2400  0.5978
19475TIP3   OH279839   2.207   3.582   1.328 -0.1236  0.2699 -0.3277
19475TIP3    H179840   2.171   3.526   1.397  2.0130 -1.1690 -0.3650
19475TIP3    H279841   2.172   3.669   1.348  0.3799 -0.1436  2.4948
19476TIP3   OH279842   3.212   0.678  15.112  0.0282 -0.3106  0.3715
19476TIP3    H179843   3.169   0.629  15.182  0.3256  1.3227  1.7497
19476TIP3    H279844   3.300   0.694  15.145  0.4594 -0.3379 -0.7767
19477TIP3   OH279845   2.206   4.651   4.408  0.0416 -0.3729 -0.1097
19477TIP3    H179846   2.246   4.573   4.447  2.2317  1.0263  0.4739
19477TIP3    H279847   2.277   4.696   4.363 -1.2242  1.2642 -0.5362
19478TIP3   OH279848   3.821   2.670   3.781  0.5167  0.1614 -0.2000
19478TIP3    H179849   3.753   2.723   3.822  0.6776  0.6195 -0.5206
19478TIP3    H279850   3.898   2.682   3.837  0.3891 -0.2047  0.0560
19479TIP3   OH279851   5.533   6.730  12.050  0.3825  0.5513 -0.0788
19479TIP3    H179852   5.448   6.768  12.029  0.8950  3.0939  2.2616
19479TIP3    H279853   5.580   6.729  11.967 -1.0050  1.4597 -0.8938
19480TIP3   OH279854   3.409   2.117   6.131 -0.3106 -0.3944  0.0136
19480TIP3    H179855   3.390   2.211   6.120 -0.7754 -0.4479  0.3572
19480TIP3    H279856   3.359   2.091   6.208 -1.5684 -1.3243 -1.0912
19481TIP3   OH279857   1.707   2.490   2.445  0.6464  0.2809  0.1735
19481TIP3    H179858   1.760   2.411   2.437 -0.8439 -0.8192  0.7550
19481TIP3    H279859   1.683   2.512   2.355  0.0786 -0.6439  0.0885
19482TIP3   OH279860   3.977   1.581  15.347  0.0842  0.4890 -0.1406
19482TIP3    H179861   3.997   1.564  15.439 -2.4281  2.9027  0.9363
19482TIP3    H279862   4.001   1.672  15.333 -0.3487  0.3902 -1.6617
19483TIP3   OH279863   5.289   1.427   5.069 -0.1712  0.7279 -0.6664
19483TIP3    H179864   5.207   1.476   5.076  0.2217  1.2607  0.3927
19483TIP3    H279865   5.312   1.433   4.976 -1.6479  0.0345 -1.0944
19484TIP3   OH279866   5.692   0.699  11.373 -0.5913  0.4904 -0.0218
19484TIP3    H179867   5.721   0.778  11.327 -0.5732 -1.4538 -3.5645
19484TIP3    H279868   5.767   0.672  11.426 -0.0123  1.9292 -0.1025
19485TIP3   OH279869   5.434   4.145   5.234  0.3652  0.5690  0.0489
19485TIP3    H179870   5.522   4.151   5.271  0.5044  0.2512 -0.2284
19485TIP3    H279871   5.378   4.127   5.309  0.4889  1.1125  0.2789
19486TIP3   OH279872   4.186   2.300  16.277  0.5293 -0.4023  0.5964
19486TIP3    H179873   4.277   2.320  16.294  0.0045  1.6251  1.1236
19486TIP3    H279874   4.187   2.248  16.196  2.0980  0.1138  0.2781
19487TIP3   OH279875   1.745   3.752  15.800  0.5979  0.1050  0.0428
19487TIP3    H179876   1.704   3.838  15.814 -0.3912 -0.2551 -0.6107
19487TIP3    H279877   1.675   3.689  15.818  1.1765 -0.5476  0.0138
19488TIP3   OH279878   6.278   2.114  14.454  0.4056 -0.4473 -0.2825
19488TIP3    H179879   6.183   2.106  14.455  0.4707 -1.2811  1.5791
19488TIP3    H279880   6.297   2.182  14.519  1.1585 -1.3199  0.4174
19489TIP3   OH279881   3.708   0.688  16.647  0.2534 -0.6539 -0.0385
19489TIP3    H179882   3.691   0.599  16.614  1.4584 -0.9410  0.0923
19489TIP3    H279883   3.704   0.744  16.569 -5.2131 -0.0807  0.4758
19490TIP3   OH279884   2.179   2.905  16.958  0.0225 -0.5762  0.0135
19490TIP3    H179885   2.101   2.917  17.012 -0.5900 -0.0831 -0.9560
19490TIP3    H279886   2.235   2.980  16.979 -0.1116 -0.5120  0.1404
19491TIP3   OH279887   3.804   5.730  15.012 -0.1354  0.1083  0.2780
19491TIP3    H179888   3.772   5.777  14.936  0.8730 -1.0158 -0.8637
19491TIP3    H279889   3.879   5.782  15.042  1.2434 -0.9936 -1.2387
19492TIP3   OH279890   4.721   3.426   0.600 -0.0462 -0.2579  0.1035
19492TIP3    H179891   4.706   3.358   0.535 -1.3519 -2.2867  2.4051
19492TIP3    H279892   4.811   3.414   0.628 -0.5206 -1.6146  1.0902
19493TIP3   OH279893   2.904   4.899   5.771  0.2804  0.2159  0.0256
19493TIP3    H179894   2.920   4.987   5.804 -1.1880  1.1500 -1.7336
19493TIP3    H279895   2.837   4.909   5.704  0.2468 -2.2107 -0.3610
19494TIP3   OH279896   6.525   4.389   2.133  0.0922 -0.6516  0.1804
19494TIP3    H179897   6.526   4.296   2.107  0.5110 -0.3329 -1.0040
19494TIP3    H279898   6.496   4.435   2.054  0.3977  0.2761  0.6070
19495TIP3   OH279899   2.725   3.413  13.714 -0.5168 -0.1125 -0.6460
19495TIP3    H179900   2.778   3.398  13.791 -1.0829 -0.7115 -0.3627
19495TIP3    H279901   2.769   3.365  13.644  0.7355  1.5365 -1.0173
19496TIP3   OH279902   4.712   4.496   2.114 -0.1969 -0.0490  0.2490
19496TIP3    H179903   4.669   4.411   2.104 -1.0490  0.5246 -1.2481
19496TIP3    H279904   4.709   4.514   2.208 -2.2908 -0.5249  0.2958
19497TIP3   OH279905   3.005   4.520   6.122 -0.1674  0.0176 -0.3353
19497TIP3    H179906   2.954   4.534   6.202  0.9457  0.7680  0.2470
19497TIP3    H279907   2.951   4.560   6.053 -0.3639  0.8275  0.2764
19498TIP3   OH279908   3.269   5.043   0.505 -0.0339  0.0428 -0.5147
19498TIP3    H179909   3.202   5.110   0.496  0.5182  0.6552 -0.1651
19498TIP3    H279910   3.341   5.074   0.450  0.4137 -0.0023  0.0321
19499TIP3   OH279911   2.030   6.030   2.619  0.2692  0.7047 -0.0945
19499TIP3    H179912   2.091   5.966   2.582  1.2034  1.3923  0.2269
19499TIP3    H279913   1.951   6.022   2.566  0.3458 -0.7855  0.0113
19500TIP3   OH279914   5.069   1.061   4.928  0.3849  0.5337 -0.2201
19500TIP3    H179915   5.055   1.107   5.011 -0.7457 -0.4665  0.1573
19500TIP3    H279916   4.982   1.051   4.891  0.7667 -0.1120 -0.9486
19501TIP3   OH279917   1.259   3.919  14.036  0.3450 -0.0173  0.4616
19501TIP3    H179918   1.194   3.936  14.104 -0.1037 -0.1723  0.0687
19501TIP3    H279919   1.254   3.824  14.022 -2.6623  0.5519 -2.9073
19502TIP3   OH279920   4.046   1.243  15.279 -0.1253 -0.4309  0.3848
19502TIP3    H179921   4.109   1.206  15.342  2.0370  1.4280 -0.6057
19502TIP3    H279922   4.075   1.209  15.194 -0.7865  0.0351 -0.0284
19503TIP3   OH279923   4.401   5.562  16.662  0.0407  0.5609  0.0666
19503TIP3    H179924   4.355   5.494  16.613 -0.2444  0.4568  0.4803
19503TIP3    H279925   4.413   5.633  16.599 -1.9524  1.1651  0.3526
19504TIP3   OH279926   6.686   6.557  10.956  0.1959 -0.4677  0.3122
19504TIP3    H179927   6.780   6.569  10.944  0.3631 -1.4079  0.6193
19504TIP3    H279928   6.669   6.467  10.928 -0.1036 -1.3096  3.0285
19505TIP3   OH279929   3.418   0.017   1.665 -0.5030 -0.0590  0.1019
19505TIP3    H179930   3.486   0.072   1.705  0.3768 -1.9764  1.3132
19505TIP3    H279931   3.386   0.069   1.591  1.5828  1.2937  0.0997
19506TIP3   OH279932   3.738   0.982   3.462 -0.0254 -0.1689 -0.1250
19506TIP3    H179933   3.804   1.027   3.515  0.3760  0.7023 -1.3550
19506TIP3    H279934   3.662   1.040   3.464  0.8673  1.1238 -2.6252
19507TIP3   OH279935   3.411   1.719   0.405 -0.3758 -0.1871 -0.0195
19507TIP3    H179936   3.401   1.807   0.367 -0.6557  0.7675  2.2189
19507TIP3    H279937   3.331   1.673   0.380  0.0017  0.0111 -1.6400
19508TIP3   OH279938   5.196   6.042   4.067  0.0266 -0.0479 -0.4759
19508TIP3    H179939   5.105   6.021   4.048 -0.7227  0.0444  2.6935
19508TIP3    H279940   5.242   6.030   3.984 -2.7039 -1.0119 -1.8915
19509TIP3   OH279941   0.182   0.983   2.305  0.3553  0.3224  0.1869
19509TIP3    H179942   0.162   0.892   2.280 -0.0497  0.4318  0.0999
19509TIP3    H279943   0.189   1.030   2.222 -0.9151  0.6688  0.2528
19510TIP3   OH279944   1.473   3.899  17.041 -0.1244  0.7766 -0.3706
19510TIP3    H179945   1.428   3.837  17.099  0.0497 -0.1777 -1.2439
19510TIP3    H279946   1.412   3.911  16.968 -0.4853  2.2283  0.1547
19511TIP3   OH279947   4.280   3.191  16.174 -0.0574 -0.2440 -0.1719
19511TIP3    H179948   4.204   3.211  16.120 -1.1884  0.2398  1.5479
19511TIP3    H279949   4.271   3.248  16.250  1.9546 -0.2896  0.1213
19512TIP3   OH279950   4.483   2.683   3.969  0.1813  0.1935 -0.6297
19512TIP3    H179951   4.531   2.605   3.940 -0.5865  0.4246 -2.6762
19512TIP3    H279952   4.429   2.653   4.042  1.3365 -0.7350 -0.1605
19513TIP3   OH279953   4.802   1.188  16.263  0.1578  0.4035  0.1149
19513TIP3    H179954   4.898   1.193  16.258  0.2298 -0.3808  0.5768
19513TIP3    H279955   4.771   1.264  16.214  1.0440  1.4595  1.1755
19514TIP3   OH279956   0.401   6.642  14.153 -0.2140  0.0283  0.2290
19514TIP3    H179957   0.311   6.674  14.146  0.4050  2.3335  1.9482
19514TIP3    H279958   0.454   6.722  14.164  1.7696 -1.4111  1.5861
19515TIP3   OH279959   6.244   0.043  11.101 -0.0715 -0.3899 -0.2501
19515TIP3    H179960   6.182   0.014  11.034 -1.1664  0.8427  0.1951
19515TIP3    H279961   6.323  -0.009  11.086 -1.2958 -2.1689 -0.6817
19516TIP3   OH279962   0.029   0.225   2.121  0.0616 -0.3607  0.0141
19516TIP3    H179963   0.122   0.241   2.104  0.6305 -3.0757  0.2055
19516TIP3    H279964   0.014   0.261   2.208  0.5525  1.3903 -0.5959
19517TIP3   OH279965   1.026   3.716  14.441 -0.5577  0.1625 -0.5738
19517TIP3    H179966   1.015   3.628  14.405 -1.1445  0.0476 -0.1269
19517TIP3    H279967   1.093   3.706  14.509 -0.2839  0.1571 -0.8418
19518TIP3   OH279968   5.303   0.915  13.195  0.3274  0.2854  0.2276
19518TIP3    H179969   5.253   0.851  13.245 -0.3547  0.4752 -0.2078
19518TIP3    H279970   5.308   0.992  13.252 -0.6446  0.5825 -0.0737
19519TIP3   OH279971   1.741   4.897   2.400 -0.3642  0.1753 -0.2484
19519TIP3    H179972   1.824   4.857   2.425  0.2241  1.4388 -0.1607
19519TIP3    H279973   1.744   4.903   2.304 -0.2087  0.5091 -0.2251
19520TIP3   OH279974   5.462   6.530   3.175  0.8315 -0.1607 -0.1268
19520TIP3    H179975   5.495   6.546   3.087 -0.3890 -1.2952 -0.8181
19520TIP3    H279976   5.443   6.617   3.210  4.2134  0.4847  0.2013
19521TIP3   OH279977   5.491   5.811  15.356 -0.5947  0.6839 -0.2301
19521TIP3    H179978   5.577   5.799  15.397 -0.6893  1.8495  0.3212
19521TIP3    H279979   5.465   5.723  15.328  1.3738  0.5036 -1.5996
19522TIP3   OH279980   2.212   0.549   2.727 -0.3352  0.0663 -0.0659
19522TIP3    H179981   2.276   0.570   2.658 -1.6439  0.3590 -1.1969
19522TIP3    H279982   2.264   0.547   2.807  1.4067 -1.3055 -1.1781
19523TIP3   OH279983   6.107   0.360  15.661  0.5067 -0.1125 -0.2939
19523TIP3    H179984   6.101   0.374  15.566  1.9117  0.8672 -0.2417
19523TIP3    H279985   6.119   0.448  15.697  0.5799 -0.5534  0.7527
19524TIP3   OH279986   0.344   5.260   1.557  0.3982 -0.1671 -0.1878
19524TIP3    H179987   0.350   5.184   1.614  0.7480 -0.0916 -0.1207
19524TIP3    H279988   0.255   5.258   1.523  0.3778 -0.5511 -0.1119
19525TIP3   OH279989   2.552   4.970   4.878 -0.0183 -0.2474  0.1407
19525TIP3    H179990   2.525   4.972   4.787 -0.0237  0.0251  0.1476
19525TIP3    H279991   2.470   4.976   4.928 -0.3778 -4.2543  0.1985
19526TIP3   OH279992   0.159   6.410   3.105  0.0827 -0.1078 -0.7087
19526TIP3    H179993   0.223   6.476   3.130  0.7453 -1.2141  0.5582
19526TIP3    H279994   0.133   6.435   3.016  1.7322  0.7504 -0.9734
19527TIP3   OH279995   1.786   0.924   5.254  0.3341 -0.1202  0.4259
19527TIP3    H179996   1.699   0.896   5.226  0.7633 -0.7332 -0.3053
19527TIP3    H279997   1.773   1.013   5.286 -0.5846 -0.2553  0.4527
19528TIP3   OH279998   2.724   1.622   5.207  0.2066 -0.6211 -0.1028
19528TIP3    H179999   2.693   1.628   5.297  0.7214 -2.0369  0.1831
19528TIP3    H280000   2.645   1.624   5.153 -0.1691 -1.0016  0.4427
19529TIP3   OH280001   5.909   5.052   4.890 -0.1111 -0.1869 -0.2682
19529TIP3    H180002   5.837   5.108   4.860  1.2604  2.5953  1.3338
19529TIP3    H280003   5.866   4.982   4.939 -1.7837  1.1404  0.2197
19530TIP3   OH280004   1.122   4.669   4.052  0.9320 -0.0679 -0.1507
19530TIP3    H180005   1.080   4.629   4.129  2.0350  1.8113  1.4876
19530TIP3    H280006   1.052   4.678   3.988 -0.0362 -1.5825  0.6679
19531TIP3   OH280007   6.020   6.685  13.727  0.7241 -0.1822  0.0581
19531TIP3    H180008   6.060   6.640  13.801 -2.6714 -2.8736  0.4522
19531TIP3    H280009   5.997   6.772  13.760 -0.3470 -1.1952  2.0807
19532TIP3   OH280010   1.977   4.998  13.248  0.1051 -0.5910  0.6228
19532TIP3    H180011   2.065   5.001  13.286 -0.3991 -0.1396  1.7860
19532TIP3    H280012   1.991   5.012  13.155  0.9968  3.5905  1.2507
19533TIP3   OH280013   1.401   2.140  12.247  0.0402 -0.1166 -0.3357
19533TIP3    H180014   1.401   2.220  12.194  0.8077 -0.2522 -0.5408
19533TIP3    H280015   1.488   2.102  12.234 -0.0649 -0.6023  0.3368
19534TIP3   OH280016   3.059   4.169  14.094 -0.5780 -0.0529  0.0007
19534TIP3    H180017   3.006   4.210  14.162  0.3433  1.1474 -0.0014
19534TIP3    H280018   3.009   4.181  14.014 -0.2939  1.0922 -0.0054
19535TIP3   OH280019   0.612   6.092  13.508  0.2721  0.1330  0.2938
19535TIP3    H180020   0.531   6.066  13.464 -0.0714  1.7294 -0.0701
19535TIP3    H280021   0.588   6.098  13.601  0.0024  0.4435  0.2074
19536TIP3   OH280022   2.838   0.741  11.978  0.1011 -0.1190 -0.0796
19536TIP3    H180023   2.879   0.677  11.920  0.6511 -1.0208  1.2621
19536TIP3    H280024   2.912   0.780  12.025 -0.4187 -0.3504  0.9462
19537TIP3   OH280025   0.675   4.228   5.852  0.0003  0.5821  0.1099
19537TIP3    H180026   0.733   4.154   5.868 -1.1456 -0.1353  1.0226
19537TIP3    H280027   0.593   4.188   5.824 -1.0393  1.4429  1.8551
19538TIP3   OH280028   4.547   1.830   2.620 -0.1191 -0.0948 -0.2582
19538TIP3    H180029   4.534   1.891   2.692 -2.4860 -1.7746  0.7990
19538TIP3    H280030   4.635   1.795   2.634  0.6092  1.8251  0.0526
19539TIP3   OH280031   0.290   1.741  15.078 -0.0185 -0.0429  0.0916
19539TIP3    H180032   0.226   1.712  15.143 -1.7239 -0.9500 -1.9254
19539TIP3    H280033   0.316   1.661  15.032  0.6439  0.6714 -0.7949
19540TIP3   OH280034   6.194   1.837   5.740 -0.0180  0.1490  0.3935
19540TIP3    H180035   6.207   1.802   5.828 -0.6940 -1.1651 -0.0177
19540TIP3    H280036   6.282   1.859   5.709  0.4590 -1.3845  0.5960
19541TIP3   OH280037   5.145   2.585  16.194 -0.5702 -0.8372  0.1474
19541TIP3    H180038   5.099   2.557  16.115 -1.1069  1.0320 -0.2124
19541TIP3    H280039   5.190   2.506  16.224  1.6510 -1.0301 -3.4074
19542TIP3   OH280040   3.773   1.811  15.050  0.3872  0.2382  0.1877
19542TIP3    H180041   3.825   1.791  14.973 -0.5073 -0.9790 -0.1069
19542TIP3    H280042   3.805   1.897  15.079  1.3263  0.3001 -1.0087
19543TIP3   OH280043   4.615   2.761  13.664  0.0848 -0.8132 -0.6274
19543TIP3    H180044   4.528   2.740  13.629  1.0205 -2.2641 -2.1295
19543TIP3    H280045   4.620   2.713  13.746 -0.5748 -0.6303 -0.4769
19544TIP3   OH280046   1.696   6.294   5.023 -0.0814  1.0375 -0.2523
19544TIP3    H180047   1.666   6.300   4.932  2.2695  1.3190 -1.0374
19544TIP3    H280048   1.661   6.211   5.054  0.5292  0.1335 -1.9503
19545TIP3   OH280049   4.585   1.653  10.141 -0.3223 -0.0401  0.4996
19545TIP3    H180050   4.569   1.728  10.084  1.1892 -1.9293 -2.5355
19545TIP3    H280051   4.671   1.669  10.179  0.0506 -0.2633 -0.2386
19546TIP3   OH280052   2.556   0.052   0.246  0.1392 -0.5527  0.2339
19546TIP3    H180053   2.488   0.036   0.311 -1.4034 -1.2543 -1.5200
19546TIP3    H280054   2.552   0.147   0.230  0.1470 -0.4656  0.7235
19547TIP3   OH280055   0.170   5.763  12.103  0.2319 -0.1350  0.1915
19547TIP3    H180056   0.224   5.711  12.043  0.0331  0.2330 -0.3104
19547TIP3    H280057   0.149   5.842  12.053 -1.2689 -0.5412  0.1770
19548TIP3   OH280058   6.691   2.290   4.304  0.0188 -0.0868 -0.0600
19548TIP3    H180059   6.616   2.335   4.343 -0.2509  0.0029 -0.6760
19548TIP3    H280060   6.666   2.276   4.213  1.0135  0.5436 -0.4484
19549TIP3   OH280061   5.812   2.323   2.876 -0.3831 -0.5290 -0.0400
19549TIP3    H180062   5.780   2.411   2.895 -2.0892 -1.1923  0.2810
19549TIP3    H280063   5.777   2.268   2.947  1.3189 -1.3300  0.1963
19550TIP3   OH280064   0.192   1.420  15.340 -0.8583 -0.2547 -0.1752
19550TIP3    H180065   0.211   1.403  15.248 -3.0338  0.7091 -0.8515
19550TIP3    H280066   0.238   1.502  15.359  0.9522 -1.2985  0.1049
19551TIP3   OH280067   0.648   5.792   1.660  0.4667  0.3489  0.9286
19551TIP3    H180068   0.682   5.873   1.621 -1.9152  0.9667  0.0499
19551TIP3    H280069   0.573   5.821   1.712 -0.0949 -1.2445  1.0128
19552TIP3   OH280070   0.398   3.178  16.562 -0.0336  0.5865  0.2993
19552TIP3    H180071   0.330   3.246  16.561 -0.6228 -0.0064 -0.4951
19552TIP3    H280072   0.461   3.206  16.495 -0.1748  0.4490  0.1087
19553TIP3   OH280073   0.355   2.731  16.234  0.3118 -0.2504  0.3235
19553TIP3    H180074   0.308   2.813  16.226 -0.4773 -0.9449 -2.4493
19553TIP3    H280075   0.415   2.729  16.159  0.5105 -2.0757  0.5015
19554TIP3   OH280076   0.783   4.618   3.302  0.1012  0.2511 -0.1657
19554TIP3    H180077   0.835   4.598   3.224 -0.4142 -0.4515 -0.3228
19554TIP3    H280078   0.849   4.641   3.369  0.6187 -0.6532 -0.3581
19555TIP3   OH280079   6.028   3.125   5.328  0.2172 -0.3108 -0.0239
19555TIP3    H180080   6.056   3.065   5.397 -0.6925  0.1739  0.7669
19555TIP3    H280081   6.102   3.126   5.267  0.6102 -1.5309  0.4053
19556TIP3   OH280082   1.797   1.336   3.821  0.3248  0.3911  0.1716
19556TIP3    H180083   1.890   1.325   3.841  0.9921  0.1021 -2.7962
19556TIP3    H280084   1.793   1.415   3.767 -0.9184 -0.5438 -1.1335
19557TIP3   OH280085   0.065   0.833  10.422  0.6250  0.2169  0.6021
19557TIP3    H180086   0.122   0.910  10.426  1.7109 -0.3739 -2.1607
19557TIP3    H280087  -0.001   0.855  10.356  0.4053 -0.8410  0.4509
19558TIP3   OH280088   4.296   0.436  11.738 -0.2688 -0.9300  0.0845
19558TIP3    H180089   4.352   0.507  11.769 -1.0079  0.5180 -1.8201
19558TIP3    H280090   4.264   0.394  11.818  1.2678  0.0171  1.2079
19559TIP3   OH280091   6.032   1.322   4.150 -0.1885  0.8216  0.0925
19559TIP3    H180092   6.029   1.381   4.074 -0.6341  0.4628 -0.1676
19559TIP3    H280093   5.941   1.307   4.173 -0.1319 -0.7910 -0.6467
19560TIP3   OH280094   2.233   1.854  15.523 -0.1428 -0.5185 -0.3119
19560TIP3    H180095   2.218   1.850  15.617 -0.3250 -3.8948 -0.4168
19560TIP3    H280096   2.149   1.828  15.484 -0.0186  0.6617 -1.4154
19561TIP3   OH280097   4.139   5.084  12.697  0.2614  0.0656  0.0891
19561TIP3    H180098   4.182   5.131  12.769 -0.0279  2.0353 -1.0044
19561TIP3    H280099   4.175   4.995  12.703  2.1025  0.8357  1.1506
19562TIP3   OH280100   6.137   1.455  16.301  0.1607  0.1687 -0.4070
19562TIP3    H180101   6.042   1.456  16.316  0.2725  0.5738  0.2780
19562TIP3    H280102   6.158   1.362  16.286 -0.7569  0.3670 -3.2830
19563TIP3   OH280103   4.868   5.485  16.682  0.1235  0.1820 -0.0081
19563TIP3    H180104   4.799   5.512  16.742 -1.1716 -1.9348 -0.4860
19563TIP3    H280105   4.917   5.565  16.664 -2.3969  1.8033  0.1137
19564TIP3   OH280106   0.551   4.770  11.704  0.2487 -0.5236 -0.2614
19564TIP3    H180107   0.619   4.805  11.647  0.1953  0.0021 -0.0136
19564TIP3    H280108   0.588   4.688  11.738  0.6764 -0.3419 -0.2813
19565TIP3   OH280109   0.426   1.774  14.444  0.0555 -0.8637 -0.4405
19565TIP3    H180110   0.461   1.826  14.372  1.3891 -0.8056  0.2427
19565TIP3    H280111   0.502   1.731  14.482 -0.4786 -0.1220  1.5437
19566TIP3   OH280112   6.079   5.994  14.703  0.6917  0.4396 -0.3636
19566TIP3    H180113   6.115   5.930  14.640  1.5991  0.9380 -0.3664
19566TIP3    H280114   6.155   6.021  14.755 -0.2193 -0.6757  1.5955
19567TIP3   OH280115   0.244   2.991  15.817  0.5354 -0.0204  0.1252
19567TIP3    H180116   0.152   2.968  15.831  0.0322 -0.8074 -3.9113
19567TIP3    H280117   0.244   3.086  15.812 -0.0443 -0.0147  0.1941
19568TIP3   OH280118   4.573   5.002  11.981 -0.5419 -0.3390 -0.0886
19568TIP3    H180119   4.499   4.969  12.033  0.0359 -1.7492 -0.1464
19568TIP3    H280120   4.560   4.964  11.894  0.5211 -1.0082  0.0367
19569TIP3   OH280121   2.034   4.091   6.284  0.0931  0.5739 -0.2058
19569TIP3    H180122   2.040   4.040   6.203 -1.6256  1.0384 -0.6587
19569TIP3    H280123   1.947   4.132   6.279  0.0389  0.7169  1.8079
19570TIP3   OH280124   3.567   0.814  13.974 -0.1854 -0.1176 -0.1312
19570TIP3    H180125   3.630   0.877  14.010 -1.7372  1.2683  0.2353
19570TIP3    H280126   3.532   0.858  13.896 -0.3478 -1.0719 -0.6034
19571TIP3   OH280127   6.450   0.981  13.984  0.1447  0.3054 -0.0034
19571TIP3    H180128   6.509   1.005  13.912 -1.3207  1.6545 -0.7924
19571TIP3    H280129   6.465   1.047  14.051  0.5444 -0.1674  0.3709
19572TIP3   OH280130   1.296   6.388  12.426  0.3321 -0.1819 -0.5801
19572TIP3    H180131   1.264   6.298  12.423  0.2340 -0.1778  0.1142
19572TIP3    H280132   1.391   6.380  12.418  0.5533 -0.5458  1.8200
19573TIP3   OH280133   1.538   0.232  10.449 -0.0701  0.1512 -0.1547
19573TIP3    H180134   1.479   0.209  10.521  1.5211  0.1202  1.1672
19573TIP3    H280135   1.486   0.290  10.393 -1.5266 -0.3127  0.7032
19574TIP3   OH280136   1.113   0.170   5.825 -0.4202 -0.2725  0.2600
19574TIP3    H180137   1.114   0.075   5.814 -1.9818 -0.2036 -0.5512
19574TIP3    H280138   1.160   0.204   5.749 -2.3815 -0.2802 -0.9932
19575TIP3   OH280139   1.703   2.572  13.307 -0.6979  0.0331  0.3473
19575TIP3    H180140   1.783   2.614  13.337 -0.3923 -0.5194  0.3036
19575TIP3    H280141   1.634   2.613  13.359 -0.3510  0.2484  0.6449
19576TIP3   OH280142   4.217   6.708   2.380  0.2682 -0.0024  0.3974
19576TIP3    H180143   4.173   6.700   2.295  0.1243  0.6647  0.4046
19576TIP3    H280144   4.178   6.640   2.434 -1.4642  1.1858  0.7009
19577TIP3   OH280145   4.956   5.671   5.311 -0.0816  0.2609 -0.1427
19577TIP3    H180146   4.931   5.717   5.231  2.4298  0.0220 -1.0871
19577TIP3    H280147   5.016   5.603   5.282  1.0738  0.3329  1.9909
19578TIP3   OH280148   2.100   1.056  13.791  0.6305  0.1205 -0.2746
19578TIP3    H180149   2.183   1.064  13.838  0.5813  0.5362 -0.2514
19578TIP3    H280150   2.116   1.100  13.707  0.4852  0.0490 -0.3392
19579TIP3   OH280151   4.942   1.728   0.359 -0.5967  0.3547 -0.7751
19579TIP3    H180152   4.850   1.706   0.370 -0.4661 -0.7807 -1.7928
19579TIP3    H280153   4.943   1.823   0.351 -1.8101  0.3040 -1.7994
19580TIP3   OH280154   3.650   2.616  14.001  0.2832 -0.3425 -0.2620
19580TIP3    H180155   3.675   2.525  14.018 -0.0842 -0.3817  0.0843
19580TIP3    H280156   3.559   2.622  14.030  0.5337  0.3226  0.4181
19581TIP3   OH280157   5.411   1.312  11.030 -0.0664  0.0224 -0.1041
19581TIP3    H180158   5.401   1.356  11.114  0.9710  0.6798 -0.3184
19581TIP3    H280159   5.505   1.298  11.021 -0.1646  0.0333 -1.1884
19582TIP3   OH280160   0.782   1.280   0.546 -0.1262  0.1198 -0.6091
19582TIP3    H180161   0.721   1.330   0.491  0.2545 -0.5318 -1.6259
19582TIP3    H280162   0.857   1.338   0.559 -0.4957  0.5201 -0.2233
19583TIP3   OH280163   0.324   1.588   2.250 -0.7825  0.1450  0.1095
19583TIP3    H180164   0.242   1.539   2.246  0.7841 -2.6003  0.4932
19583TIP3    H280165   0.359   1.583   2.161  0.5799 -1.6104  0.7195
19584TIP3   OH280166   1.248   5.763   3.696  0.0051  0.1631 -0.0991
19584TIP3    H180167   1.296   5.697   3.746 -0.8591 -1.2682 -1.1201
19584TIP3    H280168   1.257   5.843   3.748  2.6407 -0.2856  0.2400
19585TIP3   OH280169   2.055   6.005  17.034 -0.8230 -0.0820  0.2409
19585TIP3    H180170   2.011   5.922  17.017 -0.9797 -0.2953  1.6435
19585TIP3    H280171   1.993   6.055  17.087 -0.5779  0.7895 -0.2800
19586TIP3   OH280172   4.431   6.542   0.030 -0.3651  0.3071  0.4816
19586TIP3    H180173   4.343   6.520   0.002  0.2192 -0.5347 -0.6934
19586TIP3    H280174   4.488   6.502  -0.035  0.8472  1.9496  0.5044
19587TIP3   OH280175   1.882   5.735  13.441  0.0463 -0.0640  0.0668
19587TIP3    H180176   1.957   5.696  13.396  0.9148  0.0034  1.4089
19587TIP3    H280177   1.824   5.662  13.461 -0.2498 -0.1161 -0.9959
19588TIP3   OH280178   4.043   0.999   4.226  0.0783 -0.3555  0.1860
19588TIP3    H180179   3.973   1.026   4.285 -0.6935  0.7890 -1.2550
19588TIP3    H280180   4.042   0.903   4.231 -0.1054 -0.2775  1.8767
19589TIP3   OH280181   4.023   4.795  12.566 -0.3780  0.1891  0.1609
19589TIP3    H180182   4.095   4.787  12.504 -0.4618  0.2825  0.0512
19589TIP3    H280183   4.038   4.725  12.629  0.2858  0.7310  0.6232
19590TIP3   OH280184   3.994   0.974  11.730  0.4749 -0.3260 -0.5265
19590TIP3    H180185   4.052   1.034  11.682 -1.6737 -0.1552 -2.9863
19590TIP3    H280186   4.001   1.003  11.821  2.7707  0.8981 -1.0410
19591TIP3   OH280187   2.437   1.781   3.239  0.0999 -0.0308 -0.5507
19591TIP3    H180188   2.434   1.808   3.148 -0.0453 -2.0830 -1.1834
19591TIP3    H280189   2.388   1.699   3.241 -1.4135  0.8695  1.7009
19592TIP3   OH280190   6.459   3.035  17.186 -0.2978  0.7788  0.1700
19592TIP3    H180191   6.488   3.003  17.101 -1.7322 -0.9245  0.2749
19592TIP3    H280192   6.527   3.096  17.214 -0.1887  1.9722 -2.5398
19593TIP3   OH280193   3.754   6.302  12.722  0.2015  0.3009 -0.1056
19593TIP3    H180194   3.738   6.208  12.715 -1.3528  0.4209  1.5235
19593TIP3    H280195   3.716   6.339  12.643 -0.9819 -0.2375  0.2010
19594TIP3   OH280196   0.384   5.318  16.718  0.7017 -0.0525 -0.0605
19594TIP3    H180197   0.431   5.234  16.718 -0.3015 -0.6738  2.2860
19594TIP3    H280198   0.296   5.295  16.747  0.2490  1.7303 -0.0242
19595TIP3   OH280199   1.547   1.175  15.922 -0.8834 -0.1872 -0.0383
19595TIP3    H180200   1.588   1.133  15.997 -2.1353  0.7003  1.1622
19595TIP3    H280201   1.587   1.261  15.918 -0.1024 -0.5872 -1.0028
19596TIP3   OH280202   4.558   6.404  16.988 -0.2335  0.6605  0.5416
19596TIP3    H180203   4.489   6.442  16.934  1.4740  0.9430 -1.5029
19596TIP3    H280204   4.634   6.401  16.930  1.9146  1.8454  3.2349
19597TIP3   OH280205   5.663   4.416   1.622 -0.1409  0.2402 -0.3043
19597TIP3    H180206   5.680   4.506   1.650 -1.3200  0.2550  0.3704
19597TIP3    H280207   5.599   4.425   1.551 -0.5115 -0.0849 -0.0104
19598TIP3   OH280208   4.004   2.394   1.154  0.1823  0.4611 -0.2295
19598TIP3    H180209   4.005   2.301   1.178 -0.7892  0.4572 -0.1670
19598TIP3    H280210   3.946   2.399   1.078 -0.4503  1.1264  0.2852
19599TIP3   OH280211   3.096   2.470  14.186  0.4443  0.2153  0.2546
19599TIP3    H180212   3.137   2.555  14.205  0.3034  0.5012 -0.6868
19599TIP3    H280213   3.003   2.485  14.197  0.4142  0.1975  0.0154
19600TIP3   OH280214   6.533   1.434  14.616 -0.0274 -0.2472  0.7540
19600TIP3    H180215   6.557   1.475  14.533 -0.9572 -2.5526 -0.7027
19600TIP3    H280216   6.617   1.415  14.659  0.5211 -0.5767 -0.4360
19601TIP3   OH280217   6.369   2.043   0.068 -0.0316 -0.0274 -0.2852
19601TIP3    H180218   6.388   2.030   0.161 -0.7454 -0.0945 -0.1456
19601TIP3    H280219   6.279   2.013   0.057 -0.7011  1.9909 -0.5713
19602TIP3   OH280220   2.753   0.188  14.182  0.0324  0.0135 -0.3362
19602TIP3    H180221   2.665   0.169  14.215  0.1029 -1.3981 -0.9593
19602TIP3    H280222   2.742   0.268  14.130 -0.4265  1.1991  1.5272
19603TIP3   OH280223   1.605   0.667  13.020  0.1270 -0.0750  0.0045
19603TIP3    H180224   1.677   0.640  13.076 -0.8037 -1.0696  0.7386
19603TIP3    H280225   1.625   0.758  12.997  0.5601  0.3159  1.8732
19604TIP3   OH280226   0.121   5.632  17.171 -0.3264  0.0040 -0.2495
19604TIP3    H180227   0.100   5.721  17.141  0.5482  0.0067 -0.8839
19604TIP3    H280228   0.088   5.629  17.260  0.0631  1.1387 -0.0499
19605TIP3   OH280229   2.338   6.606   3.474 -0.0435 -0.0804 -0.8346
19605TIP3    H180230   2.367   6.521   3.506 -1.1246 -0.6009 -1.2307
19605TIP3    H280231   2.386   6.669   3.529  0.6555 -0.9277 -0.4452
19606TIP3   OH280232   0.549   5.963  16.389 -0.2377 -0.5186 -0.5112
19606TIP3    H180233   0.569   6.038  16.445  0.0108  0.6622 -2.1532
19606TIP3    H280234   0.456   5.946  16.403  0.4116 -2.0992  2.4360
19607TIP3   OH280235   2.292   4.752   0.757  0.0853  0.2595  0.5002
19607TIP3    H180236   2.209   4.748   0.805  0.2091  0.7303  0.7550
19607TIP3    H280237   2.333   4.668   0.775 -0.4646 -0.0942  0.1366
19608TIP3   OH280238   4.886   6.337  14.918  0.3148 -0.2880  0.5222
19608TIP3    H180239   4.872   6.284  14.996  0.2750  0.0769  0.7607
19608TIP3    H280240   4.830   6.296  14.851 -1.6303  0.9539  1.3728
19609TIP3   OH280241   1.742   0.529  14.968  0.9505 -0.0194  0.1138
19609TIP3    H180242   1.801   0.501  15.037  0.9311  1.7684  0.8813
19609TIP3    H280243   1.693   0.602  15.006 -0.1065  0.0319 -1.2916
19610TIP3   OH280244   2.614   6.189  16.866 -0.2413 -0.2012  0.6285
19610TIP3    H180245   2.704   6.167  16.844 -0.7794 -1.4671 -0.4415
19610TIP3    H280246   2.615   6.211  16.959  1.2842  0.4980  0.4481
19611TIP3   OH280247   4.823   6.486   0.905 -0.2526  0.9514  0.1537
19611TIP3    H180248   4.753   6.533   0.952 -1.6168 -1.5572  0.7392
19611TIP3    H280249   4.904   6.523   0.939 -1.2330  0.3398  3.3570
19612TIP3   OH280250   6.396   6.539  15.688 -0.2039 -0.2675 -0.0094
19612TIP3    H180251   6.320   6.534  15.630 -0.5955 -1.1451  0.5702
19612TIP3    H280252   6.408   6.449  15.719 -0.1143  0.2339  1.4302
19613TIP3   OH280253   0.551   1.289  15.595 -0.7430  0.0720 -0.0292
19613TIP3    H180254   0.606   1.256  15.666 -1.4104  1.4389  1.1477
19613TIP3    H280255   0.530   1.211  15.543  0.2892 -0.8393  0.8985
19614TIP3   OH280256   5.965   0.144  12.224 -0.7225  0.1008 -0.1569
19614TIP3    H180257   6.009   0.081  12.165  0.4690 -1.1497  1.9981
19614TIP3    H280258   5.874   0.143  12.196 -0.4948 -1.7290 -0.9436
19615TIP3   OH280259   2.614   3.742  13.275 -0.4221 -0.2936  0.2993
19615TIP3    H180260   2.635   3.726  13.367 -1.2423 -0.5142  0.4586
19615TIP3    H280261   2.553   3.672  13.251 -1.3066  0.5531 -0.0042
19616TIP3   OH280262   1.971   6.379  11.242 -0.0720  0.1417  0.2644
19616TIP3    H180263   1.964   6.291  11.279  0.0964  0.0528  0.0838
19616TIP3    H280264   2.022   6.428  11.307 -2.2523  0.7741  1.5375
19617TIP3   OH280265   4.227   1.902   4.084 -0.2075  0.0673 -0.3409
19617TIP3    H180266   4.217   1.918   4.177 -0.7363  0.5514 -0.4758
19617TIP3    H280267   4.140   1.918   4.047  0.0177 -0.0315 -0.9255
19618TIP3   OH280268   0.994   4.377   0.712 -0.6581  0.5521 -0.6007
19618TIP3    H180269   1.027   4.461   0.681  0.8971 -0.1037 -0.7716
19618TIP3    H280270   1.073   4.324   0.727 -1.3899  0.2955  2.9356
19619TIP3   OH280271   2.970   5.954   1.703  0.2819  0.1423  0.9105
19619TIP3    H180272   2.947   6.044   1.726  1.1468  1.3249 -2.5178
19619TIP3    H280273   2.934   5.942   1.615  2.5703 -1.8868  0.1845
19620TIP3   OH280274   5.342   3.609   4.301  0.2623 -0.3249 -0.1987
19620TIP3    H180275   5.401   3.604   4.226 -2.1605 -2.3583 -2.0722
19620TIP3    H280276   5.360   3.530   4.352  1.1843  0.5387  0.8445
19621TIP3   OH280277   6.466   3.869  12.768 -0.0509  0.2014 -0.1621
19621TIP3    H180278   6.374   3.879  12.791 -0.0911  0.2062 -0.3219
19621TIP3    H280279   6.476   3.922  12.689  0.3166  0.9941  0.4133
19622TIP3   OH280280   1.132   2.135  12.552 -0.2104 -0.3345 -0.4864
19622TIP3    H180281   1.148   2.230  12.549 -2.2888  0.0286 -1.2658
19622TIP3    H280282   1.051   2.126  12.601 -0.6508 -1.6326 -1.4298
19623TIP3   OH280283   6.369   1.065   0.537  0.4604  0.5605  0.0043
19623TIP3    H180284   6.436   1.010   0.497 -1.2158 -0.4685 -1.4530
19623TIP3    H280285   6.368   1.144   0.483  0.9028  0.8358  0.3927
19624TIP3   OH280286   0.574   2.251   5.226  0.6909 -0.0165  0.5618
19624TIP3    H180287   0.580   2.324   5.163  0.0670  1.1213  1.7917
19624TIP3    H280288   0.490   2.210   5.205 -0.7417  1.9285  2.2637
19625TIP3   OH280289   1.780   6.173   3.796 -0.2751  0.0169 -0.0625
19625TIP3    H180290   1.853   6.139   3.848 -1.4223 -3.0602 -0.3747
19625TIP3    H280291   1.790   6.268   3.801  2.9030 -0.3038  1.0967
19626TIP3   OH280292   2.491   2.145  10.709  0.1145 -0.6331 -0.0460
19626TIP3    H180293   2.425   2.137  10.778  0.1202  0.5329  0.0983
19626TIP3    H280294   2.566   2.095  10.742 -0.0276 -0.4255  0.6104
19627TIP3   OH280295   1.599   4.958   0.958  0.3456 -0.0715  0.6210
19627TIP3    H180296   1.646   5.034   0.925  0.3973 -0.0194  0.8146
19627TIP3    H280297   1.528   4.944   0.894  0.3553  0.1178  0.5682
19628TIP3   OH280298   1.222   6.268  11.566 -0.0734 -0.5527 -0.0782
19628TIP3    H180299   1.298   6.319  11.592 -0.1568 -0.8531  0.7797
19628TIP3    H280300   1.241   6.179  11.596 -0.6045 -0.7023 -0.1693
19629TIP3   OH280301   6.378   0.757  12.996 -0.0203 -0.3285  0.1267
19629TIP3    H180302   6.378   0.840  13.043  1.7966 -0.5268  0.5142
19629TIP3    H280303   6.377   0.782  12.903  1.5172  0.1448  0.2314
19630TIP3   OH280304   0.873   6.632   4.219 -0.2236 -0.9550 -0.3279
19630TIP3    H180305   0.826   6.578   4.156 -1.1666 -2.6871  1.7887
19630TIP3    H280306   0.814   6.638   4.294  1.6503 -0.5539  1.1537
19631TIP3   OH280307   4.127   3.552   1.510 -0.2099 -0.5213 -0.0102
19631TIP3    H180308   4.089   3.471   1.543  1.6959 -1.6776 -0.5567
19631TIP3    H280309   4.169   3.592   1.586 -0.2258 -0.5785  0.0287
19632TIP3   OH280310   3.032   0.462   6.042  0.6579 -0.1112 -0.4875
19632TIP3    H180311   2.951   0.510   6.059  1.9289  1.8714  0.3260
19632TIP3    H280312   3.022   0.379   6.089 -0.5751  0.4622  0.2831
19633TIP3   OH280313   4.888   1.744  14.656  0.5198 -0.0208 -0.2085
19633TIP3    H180314   4.838   1.801  14.715  0.4370 -0.5380  0.2263
19633TIP3    H280315   4.844   1.659  14.661  0.9787 -0.2771 -0.4236
19634TIP3   OH280316   1.807   0.306   5.524  0.1321 -0.0348  0.2091
19634TIP3    H180317   1.841   0.245   5.459 -1.4622 -0.7557 -0.0010
19634TIP3    H280318   1.712   0.288   5.526 -0.6743  3.6696 -1.1361
19635TIP3   OH280319   6.699   5.668  12.753  0.6744 -0.0907  0.0162
19635TIP3    H180320   6.698   5.618  12.835  0.3569 -0.9706 -0.5158
19635TIP3    H280321   6.772   5.729  12.763  1.6167 -1.2503  0.3332
19636TIP3   OH280322   4.604   2.667  15.268 -0.3872  0.8202  0.6798
19636TIP3    H180323   4.530   2.727  15.282  0.1281  1.0348  2.6647
19636TIP3    H280324   4.565   2.588  15.232 -1.6300  0.8866  1.8295
19637TIP3   OH280325   5.200   6.333   4.947 -0.1398 -0.1631 -0.9799
19637TIP3    H180326   5.256   6.360   4.874  1.4522  1.3295  0.7070
19637TIP3    H280327   5.126   6.393   4.944  1.0410  1.4116 -0.0839
19638TIP3   OH280328   0.112   0.949   1.754  0.4941  0.1506 -0.2057
19638TIP3    H180329   0.017   0.949   1.763  0.7102  0.8605  2.6964
19638TIP3    H280330   0.131   0.878   1.693 -2.0140  1.5763 -2.7489
19639TIP3   OH280331   1.863   0.321   4.743 -0.9044  0.1325 -0.0753
19639TIP3    H180332   1.784   0.356   4.785 -1.7066 -0.9905 -0.6362
19639TIP3    H280333   1.833   0.244   4.695  0.1425  0.9657 -2.1169
19640TIP3   OH280334   5.344   5.474  15.108  0.0251  0.5972 -0.3629
19640TIP3    H180335   5.287   5.398  15.095  1.6541 -0.7262  0.1400
19640TIP3    H280336   5.314   5.538  15.043 -0.9225 -0.7166 -1.2393
19641TIP3   OH280337   0.261   2.998   0.709 -0.2481 -0.2385  0.0640
19641TIP3    H180338   0.209   2.932   0.663 -1.2903 -0.3054  1.3106
19641TIP3    H280339   0.251   3.078   0.657  0.8939 -1.0127 -1.3658
19642TIP3   OH280340   0.033   4.849  12.443  0.5285  0.2106 -0.1614
19642TIP3    H180341   0.016   4.904  12.519  3.6988  1.6379 -0.3845
19642TIP3    H280342  -0.046   4.796  12.432 -1.4606  2.7154  1.7838
19643TIP3   OH280343   2.645   3.184  14.876  0.6222  0.5733  0.2239
19643TIP3    H180344   2.650   3.229  14.791  1.7228  0.4615  0.2235
19643TIP3    H280345   2.608   3.098  14.855  0.5976  0.6620 -0.0959
19644TIP3   OH280346   4.260   3.607   5.621 -0.4666 -0.2302 -0.0462
19644TIP3    H180347   4.269   3.702   5.632  0.3706 -0.0610 -1.9973
19644TIP3    H280348   4.345   3.572   5.650 -0.5359 -0.3279  0.0386
19645TIP3   OH280349   4.514   0.015  11.199 -0.3851  0.0817  0.4177
19645TIP3    H180350   4.590   0.070  11.180 -0.3758  0.0532  0.3765
19645TIP3    H280351   4.540  -0.073  11.172 -1.3184  0.4766 -1.8734
19646TIP3   OH280352   2.397   3.868  16.474  0.4186 -0.0805 -0.0017
19646TIP3    H180353   2.321   3.871  16.417  0.8345 -1.5491 -0.6512
19646TIP3    H280354   2.470   3.850  16.415  0.5277 -4.1651  1.2540
19647TIP3   OH280355   2.125   2.177   3.513  0.0528  0.0118  0.3961
19647TIP3    H180356   2.154   2.268   3.502  1.9458 -0.1840  3.0652
19647TIP3    H280357   2.164   2.130   3.439  2.8456  0.6268  1.3916
19648TIP3   OH280358   1.000   1.015  13.085 -0.2728 -0.0687 -0.3373
19648TIP3    H180359   0.974   1.039  13.174 -0.4803 -0.6979 -0.2219
19648TIP3    H280360   1.057   0.939  13.097 -0.6289 -0.4060 -0.7613
19649TIP3   OH280361   3.694   6.350   4.007  0.2877 -0.3380 -0.2638
19649TIP3    H180362   3.603   6.345   4.034  0.2781  2.8691  0.4373
19649TIP3    H280363   3.692   6.341   3.912 -0.4928 -2.7604 -0.0517
19650TIP3   OH280364   2.677   3.168  14.212  0.2653  0.1074 -0.1762
19650TIP3    H180365   2.723   3.167  14.128  0.8290  1.8568  0.0816
19650TIP3    H280366   2.741   3.135  14.275 -0.1627 -1.2209 -0.4221
19651TIP3   OH280367   5.743   4.533  13.024  0.2380  0.6572  0.5292
19651TIP3    H180368   5.819   4.476  13.022  0.9031  1.5837 -1.2256
19651TIP3    H280369   5.774   4.617  12.990 -1.2935  1.3619  0.8124
19652TIP3   OH280370   0.849   3.208   0.743  1.1069  0.1924 -0.9126
19652TIP3    H180371   0.903   3.263   0.687 -0.1370 -0.1126 -2.4742
19652TIP3    H280372   0.774   3.184   0.688  0.2758 -0.8383  0.6082
19653TIP3   OH280373   0.642   0.722  12.311 -0.1546 -0.6731  0.0085
19653TIP3    H180374   0.671   0.799  12.360  1.4261 -1.5622  0.4793
19653TIP3    H280375   0.560   0.697  12.353 -1.3220  1.4454 -0.8989
19654TIP3   OH280376   4.170   6.366   3.748  0.0680 -0.0034 -0.0098
19654TIP3    H180377   4.132   6.452   3.728 -1.7757 -0.4275  1.4457
19654TIP3    H280378   4.100   6.304   3.729 -0.0300 -0.8139  2.7291
19655TIP3   OH280379   6.203   3.822   4.579 -0.0042 -0.7564  0.2563
19655TIP3    H180380   6.146   3.751   4.551  1.7470 -1.7302 -0.9187
19655TIP3    H280381   6.240   3.857   4.498  1.2012 -0.2380  1.0186
19656TIP3   OH280382   4.836   3.295   1.064 -0.4278  1.0744  0.8987
19656TIP3    H180383   4.784   3.264   0.990  0.7295  3.0774 -0.8165
19656TIP3    H280384   4.780   3.359   1.108 -0.3615  1.4150  0.4996
19657TIP3   OH280385   3.596   4.311  14.459 -0.0095  0.4814 -0.1993
19657TIP3    H180386   3.567   4.362  14.535  1.1338  0.2195  0.4214
19657TIP3    H280387   3.574   4.366  14.383 -0.1579  1.2312  0.3795
19658TIP3   OH280388   4.499   5.465  15.849 -0.5916  0.2858  0.1212
19658TIP3    H180389   4.411   5.498  15.868 -1.2357 -2.1070  1.4609
19658TIP3    H280390   4.557   5.527  15.892 -1.7000  0.7986  0.9207
19659TIP3   OH280391   6.186   4.566   2.323  0.2819 -0.5548  0.0584
19659TIP3    H180392   6.233   4.563   2.240 -0.6015  1.3422 -0.5336
19659TIP3    H280393   6.163   4.658   2.334 -0.1447 -0.8795  2.1140
19660TIP3   OH280394   5.336   2.651  15.384 -0.0295 -0.2790  0.3233
19660TIP3    H180395   5.259   2.701  15.409 -0.4203  0.1119 -1.6306
19660TIP3    H280396   5.303   2.564  15.364 -0.0278 -0.0305 -0.8041
19661TIP3   OH280397   1.298   3.537   1.209 -0.8338 -0.2592  0.0587
19661TIP3    H180398   1.365   3.551   1.276  0.5057  0.1978 -1.3386
19661TIP3    H280399   1.334   3.468   1.154 -0.9916  0.7874 -1.3748
19662TIP3   OH280400   0.412   5.840  17.128  0.3686  0.5567  0.4917
19662TIP3    H180401   0.441   5.824  17.218  1.7257 -1.2188 -0.2318
19662TIP3    H280402   0.394   5.753  17.093  0.6995  1.1610 -1.2323
19663TIP3   OH280403   4.520   3.338   1.248 -0.1339  0.1306  0.3071
19663TIP3    H180404   4.488   3.411   1.300 -0.4054 -0.2098  0.6171
19663TIP3    H280405   4.444   3.307   1.199 -0.4705 -1.1710  1.6264
19664TIP3   OH280406   6.475   5.993   4.608  0.2377 -0.0158 -0.6970
19664TIP3    H180407   6.416   6.006   4.682  2.1341  0.5194  0.7514
19664TIP3    H280408   6.430   6.036   4.535 -1.6339 -0.5170  0.1309
19665TIP3   OH280409   4.081   2.491  10.337  0.6371 -0.4562 -0.5218
19665TIP3    H180410   3.994   2.454  10.354  0.0880  0.5713 -1.0909
19665TIP3    H280411   4.136   2.414  10.321 -0.5802 -1.0378 -2.0848
19666TIP3   OH280412   3.600   3.011   5.658 -0.4852 -0.1424  0.3038
19666TIP3    H180413   3.682   3.010   5.609 -0.1767 -1.9392  0.8038
19666TIP3    H280414   3.620   2.964   5.739 -1.3355  1.6566  1.5949
19667TIP3   OH280415   3.419   5.123   0.067  0.0031  0.0090 -0.0871
19667TIP3    H180416   3.383   5.163  -0.012 -0.0465 -0.2299 -0.1870
19667TIP3    H280417   3.438   5.196   0.125 -0.1981  0.1688 -0.2239
19668TIP3   OH280418   1.327   0.549  16.051  0.0505 -0.5116 -0.7300
19668TIP3    H180419   1.376   0.467  16.053 -1.4368 -1.4190 -1.0427
19668TIP3    H280420   1.345   0.590  16.135  2.5038 -0.1269 -1.4022
19669TIP3   OH280421   3.660   5.720  11.959  0.5505 -0.7138  0.0203
19669TIP3    H180422   3.662   5.814  11.946 -0.8006 -0.6655  0.1259
19669TIP3    H280423   3.734   5.702  12.017  1.6697  0.0919 -1.1316
19670TIP3   OH280424   2.624   2.360  14.269 -0.3392  0.2597  0.5098
19670TIP3    H180425   2.545   2.307  14.259  0.1209 -0.9362  2.8071
19670TIP3    H280426   2.689   2.318  14.213 -0.1149 -1.3805  1.9520
19671TIP3   OH280427   2.849   3.395   4.260  0.3620 -0.2420  0.2251
19671TIP3    H180428   2.945   3.401   4.256  0.3304  0.2890  0.2855
19671TIP3    H280429   2.819   3.486   4.258 -0.1453 -0.4115  0.1493
19672TIP3   OH280430   6.149   4.585  16.095  0.1663 -0.1939 -0.6293
19672TIP3    H180431   6.108   4.592  16.009 -0.9794 -1.1471 -0.1718
19672TIP3    H280432   6.091   4.528  16.145  0.8941  0.2329  0.7330
19673TIP3   OH280433   1.020   2.085   4.349  0.4560  0.2294 -0.0095
19673TIP3    H180434   1.035   2.180   4.355 -0.2666  0.3375  0.1246
19673TIP3    H280435   0.947   2.076   4.288 -0.8589 -0.1027  1.5597
19674TIP3   OH280436   3.109   5.815   1.171  0.3555 -0.2087 -0.1219
19674TIP3    H180437   3.200   5.841   1.156 -0.2585  2.6163  0.7897
19674TIP3    H280438   3.071   5.810   1.084  1.0387 -0.1078 -0.4306
19675TIP3   OH280439   1.373   5.204   3.815 -0.3460 -0.4379 -0.3602
19675TIP3    H180440   1.466   5.203   3.839  0.2355 -0.3922 -2.5390
19675TIP3    H280441   1.339   5.283   3.858  0.7864 -0.0335 -0.1798
19676TIP3   OH280442   4.622   2.661  16.042  0.1607 -0.0137  0.0156
19676TIP3    H180443   4.674   2.685  16.118 -0.5266 -1.6856  1.0347
19676TIP3    H280444   4.676   2.596  15.996  0.1175  0.2070 -0.3472
19677TIP3   OH280445   1.950   3.112   5.267 -0.1235  0.1206  0.6201
19677TIP3    H180446   2.042   3.123   5.243 -0.5064  1.7953 -0.1696
19677TIP3    H280447   1.944   3.021   5.297  1.1398 -1.0129 -2.3536
19678TIP3   OH280448   2.463   2.064  16.985 -0.0463 -0.4703 -0.1360
19678TIP3    H180449   2.378   2.078  17.028 -0.6626 -1.2182 -1.0997
19678TIP3    H280450   2.471   2.137  16.924 -0.2341 -0.6821 -0.4152
19679TIP3   OH280451   6.258   3.666  10.979 -0.0287 -0.4725  0.0041
19679TIP3    H180452   6.282   3.624  11.062  0.1592 -0.4224 -0.0235
19679TIP3    H280453   6.332   3.649  10.922 -0.7387 -1.6551 -0.5757
19680TIP3   OH280454   1.020   5.279  14.474  0.1826  0.3078  0.1824
19680TIP3    H180455   1.014   5.185  14.487  2.3425  0.3388  1.7586
19680TIP3    H280456   1.103   5.292  14.428  0.9522  1.5653  1.8720
19681TIP3   OH280457   2.165   6.362   2.969  0.0987  0.3805  1.0700
19681TIP3    H180458   2.245   6.313   2.949  0.1544  0.9875 -0.2217
19681TIP3    H280459   2.100   6.330   2.907 -0.0569  1.4455  0.6687
19682TIP3   OH280460   4.600   5.428  11.257  0.0160  0.9916  0.5969
19682TIP3    H180461   4.664   5.479  11.306  1.1876  1.1959 -1.0948
19682TIP3    H280462   4.519   5.436  11.307  0.3244  4.0202  0.6969
19683TIP3   OH280463   1.271   5.191   6.157 -0.5396 -0.4375 -0.0356
19683TIP3    H180464   1.238   5.186   6.068  0.1420 -3.2627 -0.1912
19683TIP3    H280465   1.365   5.207   6.147 -0.7312  0.8993  0.2319
19684TIP3   OH280466   5.737   5.033  11.707 -0.5466  0.0777 -0.4330
19684TIP3    H180467   5.707   4.952  11.750 -3.0184  0.9956 -0.3385
19684TIP3    H280468   5.659   5.089  11.706  0.9929  2.2485 -1.0023
19685TIP3   OH280469   1.613   1.506   4.474  0.6069  0.3916 -0.2041
19685TIP3    H180470   1.583   1.590   4.437  1.5590  0.0512 -1.7873
19685TIP3    H280471   1.705   1.521   4.496  0.9448 -0.4245 -1.0608
19686TIP3   OH280472   2.145   2.965  11.456  0.0781  0.1006 -0.2405
19686TIP3    H180473   2.190   3.041  11.418  0.6367  0.2730  0.7580
19686TIP3    H280474   2.055   2.994  11.469  0.5496  0.9869  1.1955
19687TIP3   OH280475   4.824   3.143   2.838  0.2288 -0.0055 -0.4117
19687TIP3    H180476   4.797   3.235   2.848 -0.0310  0.0239 -1.2670
19687TIP3    H280477   4.743   3.093   2.846  0.1728 -0.0558 -1.1796
19688TIP3   OH280478   2.829   0.014  13.561  0.5651  0.4376 -0.5792
19688TIP3    H180479   2.739   0.034  13.589  1.1742 -0.3646  2.0473
19688TIP3    H280480   2.820  -0.064  13.506 -0.2855  0.0228  0.1334
19689TIP3   OH280481   1.398   1.353  11.714 -0.0203  0.6133  0.4376
19689TIP3    H180482   1.432   1.269  11.683  0.4367  0.8306  0.3536
19689TIP3    H280483   1.313   1.332  11.752 -0.3106  0.2529 -0.4116
19690TIP3   OH280484   0.452   2.630  16.587 -0.2052 -0.4650  0.1718
19690TIP3    H180485   0.469   2.703  16.646  1.0998 -0.2542 -0.4599
19690TIP3    H280486   0.482   2.553  16.635  1.3164 -0.2403 -0.3958
19691TIP3   OH280487   2.923   3.270   4.605  0.4364  0.2522 -0.4719
19691TIP3    H180488   3.004   3.253   4.654  0.1194  0.8486  0.2827
19691TIP3    H280489   2.953   3.300   4.519  1.0201  0.6490 -0.1361
19692TIP3   OH280490   0.394   5.564  12.179  0.1787 -0.4180  0.2923
19692TIP3    H180491   0.345   5.535  12.256 -0.8213 -2.1856 -0.9841
19692TIP3    H280492   0.456   5.493  12.161 -0.0839 -0.3451 -0.9563
19693TIP3   OH280493   5.000   2.016   3.150  0.5819  0.6508  0.5153
19693TIP3    H180494   4.924   1.980   3.196  0.4352  1.5586  0.9768
19693TIP3    H280495   5.052   2.057   3.218  1.0395  0.8217  0.0631
19694TIP3   OH280496   4.607   4.088  13.000  0.1346  0.3921 -0.1892
19694TIP3    H180497   4.545   4.154  13.029  1.0777  0.9811  0.5045
19694TIP3    H280498   4.634   4.043  13.080 -1.5253 -1.7667 -0.7924
19695TIP3   OH280499   2.532   2.153   1.736 -0.0071 -0.1627 -0.4140
19695TIP3    H180500   2.620   2.114   1.741 -0.1123 -0.8753 -3.0990
19695TIP3    H280501   2.490   2.107   1.664 -2.1199  1.1337 -0.0435
19696TIP3   OH280502   5.095   1.445   3.530 -1.1398 -0.2090 -0.4181
19696TIP3    H180503   5.005   1.414   3.529 -0.5299 -2.2653 -4.7237
19696TIP3    H280504   5.146   1.370   3.561 -0.8163  0.8331  1.6715
19697TIP3   OH280505   4.455   5.203  15.796  0.1355  0.3982  0.0782
19697TIP3    H180506   4.416   5.161  15.873  1.2582 -0.3539  0.2449
19697TIP3    H280507   4.477   5.291  15.824 -1.8062  0.9798 -0.1307
19698TIP3   OH280508   0.481   2.853   0.805  0.4381  0.0060 -0.3789
19698TIP3    H180509   0.485   2.765   0.768  0.4247 -0.6360  1.1474
19698TIP3    H280510   0.403   2.892   0.766 -0.5605 -1.2852  0.3104
19699TIP3   OH280511   2.284   3.647  13.709  0.1540  0.0578 -0.4610
19699TIP3    H180512   2.372   3.613  13.723  0.2052 -0.4163 -1.8232
19699TIP3    H280513   2.290   3.698  13.628 -1.0998 -1.0909 -1.3166
19700TIP3   OH280514   1.812   2.286   6.043  0.2412  0.3467  0.4883
19700TIP3    H180515   1.892   2.237   6.023 -0.6283 -0.8914 -0.0133
19700TIP3    H280516   1.798   2.271   6.136 -0.3884 -0.9383  0.1996
19701TIP3   OH280517   4.095   6.105   2.825 -0.1476 -0.3111 -0.1987
19701TIP3    H180518   4.055   6.180   2.781  1.0533  0.5071  0.0671
19701TIP3    H280519   4.120   6.139   2.911 -0.7523 -1.3720  0.3961
19702TIP3   OH280520   4.112   1.396   0.959  0.0044  0.5669  0.0144
19702TIP3    H180521   4.030   1.390   1.007 -0.5056  0.9479 -0.7938
19702TIP3    H280522   4.180   1.382   1.025 -0.5990  3.2361  1.2573
19703TIP3   OH280523   2.909   6.358  14.629  0.3478  0.1356  0.3312
19703TIP3    H180524   2.973   6.286  14.631  1.1786  0.7069 -2.5477
19703TIP3    H280525   2.824   6.315  14.639  0.8924 -1.1818 -0.5278
19704TIP3   OH280526   5.290   5.946   4.302 -0.0464 -0.0434  0.1455
19704TIP3    H180527   5.244   5.863   4.318 -1.1666  0.6675  0.6945
19704TIP3    H280528   5.279   5.961   4.208 -1.9800  0.6974  0.4607
19705TIP3   OH280529   6.581   0.235  15.632  0.3392 -0.4452 -0.0015
19705TIP3    H180530   6.581   0.143  15.607 -0.2053 -0.3858 -0.2368
19705TIP3    H280531   6.498   0.269  15.597  0.4436  0.0822  0.2615
19706TIP3   OH280532   1.603   6.302   4.769  0.6596  0.1017  0.8904
19706TIP3    H180533   1.648   6.263   4.694  0.4664 -0.8872  1.2833
19706TIP3    H280534   1.529   6.349   4.730  1.5331  1.0238  0.3190
19707TIP3   OH280535   5.296   3.510  13.891 -0.3513 -0.6940  0.0561
19707TIP3    H180536   5.220   3.497  13.949  0.8456 -1.1294  1.5700
19707TIP3    H280537   5.259   3.515  13.803 -2.0317 -2.0323  0.6603
19708TIP3   OH280538   3.172   1.133  17.175  0.1687  0.0341  0.0166
19708TIP3    H180539   3.111   1.185  17.122 -0.4587 -1.3881 -0.6802
19708TIP3    H280540   3.259   1.165  17.149 -0.1773  0.1398 -1.0320
19709TIP3   OH280541   3.834   6.552   4.146  0.1020  0.3041  0.5190
19709TIP3    H180542   3.857   6.573   4.055 -1.2987  1.1398  0.3365
19709TIP3    H280543   3.781   6.473   4.140  0.0482  0.3331  0.6215
19710TIP3   OH280544   6.428   6.022  14.028  0.2157  0.0107 -0.3734
19710TIP3    H180545   6.481   6.010  14.106  0.0679  1.4454 -0.0290
19710TIP3    H280546   6.346   5.976  14.047  0.5685 -0.4920 -0.0892
19711TIP3   OH280547   1.525   1.385   4.235 -0.0526  0.4057  0.4407
19711TIP3    H180548   1.521   1.423   4.147  1.6441 -1.1189 -0.3166
19711TIP3    H280549   1.527   1.461   4.294 -0.7903  1.4363 -0.8406
19712TIP3   OH280550   5.721   1.055   4.301  0.4091  0.2945  0.5748
19712TIP3    H180551   5.795   1.006   4.337  0.2599  0.1819  0.7288
19712TIP3    H280552   5.673   0.991   4.248  2.8239  1.3732 -3.1154
19713TIP3   OH280553   6.227   4.038   5.420  0.4188 -0.3490 -0.3900
19713TIP3    H180554   6.224   4.066   5.329  1.6851 -0.1336 -0.3756
19713TIP3    H280555   6.270   4.110   5.467 -0.6280 -0.2619  0.4581
19714TIP3   OH280556   2.740   0.548  11.129 -0.2364  0.3849 -0.0592
19714TIP3    H180557   2.756   0.478  11.066  0.6117  0.6311 -0.1317
19714TIP3    H280558   2.703   0.504  11.205 -0.5734 -0.0152 -0.4552
19715TIP3   OH280559   1.274   6.737  16.338 -0.0833  0.1622  0.5038
19715TIP3    H180560   1.228   6.693  16.410 -0.4512 -0.2179  0.0441
19715TIP3    H280561   1.293   6.667  16.275  2.3119  0.0806  1.2856
19716TIP3   OH280562   0.824   5.116   6.312  0.3924  0.2489 -0.3937
19716TIP3    H180563   0.745   5.064   6.327  1.2329 -1.2127 -0.9128
19716TIP3    H280564   0.808   5.162   6.230 -0.2533  0.6177 -0.0662
19717TIP3   OH280565   4.044   5.085  15.394  0.5684 -0.5038  0.2051
19717TIP3    H180566   4.018   5.088  15.302  0.4332 -1.3440  0.2134
19717TIP3    H280567   4.117   5.024  15.396  0.4016 -0.6873  0.7002
19718TIP3   OH280568   6.277   3.384  16.756  0.0755  0.2348  0.3458
19718TIP3    H180569   6.289   3.463  16.702 -0.0672 -0.3197 -0.5012
19718TIP3    H280570   6.295   3.312  16.697 -0.9254 -0.4118  0.8211
19719TIP3   OH280571   6.445   0.926  11.521  0.0132  0.3272  0.2368
19719TIP3    H180572   6.432   0.839  11.559  1.5631  1.2035  2.9139
19719TIP3    H280573   6.363   0.973  11.537 -0.2260 -0.1056  0.2714
19720TIP3   OH280574   3.807   5.403  13.431  0.3760  0.2325  0.1596
19720TIP3    H180575   3.725   5.450  13.413 -1.0172 -1.8335  0.9567
19720TIP3    H280576   3.845   5.389  13.344 -1.5620 -1.3184 -0.4649
19721TIP3   OH280577   6.230   3.480  15.024 -0.5739 -0.3301 -0.4262
19721TIP3    H180578   6.226   3.467  15.119  1.6020 -1.4963 -0.4592
19721TIP3    H280579   6.288   3.555  15.013 -1.3734  0.2383 -0.8281
19722TIP3   OH280580   1.762   1.184  11.770 -0.3254 -0.4876 -0.0261
19722TIP3    H180581   1.723   1.141  11.846 -0.5751 -1.1163 -0.5074
19722TIP3    H280582   1.825   1.246  11.807 -1.1346 -0.0965  0.7212
19723TIP3   OH280583   1.749   5.837  13.063 -0.0693 -0.1997  0.4796
19723TIP3    H180584   1.680   5.785  13.105  0.0942 -1.6810 -1.0173
19723TIP3    H280585   1.819   5.774  13.046  0.3931  0.6377 -0.7920
19724TIP3   OH280586   3.858   2.521   1.847 -0.1138  0.1424 -0.3593
19724TIP3    H180587   3.767   2.551   1.839  0.3925  2.1225  1.0483
19724TIP3    H280588   3.856   2.456   1.917 -0.4868  0.0082 -0.4944
19725TIP3   OH280589   2.880   0.477   2.592 -0.0821  0.2436 -0.2079
19725TIP3    H180590   2.790   0.448   2.579  0.0006 -0.2429  0.3075
19725TIP3    H280591   2.932   0.397   2.588  0.3564  0.5569 -0.7672
19726TIP3   OH280592   5.923   3.463  13.399 -0.7580 -0.7629  0.5300
19726TIP3    H180593   5.882   3.377  13.408  1.3549 -1.9464 -0.6295
19726TIP3    H280594   6.003   3.456  13.451 -0.2555  0.2864 -0.0985
19727TIP3   OH280595   0.161   6.423   5.221 -0.8199 -0.5596  0.5372
19727TIP3    H180596   0.093   6.451   5.159 -1.4127  0.3729  1.5935
19727TIP3    H280597   0.241   6.421   5.169 -1.5401 -1.0903 -0.5812
19728TIP3   OH280598   4.711   3.764  16.621 -0.1790  0.0190 -0.1495
19728TIP3    H180599   4.671   3.681  16.647  0.5892 -0.8489 -1.7122
19728TIP3    H280600   4.792   3.769  16.672 -2.3183  1.9613  3.3144
19729TIP3   OH280601   2.921   2.659   0.058  0.4594 -0.2695  0.4048
19729TIP3    H180602   2.986   2.699   0.117  0.3075  0.2936  0.1966
19729TIP3    H280603   2.967   2.651  -0.025 -0.2615  1.7601 -0.2363
19730TIP3   OH280604   2.751   1.244  11.834 -0.2343  0.9096  0.7686
19730TIP3    H180605   2.658   1.255  11.854 -0.5905  0.3924 -0.5281
19730TIP3    H280606   2.766   1.150  11.836 -0.2266  0.8388 -0.9957
19731TIP3   OH280607   3.935   6.338  16.182  0.2040  0.0478 -0.0203
19731TIP3    H180608   3.923   6.322  16.088 -0.0608  0.1960 -0.0094
19731TIP3    H280609   3.885   6.418  16.199 -0.7260 -0.6387  0.4871
19732TIP3   OH280610   2.663   4.272  12.545  0.1169  0.2275  0.1441
19732TIP3    H180611   2.741   4.254  12.492  0.8643 -1.0167  1.6204
19732TIP3    H280612   2.590   4.251  12.488  0.8879  0.0517 -0.7955
19733TIP3   OH280613   0.669   2.931  13.857 -0.4819  0.7630 -0.4002
19733TIP3    H180614   0.694   2.870  13.926  0.8081  3.4529  1.6059
19733TIP3    H280615   0.736   2.921  13.790 -0.9182 -0.8221 -0.6097
19734TIP3   OH280616   4.942   2.914   1.291  0.7113  0.6673 -0.3879
19734TIP3    H180617   4.860   2.951   1.323 -1.2785 -2.0381 -2.1060
19734TIP3    H280618   4.940   2.929   1.197  1.2709 -1.0302 -0.6999
19735TIP3   OH280619   4.377   3.448   1.851  0.6604  0.2625  0.3623
19735TIP3    H180620   4.404   3.459   1.942 -0.7559  0.2544  0.8029
19735TIP3    H280621   4.363   3.353   1.843 -0.1855  0.3683  0.4472
19736TIP3   OH280622   4.288   3.865   5.673  0.3006  0.6855 -0.8615
19736TIP3    H180623   4.231   3.927   5.718 -0.7881 -1.1538  0.3978
19736TIP3    H280624   4.358   3.918   5.635  0.1081  2.5124  1.2757
19737TIP3   OH280625   0.688   0.985   4.466  0.3325 -0.4222 -0.1265
19737TIP3    H180626   0.670   0.918   4.400  0.8865 -0.6085 -0.0882
19737TIP3    H280627   0.756   1.040   4.426  3.3771 -2.6859  1.7335
19738TIP3   OH280628   4.345   4.684  16.380  0.0717 -0.6595  0.7980
19738TIP3    H180629   4.278   4.750  16.397 -0.8830 -1.9676  2.4129
19738TIP3    H280630   4.390   4.713  16.301 -1.8889  0.6641  0.1454
19739TIP3   OH280631   0.301   4.788  15.252  0.7443 -0.0380  0.3555
19739TIP3    H180632   0.253   4.737  15.187  2.4685 -1.6928  0.3554
19739TIP3    H280633   0.238   4.800  15.324 -1.1128  1.6865 -1.4871
19740TIP3   OH280634   0.224   5.850   5.033  0.2625  0.4117 -0.4463
19740TIP3    H180635   0.309   5.878   4.998  0.6609  1.0238  0.9989
19740TIP3    H280636   0.236   5.850   5.128 -0.9121 -0.9133 -0.2845
19741TIP3   OH280637   2.348   6.246   5.527  0.6583 -0.3749  0.3863
19741TIP3    H180638   2.253   6.238   5.527  0.7514 -1.5852  1.0049
19741TIP3    H280639   2.379   6.170   5.577  1.9524 -0.1076  0.0178
19742TIP3   OH280640   3.748   5.123  12.059  0.1318  0.5160 -0.1540
19742TIP3    H180641   3.742   5.167  11.974 -1.6654  1.8820  0.6359
19742TIP3    H280642   3.768   5.194  12.120  1.5682 -0.4846  0.5419
19743TIP3   OH280643   3.129   5.306   5.345 -0.3478  0.3584 -0.6514
19743TIP3    H180644   3.206   5.252   5.361 -0.4398  0.3187 -0.3369
19743TIP3    H280645   3.142   5.383   5.402 -1.2467 -0.3332  0.5070
19744TIP3   OH280646   4.704   4.209   2.975  0.0436 -0.2367  0.1441
19744TIP3    H180647   4.629   4.201   3.034 -0.1062  4.4925  0.7846
19744TIP3    H280648   4.667   4.197   2.888 -1.1825  0.3323  0.5715
19745TIP3   OH280649   4.033   0.169   2.625 -0.2361  0.4990 -0.6491
19745TIP3    H180650   3.951   0.207   2.593 -0.2199  1.1391  0.0338
19745TIP3    H280651   4.037   0.082   2.586 -1.7085  0.0971  0.0699
19746TIP3   OH280652   3.560   0.023   3.153 -0.0363 -0.3686  0.1791
19746TIP3    H180653   3.573  -0.051   3.212  0.1575  0.4050  1.1166
19746TIP3    H280654   3.557   0.099   3.211 -0.4085  0.3342 -0.7652
19747TIP3   OH280655   3.845   6.020   2.640 -0.6013  0.2527  0.3901
19747TIP3    H180656   3.939   6.024   2.626 -0.3765 -1.2090  1.3681
19747TIP3    H280657   3.830   6.066   2.722 -0.6485 -0.1330  0.5990
19748TIP3   OH280658   1.965   2.940  17.121  0.1432 -0.4361 -0.1210
19748TIP3    H180659   1.927   2.999  17.186 -1.7499  0.8256 -2.2689
19748TIP3    H280660   1.908   2.863  17.122 -0.9272  0.3098 -1.4345
19749TIP3   OH280661   0.436   0.136  15.644 -0.0289  0.1700 -0.0727
19749TIP3    H180662   0.462   0.135  15.736 -1.1896  1.5886  0.2808
19749TIP3    H280663   0.512   0.171  15.598  0.5068 -0.4226  0.3581
19750TIP3   OH280664   6.679   1.051  12.195  0.0271 -0.0343  0.1562
19750TIP3    H180665   6.610   1.115  12.176 -1.0775 -1.3454 -0.3666
19750TIP3    H280666   6.716   1.079  12.279 -2.5397 -0.4446  1.4734
19751TIP3   OH280667   0.299   6.396   2.235 -0.4081 -0.1261  0.3564
19751TIP3    H180668   0.213   6.404   2.278  0.5748 -0.1693  2.3746
19751TIP3    H280669   0.355   6.355   2.301  0.9831 -0.8164 -1.2193
19752TIP3   OH280670   5.421   1.376   1.617  0.4695 -0.1205  0.2530
19752TIP3    H180671   5.497   1.319   1.632  1.1553  1.1195  1.6517
19752TIP3    H280672   5.346   1.323   1.644  1.0189 -0.6272  0.8069
19753TIP3   OH280673   0.842   2.108   0.549 -1.4333 -0.2412 -0.3906
19753TIP3    H180674   0.868   2.171   0.617  2.3640 -0.4300 -1.5206
19753TIP3    H280675   0.833   2.025   0.596  1.1846 -0.3763 -0.0626
19754TIP3   OH280676   0.209   3.275  15.817 -0.4302 -0.1914 -0.7855
19754TIP3    H180677   0.235   3.288  15.726 -1.6267 -0.9067 -1.2435
19754TIP3    H280678   0.131   3.330  15.828 -0.8004 -0.7723 -0.4557
19755TIP3   OH280679   4.360   5.601  12.627  0.3835 -0.2827 -0.0489
19755TIP3    H180680   4.321   5.608  12.540  1.1483 -0.8770 -0.4457
19755TIP3    H280681   4.307   5.535  12.673 -0.4852  0.5751  0.2018
19756TIP3   OH280682   0.723   0.865  16.408  0.5108  0.1588 -0.2586
19756TIP3    H180683   0.764   0.922  16.473  0.2710  0.6036 -0.4994
19756TIP3    H280684   0.644   0.911  16.382  0.8421  0.2005 -1.2180
19757TIP3   OH280685   6.591   0.217   5.481 -0.2708 -0.5633  0.1674
19757TIP3    H180686   6.644   0.143   5.510 -0.7828 -1.2539 -0.6629
19757TIP3    H280687   6.654   0.275   5.437 -0.1756 -1.3441 -0.7415
19758TIP3   OH280688   1.207   5.125   1.941  0.2976  0.3111  0.0496
19758TIP3    H180689   1.148   5.198   1.956  1.1346  0.9821  0.1513
19758TIP3    H280690   1.271   5.132   2.012 -1.4705 -2.4512  1.9994
19759TIP3   OH280691   3.219   3.199   4.735 -0.4135  0.0920 -0.2671
19759TIP3    H180692   3.276   3.155   4.672 -0.6425 -1.2372  0.4400
19759TIP3    H280693   3.215   3.140   4.810 -1.2034  1.0518  0.4617
19760TIP3   OH280694   4.922   3.755  10.938  0.4527  0.2527  0.7659
19760TIP3    H180695   4.839   3.726  10.976  0.1436  0.1886  0.0337
19760TIP3    H280696   4.898   3.815  10.868  0.9434 -1.3875 -0.8469
19761TIP3   OH280697   4.036   4.089  13.302 -0.0981 -0.0767 -0.4046
19761TIP3    H180698   4.103   4.034  13.260  0.7880 -0.1061  1.0217
19761TIP3    H280699   3.955   4.041  13.288  0.6183 -1.6004  0.5128
19762TIP3   OH280700   4.778   4.196  12.045  0.2550 -0.1054  0.1731
19762TIP3    H180701   4.688   4.207  12.016  0.1452  0.4801  0.7231
19762TIP3    H280702   4.773   4.198  12.141  0.7767 -0.6729  0.2181
19763TIP3   OH280703   2.161   2.058   1.787  0.2239  0.2521 -0.6435
19763TIP3    H180704   2.232   1.994   1.781  0.7724  0.8374 -0.4945
19763TIP3    H280705   2.103   2.037   1.715  0.7271 -0.0216 -0.9713
19764TIP3   OH280706   5.724   5.772  15.861  1.1045  0.2595  0.1707
19764TIP3    H180707   5.781   5.848  15.848  2.8079 -1.1205 -0.6523
19764TIP3    H280708   5.747   5.739  15.948 -0.9189  1.7191  1.2954
19765TIP3   OH280709   0.774   2.668   2.647 -0.5143 -0.1949 -0.2785
19765TIP3    H180710   0.834   2.623   2.706  0.9330  0.5110 -1.1985
19765TIP3    H280711   0.764   2.756   2.684  0.2557  0.1917 -0.9868
19766TIP3   OH280712   2.408   0.595  13.044  0.3698  0.3268  0.3961
19766TIP3    H180713   2.378   0.530  12.980 -0.0684  0.7969  0.1189
19766TIP3    H280714   2.496   0.566  13.069  0.7958  0.4792 -0.8972
19767TIP3   OH280715   1.252   4.804   5.832  0.2630 -0.2534 -0.3766
19767TIP3    H180716   1.194   4.751   5.887  0.2411  0.0035 -0.1481
19767TIP3    H280717   1.334   4.755   5.830  0.3009 -0.2113 -0.0196
19768TIP3   OH280718   5.101   0.314   5.244  0.1067 -0.2590  0.2645
19768TIP3    H180719   5.176   0.271   5.201  0.4790 -0.9377  1.5509
19768TIP3    H280720   5.138   0.394   5.282  0.4811 -1.1814  1.9241
19769TIP3   OH280721   0.321   0.687  15.071 -0.3370 -0.3075 -0.5264
19769TIP3    H180722   0.361   0.751  15.012  1.9374 -0.4693  0.7664
19769TIP3    H280723   0.393   0.628  15.094 -1.3737 -0.7719  1.6869
19770TIP3   OH280724   0.521   2.981  11.024  0.6954  0.0232  0.1321
19770TIP3    H180725   0.496   2.989  10.932 -1.0374 -0.2135  0.5610
19770TIP3    H280726   0.440   2.997  11.073  0.8379 -2.9791  1.5196
19771TIP3   OH280727   6.150   2.550   4.651  0.3957  0.0704  0.0458
19771TIP3    H180728   6.170   2.512   4.566 -0.5703 -0.2832 -0.0240
19771TIP3    H280729   6.061   2.585   4.642  1.9282  4.1706 -0.5330
19772TIP3   OH280730   6.381   5.558   1.920  0.0992  0.2967 -0.2424
19772TIP3    H180731   6.337   5.643   1.907 -0.0668  0.2217 -0.1749
19772TIP3    H280732   6.322   5.495   1.878  0.6001  0.3065 -0.9785
19773TIP3   OH280733   0.273   1.546  16.835 -0.1589 -0.0182 -0.6480
19773TIP3    H180734   0.240   1.458  16.820 -1.6522  0.6650 -1.4854
19773TIP3    H280735   0.197   1.595  16.869  0.8407  0.7646  0.5203
19774TIP3   OH280736   6.294   0.470  12.171  0.4732  0.0314  0.0834
19774TIP3    H180737   6.321   0.382  12.197 -0.4527 -0.5162 -0.7839
19774TIP3    H280738   6.371   0.508  12.131  0.6348 -0.6990 -0.3060
19775TIP3   OH280739   1.150   6.368  12.806 -0.3551 -0.2195  0.6125
19775TIP3    H180740   1.212   6.360  12.733 -2.4533  0.7257 -1.3490
19775TIP3    H280741   1.184   6.442  12.857  1.0167 -0.7414  0.4901
19776TIP3   OH280742   2.757   0.778   4.837 -0.7650 -0.1278  0.1448
19776TIP3    H180743   2.760   0.862   4.792  1.6356 -0.0554  0.3480
19776TIP3    H280744   2.815   0.789   4.912  0.4051 -2.2466 -0.4014
19777TIP3   OH280745   4.647   4.867  13.432  0.4617 -0.0551 -0.1593
19777TIP3    H180746   4.630   4.775  13.455  0.4150  0.1362  0.5855
19777TIP3    H280747   4.561   4.901  13.406 -0.0032  0.4123  1.8558
19778TIP3   OH280748   3.558   2.189   5.325 -0.1210  0.4165 -0.2718
19778TIP3    H180749   3.534   2.122   5.389 -1.4772  0.9469 -0.2007
19778TIP3    H280750   3.527   2.271   5.363  0.7738  0.9781 -0.7467
19779TIP3   OH280751   1.196   6.292  16.036 -0.1942 -0.0464  0.1104
19779TIP3    H180752   1.282   6.335  16.037  0.5893 -1.5299 -1.5203
19779TIP3    H280753   1.172   6.288  15.943 -1.2888 -1.0725  0.4286
19780TIP3   OH280754   4.369   2.614  16.284  0.2209 -0.0892  0.1113
19780TIP3    H180755   4.453   2.624  16.237 -1.0283 -2.1298 -2.6599
19780TIP3    H280756   4.311   2.676  16.241 -0.7698 -1.5286 -0.6506
19781TIP3   OH280757   0.331   5.287  16.242 -0.6389  0.3510 -0.0029
19781TIP3    H180758   0.407   5.229  16.250 -1.1352 -0.3071 -0.0073
19781TIP3    H280759   0.299   5.296  16.332 -1.3215 -0.4160 -0.1665
19782TIP3   OH280760   2.904   6.758  14.885  0.1657 -0.9596  0.2213
19782TIP3    H180761   2.835   6.744  14.951  1.1635 -3.9481  0.7474
19782TIP3    H280762   2.960   6.681  14.894  1.1525 -0.6888 -3.1580
19783TIP3   OH280763   5.621   1.249   1.454 -0.0079 -0.1904 -0.6770
19783TIP3    H180764   5.603   1.224   1.363 -0.8630  0.4654 -0.6914
19783TIP3    H280765   5.580   1.180   1.506  0.2334 -0.4134 -0.7797
19784TIP3   OH280766   4.123   2.984  12.957 -0.5083  0.6466  0.2908
19784TIP3    H180767   4.082   3.069  12.938 -0.0794  1.2888  2.0979
19784TIP3    H280768   4.065   2.920  12.916 -0.1397  1.8763 -2.2088
19785TIP3   OH280769   5.190   6.071  13.205  0.2599  0.5239  0.7206
19785TIP3    H180770   5.176   6.155  13.248 -0.5322  1.4318 -1.2436
19785TIP3    H280771   5.103   6.045  13.174  0.7925 -0.1620 -0.2272
19786TIP3   OH280772   1.951   3.332  15.731 -0.8306 -0.7366 -0.1079
19786TIP3    H180773   1.979   3.415  15.770 -1.1519  0.4756 -2.3510
19786TIP3    H280774   1.985   3.265  15.789  1.6382  0.8948  0.3954
19787TIP3   OH280775   6.321   6.336  16.343 -0.3646  0.1397 -0.1964
19787TIP3    H180776   6.396   6.393  16.356  0.0592 -0.4896  0.1372
19787TIP3    H280777   6.359   6.250  16.325 -0.9687  0.1890 -1.8355
19788TIP3   OH280778   3.031   6.692  10.925 -0.0547  0.6920 -0.2836
19788TIP3    H180779   2.955   6.659  10.973 -1.9129  3.4461 -1.2297
19788TIP3    H280780   3.027   6.787  10.935  2.8389  0.9420 -1.0118
19789TIP3   OH280781   4.147   3.300   2.060 -0.6050 -0.1290 -0.5514
19789TIP3    H180782   4.122   3.209   2.045 -0.0660 -0.0907 -1.7834
19789TIP3    H280783   4.233   3.295   2.101 -0.9703 -0.1843  0.2202
19790TIP3   OH280784   5.354   4.898  16.178 -0.4734 -0.4094  0.3920
19790TIP3    H180785   5.286   4.841  16.214  0.5044 -0.3070  2.5267
19790TIP3    H280786   5.411   4.840  16.128 -0.9288 -0.8525  0.3894
19791TIP3   OH280787   6.275   5.947   3.024  0.1621  0.7628  0.8954
19791TIP3    H180788   6.300   5.903   2.942 -1.1942  0.3903  0.6690
19791TIP3    H280789   6.357   5.985   3.056  0.8631  0.2582 -0.2364
19792TIP3   OH280790   4.775   5.987   5.094 -0.2695  0.1460 -0.4357
19792TIP3    H180791   4.772   5.930   5.171  3.0076  0.0756 -0.2908
19792TIP3    H280792   4.731   6.067   5.122 -0.5696 -0.4947  0.9774
19793TIP3   OH280793   5.338   5.057  11.584  0.3996 -0.2933  0.0392
19793TIP3    H180794   5.400   5.033  11.515  0.4610  0.0942 -0.0438
19793TIP3    H280795   5.391   5.106  11.647  0.1660  0.1090 -0.0724
19794TIP3   OH280796   1.922   5.856   5.501  0.3111 -0.7627  0.0108
19794TIP3    H180797   2.011   5.860   5.537  0.3852 -0.5064 -0.2096
19794TIP3    H280798   1.926   5.906   5.420 -0.3454  0.3252  0.6431
19795TIP3   OH280799   4.580   0.403   2.758  0.2252  0.2540  0.0720
19795TIP3    H180800   4.523   0.476   2.783 -0.8440 -0.2664 -0.8044
19795TIP3    H280801   4.526   0.325   2.770  1.3335 -0.3798  0.8966
19796TIP3   OH280802   0.567   1.075  12.332  0.2067 -0.5970 -0.3236
19796TIP3    H180803   0.524   1.084  12.417  1.4239  1.4161  0.1086
19796TIP3    H280804   0.651   1.034  12.353  0.4098 -0.3124 -0.5777
19797TIP3   OH280805   6.338   2.818   6.374 -0.0995 -0.6187 -0.3620
19797TIP3    H180806   6.274   2.762   6.418 -1.4425  1.4434  0.3809
19797TIP3    H280807   6.404   2.757   6.340 -1.2096 -2.5842  0.9113
19798TIP3   OH280808   5.679   1.178   5.276 -0.0660  0.0599 -0.0176
19798TIP3    H180809   5.647   1.098   5.234  3.7559 -1.5216 -0.1962
19798TIP3    H280810   5.700   1.151   5.366 -1.7576  1.7125  0.9119
19799TIP3   OH280811   4.703   2.379  15.271  0.0258 -0.2099  0.0073
19799TIP3    H180812   4.730   2.325  15.346  0.3667 -2.5116 -1.7127
19799TIP3    H280813   4.609   2.364  15.263  0.1576 -0.7763 -0.6035
19800TIP3   OH280814   2.219   6.306  12.892  0.2089 -1.0314 -0.4949
19800TIP3    H180815   2.149   6.366  12.917 -0.3232 -1.2516 -1.4241
19800TIP3    H280816   2.176   6.221  12.886 -0.2008 -0.6534 -4.2701
19801TIP3   OH280817   4.823   0.704   0.034 -1.2013 -0.1542  0.2161
19801TIP3    H180818   4.746   0.648   0.025 -0.1787 -1.4960 -0.4261
19801TIP3    H280819   4.892   0.656  -0.011 -0.1226  1.2946  0.3088
19802TIP3   OH280820   5.829   1.295   0.687 -0.2194  0.1779 -0.4901
19802TIP3    H180821   5.834   1.221   0.749 -1.9817  0.5156  0.0685
19802TIP3    H280822   5.757   1.273   0.629 -1.0478  1.6674 -0.0504
19803TIP3   OH280823   3.359   6.493  17.194  0.1171 -0.1316  0.4667
19803TIP3    H180824   3.301   6.446  17.134 -0.4104 -0.7979  1.4896
19803TIP3    H280825   3.437   6.511  17.142 -0.2730 -0.8368 -0.3797
19804TIP3   OH280826   5.654   0.461   2.196 -0.5658 -0.0508 -0.3031
19804TIP3    H180827   5.587   0.413   2.148 -1.6514  1.0613  0.0669
19804TIP3    H280828   5.708   0.501   2.128 -1.3511  0.4944 -0.6206
19805TIP3   OH280829   5.968   2.018  13.144  0.1426  0.0536  0.1287
19805TIP3    H180830   5.974   2.105  13.184 -2.4637 -0.6281  2.1296
19805TIP3    H280831   6.017   1.962  13.204  0.3781 -0.1634 -0.2655
19806TIP3   OH280832   2.402   5.549  15.046 -0.4683  0.1729 -0.2326
19806TIP3    H180833   2.492   5.550  15.077 -0.3722  1.4468 -0.5263
19806TIP3    H280834   2.359   5.618  15.096 -1.7837 -1.7096  1.3268
19807TIP3   OH280835   6.126   6.158  13.679 -0.1571 -0.2999  0.0927
19807TIP3    H180836   6.192   6.211  13.723  1.2259 -0.9071 -1.2047
19807TIP3    H280837   6.176   6.091  13.632 -1.6281 -0.0833 -1.8456
19808TIP3   OH280838   1.484   2.845  15.727 -0.4000 -0.5518  0.2860
19808TIP3    H180839   1.474   2.928  15.773 -1.7382 -0.7601  0.4030
19808TIP3    H280840   1.470   2.779  15.795  2.7043 -0.8964  0.6242
19809TIP3   OH280841   1.651   5.376   5.001 -0.3895  0.2114  0.6673
19809TIP3    H180842   1.696   5.312   4.946 -0.2727  0.3913  0.5538
19809TIP3    H280843   1.561   5.378   4.967 -0.1816  0.7072  0.1468
19810TIP3   OH280844   5.978   2.004   2.356 -0.0540  0.0200  0.3738
19810TIP3    H180845   5.889   2.008   2.321 -1.1097  0.5294  3.0140
19810TIP3    H280846   6.019   2.085   2.327 -1.4382  1.2035  1.6511
19811TIP3   OH280847   6.441   4.581   3.047 -0.1155  0.2379 -0.6321
19811TIP3    H180848   6.473   4.658   2.999  0.8073 -1.0147 -2.0953
19811TIP3    H280849   6.511   4.517   3.037  0.3381  0.1003  2.9083
19812TIP3   OH280850   0.864   5.234   5.119 -0.1828 -1.0860 -0.1206
19812TIP3    H180851   0.782   5.283   5.118  0.0551 -0.6843 -0.1054
19812TIP3    H280852   0.869   5.195   5.032 -0.4509 -1.2090 -0.0809
19813TIP3   OH280853   0.480   4.025   5.873  0.1900  0.1636 -0.1833
19813TIP3    H180854   0.388   4.021   5.845  0.2454 -0.8083 -0.2194
19813TIP3    H280855   0.517   3.941   5.847  1.1162  0.5869 -0.2335
19814TIP3   OH280856   6.656   6.455   2.010 -0.3042 -0.0903 -0.0489
19814TIP3    H180857   6.622   6.519   2.072  0.6145  0.2680  0.0973
19814TIP3    H280858   6.633   6.490   1.924 -0.5010  0.0321  0.0533
19815TIP3   OH280859   2.574   0.030   2.553 -0.1589 -0.1928  0.1006
19815TIP3    H180860   2.630  -0.041   2.583 -0.1329  0.0603  0.6632
19815TIP3    H280861   2.501  -0.014   2.510  0.4136 -0.5270 -0.5419
19816TIP3   OH280862   5.036   0.837  16.158  0.4985  0.3977 -0.4603
19816TIP3    H180863   4.944   0.834  16.184  0.3844  2.0957 -0.6454
19816TIP3    H280864   5.076   0.902  16.216  1.5743 -0.2940 -0.4088
19817TIP3   OH280865   4.282   2.935   2.888 -0.1031  0.7796  0.2395
19817TIP3    H180866   4.296   2.849   2.926  1.9142  1.0833  0.2283
19817TIP3    H280867   4.197   2.964   2.923 -0.7548 -1.1540  0.2850
19818TIP3   OH280868   0.486   5.119  13.720 -0.2119  0.1792 -0.5373
19818TIP3    H180869   0.461   5.198  13.673 -1.6280 -0.7520 -1.3787
19818TIP3    H280870   0.488   5.050  13.654 -0.8893 -0.8698  0.5061
19819TIP3   OH280871   3.406   3.407   0.023  0.0288  0.0381 -0.6273
19819TIP3    H180872   3.416   3.376   0.114  1.1113  0.1237 -0.7044
19819TIP3    H280873   3.432   3.332  -0.030 -0.6146 -0.0124 -0.8676
19820TIP3   OH280874   6.474   4.540  13.029 -0.5018 -0.2068 -0.0532
19820TIP3    H180875   6.468   4.445  13.013 -2.1947 -0.3362  1.3273
19820TIP3    H280876   6.471   4.579  12.941 -2.7692 -1.2730 -0.4712
19821TIP3   OH280877   1.256   2.947   1.687  0.1566  0.4635  0.8535
19821TIP3    H180878   1.351   2.957   1.696  0.5408  0.2787 -2.2754
19821TIP3    H280879   1.224   3.037   1.679  0.1893  0.4719  0.8193
19822TIP3   OH280880   6.319   5.534  12.692  0.1818 -0.0892  0.2977
19822TIP3    H180881   6.352   5.518  12.781 -1.9227  2.9380  1.7156
19822TIP3    H280882   6.224   5.538  12.703 -0.1748 -0.6189 -2.3022
19823TIP3   OH280883   4.339   3.140  14.354 -0.0332  0.1352  0.4105
19823TIP3    H180884   4.348   3.092  14.437  0.7390  1.4236  1.0777
19823TIP3    H280885   4.281   3.214  14.375 -0.2244  0.2002 -0.3229
19824TIP3   OH280886   1.206   2.149  17.100  0.1908  0.2627 -0.3509
19824TIP3    H180887   1.173   2.166  17.188  0.4338  1.0218 -0.3975
19824TIP3    H280888   1.157   2.073  17.069  0.3918 -0.2447  0.5889
19825TIP3   OH280889   0.883   5.773   3.867  0.4113  0.4879 -0.3455
19825TIP3    H180890   0.893   5.795   3.960 -0.2374  2.6591 -0.7651
19825TIP3    H280891   0.927   5.844   3.821 -0.5509  0.2050 -1.7353
19826TIP3   OH280892   5.808   5.816  12.876  0.5310  0.7965  0.2034
19826TIP3    H180893   5.736   5.857  12.828 -0.0792 -0.5042 -0.0086
19826TIP3    H280894   5.813   5.727  12.840  0.1818 -0.1366  2.4067
19827TIP3   OH280895   4.137   3.631   5.360 -0.3941 -0.7451 -0.0597
19827TIP3    H180896   4.200   3.612   5.429 -0.6484  0.0161  0.3968
19827TIP3    H280897   4.124   3.548   5.315  2.4710 -0.4879 -1.4809
19828TIP3   OH280898   3.060   4.922  12.404  0.1544 -0.1262 -0.1752
19828TIP3    H180899   2.994   4.879  12.350  0.5940 -0.4349 -0.4759
19828TIP3    H280900   3.062   4.871  12.485  0.2211 -0.2897 -0.2782
19829TIP3   OH280901   0.088   4.669   1.935  0.1490  0.1859 -0.2641
19829TIP3    H180902   0.063   4.605   2.002  3.2611 -1.0347 -0.2132
19829TIP3    H280903   0.103   4.616   1.856  0.9176  1.0895 -0.7231
19830TIP3   OH280904   5.713   3.506   1.690 -0.1648  0.1642 -0.0174
19830TIP3    H180905   5.801   3.538   1.707 -0.2065  0.0711  0.3761
19830TIP3    H280906   5.670   3.577   1.643  0.4991 -0.2637 -1.2909
19831TIP3   OH280907   6.655   2.839   0.901 -0.0545 -0.6271  0.3132
19831TIP3    H180908   6.742   2.873   0.923  0.1565 -0.6827 -0.4156
19831TIP3    H280909   6.646   2.857   0.807 -1.2108  0.2162  0.5823
19832TIP3   OH280910   2.476   4.919   4.565 -0.0333  0.2128 -0.0190
19832TIP3    H180911   2.463   4.830   4.599  2.5984 -0.0871  0.2725
19832TIP3    H280912   2.409   4.971   4.609 -0.9127 -1.4258  0.6133
19833TIP3   OH280913   6.381   0.771   2.663 -0.7558 -0.1338 -0.6344
19833TIP3    H180914   6.460   0.721   2.685 -0.5366 -0.3816 -1.9559
19833TIP3    H280915   6.345   0.798   2.748  1.1124  0.5606 -0.0402
19834TIP3   OH280916   6.641   5.940   5.897  0.4578  0.1268 -0.5236
19834TIP3    H180917   6.634   6.026   5.855  2.9116  0.7223  0.2167
19834TIP3    H280918   6.716   5.948   5.955  1.1302 -2.7382 -0.9433
19835TIP3   OH280919   0.129   6.348   1.789  0.0481 -0.1795  0.4730
19835TIP3    H180920   0.117   6.273   1.847  0.5544  0.1625  1.0272
19835TIP3    H280921   0.180   6.410   1.840  1.3865 -0.2950 -0.6896
19836TIP3   OH280922   4.444   0.364  16.554  1.0432  0.1727 -0.5967
19836TIP3    H180923   4.352   0.355  16.529  0.8087  3.2856 -1.0685
19836TIP3    H280924   4.444   0.359  16.649  0.1797  1.5332 -0.5141
19837TIP3   OH280925   3.028   1.033  15.100 -0.2844  0.0323 -0.3590
19837TIP3    H180926   3.119   1.062  15.097 -0.8713  1.8629 -1.0832
19837TIP3    H280927   3.002   1.044  15.192 -0.3227  1.2576 -0.5146
19838TIP3   OH280928   0.341   5.555  17.026  0.5129  0.1440  0.5516
19838TIP3    H180929   0.374   5.468  17.050  0.0718  0.0727  0.9020
19838TIP3    H280930   0.249   5.554  17.051  0.6092  0.8645  0.9531
19839TIP3   OH280931   3.587   5.624   1.594  0.3270  0.0138  0.1195
19839TIP3    H180932   3.615   5.562   1.661 -2.1394 -1.4329 -0.1469
19839TIP3    H280933   3.492   5.618   1.594  0.1895  1.8262 -1.7929
19840TIP3   OH280934   4.051   0.287   4.527  0.4162 -0.0425 -0.8341
19840TIP3    H180935   4.129   0.304   4.580 -0.6188  1.3647  0.2837
19840TIP3    H280936   4.085   0.264   4.441  2.1034 -1.0004  0.0541
19841TIP3   OH280937   2.656   4.438   4.407  0.5391 -0.1902  0.0454
19841TIP3    H180938   2.746   4.411   4.390 -0.1776 -1.6151 -1.6875
19841TIP3    H280939   2.650   4.525   4.368  0.9483 -0.4431 -0.6022
19842TIP3   OH280940   2.371   2.787   2.827 -0.2764  1.0262 -0.1538
19842TIP3    H180941   2.357   2.796   2.733 -0.2617  1.9997 -0.0691
19842TIP3    H280942   2.292   2.823   2.867 -0.8668 -0.6302  0.1884
19843TIP3   OH280943   2.811   1.345  13.395 -0.2545  0.1141  0.1345
19843TIP3    H180944   2.846   1.273  13.447  2.3301  0.3510 -1.2118
19843TIP3    H280945   2.750   1.303  13.334 -2.5816 -0.2727  2.6357
19844TIP3   OH280946   2.694   1.551  13.100  0.0223 -0.1307 -0.1524
19844TIP3    H180947   2.779   1.593  13.111  0.2339 -1.1963  2.6870
19844TIP3    H280948   2.635   1.602  13.156 -0.8041 -0.4870 -0.6934
19845TIP3   OH280949   3.491   4.962  13.166 -0.0422 -0.2058  0.1068
19845TIP3    H180950   3.583   4.936  13.158 -0.1393 -1.1209  1.7823
19845TIP3    H280951   3.492   5.058  13.157  0.8592 -0.3581 -1.5608
19846TIP3   OH280952   3.591   5.768   6.291  1.1531  0.4567  0.0319
19846TIP3    H180953   3.625   5.763   6.202 -0.6704  0.9675 -0.6999
19846TIP3    H280954   3.576   5.862   6.306 -2.3818  0.0511 -0.6137
19847TIP3   OH280955   2.349   0.510   1.647 -0.0816  0.0137 -0.3220
19847TIP3    H180956   2.349   0.431   1.700  2.6054  0.1619 -0.0573
19847TIP3    H280957   2.296   0.572   1.697 -1.7201 -1.4001 -0.2529
19848TIP3   OH280958   0.027   0.007   0.723 -0.1639  0.2514  0.4711
19848TIP3    H180959   0.049   0.047   0.807 -1.8058  0.5402  0.7876
19848TIP3    H280960   0.056   0.071   0.657 -0.2702  0.7133  0.8740
19849TIP3   OH280961   3.254   1.894  15.642 -0.4437  0.2771 -0.4744
19849TIP3    H180962   3.266   1.831  15.571  1.0435 -0.6289  0.5435
19849TIP3    H280963   3.294   1.974  15.609  3.5494 -1.1380  0.6532
19850TIP3   OH280964   4.346   6.065  14.656 -0.3457  0.1617 -0.7390
19850TIP3    H180965   4.260   6.073  14.697  0.9793  0.5084  2.0384
19850TIP3    H280966   4.369   6.154  14.631  0.5485  0.5433  1.3709
19851TIP3   OH280967   3.099   1.716  13.150  0.1089 -0.6077 -0.0311
19851TIP3    H180968   3.023   1.740  13.098 -0.9862  1.9012  2.6219
19851TIP3    H280969   3.066   1.651  13.213  0.3916 -0.2431  0.4941
19852TIP3   OH280970   2.944   0.571  13.098  0.3171 -0.1000  0.1313
19852TIP3    H180971   2.927   0.544  13.188 -2.6145 -1.1641 -0.6675
19852TIP3    H280972   2.970   0.490  13.053  0.5189  0.1827 -0.2702
19853TIP3   OH280973   3.205   5.158   5.910  0.2018 -0.0482  0.2888
19853TIP3    H180974   3.289   5.164   5.955 -0.2705 -1.0340  1.3442
19853TIP3    H280975   3.141   5.189   5.975 -0.4285 -0.9692  0.1156
19854TIP3   OH280976   1.153   0.165   2.072 -0.1129  0.3298  0.4504
19854TIP3    H180977   1.158   0.249   2.027 -1.7711  0.1387 -0.1311
19854TIP3    H280978   1.118   0.185   2.159  3.7352  0.7879  1.9879
19855TIP3   OH280979   0.264   2.619   2.718  0.2493  0.0785 -0.1219
19855TIP3    H180980   0.279   2.621   2.624  1.9259 -1.6635  0.0889
19855TIP3    H280981   0.205   2.545   2.732  2.7306 -1.8466  0.5132
19856TIP3   OH280982   5.581   0.930   0.381  0.0228 -0.2300 -0.2077
19856TIP3    H180983   5.502   0.931   0.326  0.8242  0.0701 -1.3703
19856TIP3    H280984   5.634   0.859   0.346  0.6581  0.1381 -0.0090
19857TIP3   OH280985   3.579   0.606   4.633 -0.3997 -0.1845  0.4041
19857TIP3    H180986   3.619   0.521   4.616 -0.4504 -0.1599  0.1634
19857TIP3    H280987   3.508   0.613   4.570 -1.6622 -0.8134  1.7406
19858TIP3   OH280988   3.227   5.769  10.965 -0.0676 -0.4257  0.5418
19858TIP3    H180989   3.260   5.858  10.979 -1.1314 -0.0133  0.4650
19858TIP3    H280990   3.192   5.742  11.050 -2.7265  0.4964 -0.1959
19859TIP3   OH280991   5.329   0.954  16.356  0.2156  0.3157  0.0266
19859TIP3    H180992   5.382   0.992  16.425  1.1946 -0.3608 -0.3296
19859TIP3    H280993   5.243   0.993  16.367  0.6192  0.9474  1.0179
19860TIP3   OH280994   6.186   2.312  12.984  0.6584 -0.6184 -0.2125
19860TIP3    H180995   6.141   2.392  12.955  1.7327 -0.1105 -0.4776
19860TIP3    H280996   6.120   2.243  12.974  0.1836 -0.0059 -1.3674
19861TIP3   OH280997   4.039   5.458   5.403 -0.2656 -0.6412 -0.1230
19861TIP3    H180998   3.990   5.447   5.484  1.7978  0.3529  1.3231
19861TIP3    H280999   3.994   5.528   5.357 -0.5593 -0.1380  0.9025
19862TIP3   OH281000   2.565   2.661   5.555  0.3525 -0.5936 -0.5164
19862TIP3    H181001   2.578   2.566   5.550  1.4163 -0.3631 -2.5071
19862TIP3    H281002   2.604   2.685   5.639  1.0578 -1.7800 -0.4769
19863TIP3   OH281003   2.943   6.667  12.790  0.2855  0.1857  0.2361
19863TIP3    H181004   2.848   6.674  12.788  0.1425 -0.8014  2.3728
19863TIP3    H281005   2.960   6.574  12.807  1.6382  0.3020 -0.4175
19864TIP3   OH281006   0.585   2.792  15.706  0.3956 -0.3992  0.1705
19864TIP3    H181007   0.569   2.782  15.800  1.0526  0.8744  0.4348
19864TIP3    H281008   0.500   2.817  15.670  0.0490 -1.2825  0.3619
19865TIP3   OH281009   5.775   1.410   5.177  0.5025 -0.2939  0.4174
19865TIP3    H181010   5.727   1.331   5.201 -1.9661  0.8565 -0.5650
19865TIP3    H281011   5.785   1.458   5.259 -2.0034  0.4553  0.3488
19866TIP3   OH281012   2.430   0.020   4.190 -0.3144  0.1304  0.1446
19866TIP3    H181013   2.373  -0.019   4.256 -0.4150  2.4754  1.4749
19866TIP3    H281014   2.519   0.001   4.221 -0.3611  1.2434  0.9822
19867TIP3   OH281015   4.147   1.181  15.013 -0.3860 -0.3513 -0.1522
19867TIP3    H181016   4.133   1.272  14.986  0.8037 -0.6476 -1.8426
19867TIP3    H281017   4.242   1.172  15.017 -0.5114 -0.7526  2.7606
19868TIP3   OH281018   6.478   4.849  13.825  0.0440  0.1253  0.2589
19868TIP3    H181019   6.571   4.852  13.803  0.2192 -1.1662  0.7703
19868TIP3    H281020   6.465   4.922  13.885  1.1503 -0.8437  1.7048
19869TIP3   OH281021   0.542   4.508   3.578  0.1793 -0.2488  0.5133
19869TIP3    H181022   0.607   4.523   3.646 -0.9159 -0.5345  1.6283
19869TIP3    H281023   0.481   4.445   3.615 -0.6443 -0.1225 -0.5887
19870TIP3   OH281024   3.500   0.057   0.966  0.3225  0.2361 -0.1405
19870TIP3    H181025   3.591   0.027   0.959  0.1200 -0.5726  0.6648
19870TIP3    H281026   3.493   0.126   0.899  0.7204 -1.6970 -2.2479
19871TIP3   OH281027   6.132   5.470  16.617  0.1308 -0.0410 -0.0353
19871TIP3    H181028   6.073   5.510  16.681 -0.5747 -0.4183 -0.4415
19871TIP3    H281029   6.099   5.380  16.607  1.9818 -0.8850  1.2355
19872TIP3   OH281030   2.772   4.349   0.559  0.5179  0.3654 -0.4908
19872TIP3    H181031   2.813   4.272   0.600  0.1072  0.6038  0.3760
19872TIP3    H281032   2.843   4.411   0.547  0.4634  0.6618  0.7347
19873TIP3   OH281033   0.814   1.066  17.033  0.6451  0.1566 -0.6546
19873TIP3    H181034   0.862   1.137  17.076  0.1816  1.3746 -2.1035
19873TIP3    H281035   0.765   1.024  17.104  0.5200  1.6165  0.1495
19874TIP3   OH281036   4.016   3.178  12.014  0.7229 -0.4545 -0.7197
19874TIP3    H181037   3.931   3.219  11.997  0.4533 -0.7111  0.0017
19874TIP3    H281038   3.997   3.106  12.074  1.1611 -1.7957 -2.1568
19875TIP3   OH281039   1.317   3.848  13.748  0.3327 -0.1091 -0.0111
19875TIP3    H181040   1.279   3.771  13.706  1.7915 -1.1059  0.4682
19875TIP3    H281041   1.241   3.897  13.780 -0.5532 -2.1843  1.1567
19876TIP3   OH281042   0.620   2.532   1.808  0.5823  0.1507  0.1911
19876TIP3    H181043   0.622   2.597   1.878  0.8303  0.7587 -0.3731
19876TIP3    H281044   0.711   2.521   1.783  0.3950  0.7564 -0.7840
19877TIP3   OH281045   1.280   5.225  13.087  0.6762 -0.3074 -0.0705
19877TIP3    H181046   1.275   5.297  13.150 -0.2275 -0.4977  0.0885
19877TIP3    H281047   1.368   5.189  13.098  1.3211  1.0936 -0.5077
19878TIP3   OH281048   2.944   5.929  13.753 -0.0948  0.1178  0.5995
19878TIP3    H181049   2.873   5.964  13.807 -0.6801 -1.7007  1.0473
19878TIP3    H281050   2.984   5.861  13.807  0.5084 -0.4561 -0.5499
19879TIP3   OH281051   2.639   2.846   4.900  0.3493  0.0014  0.0524
19879TIP3    H181052   2.599   2.763   4.875 -0.1592  0.0567  0.6540
19879TIP3    H281053   2.710   2.859   4.838 -0.7282  0.0148 -1.1919
19880TIP3   OH281054   1.523   2.389   1.017  0.4234 -0.3260  0.0556
19880TIP3    H181055   1.447   2.417   0.966 -1.2059 -3.0376  0.8866
19880TIP3    H281056   1.598   2.400   0.958 -0.8831  0.4942 -1.4560
19881TIP3   OH281057   2.837   1.801  16.448 -0.2382 -0.0526  0.0076
19881TIP3    H181058   2.875   1.889  16.446  0.6633 -0.4142  1.2110
19881TIP3    H281059   2.864   1.762  16.365  2.0902 -0.3267  0.8611
19882TIP3   OH281060   1.501   5.392  15.795  0.1796  0.5307  0.0287
19882TIP3    H181061   1.550   5.376  15.714  0.3315 -0.0646  0.2383
19882TIP3    H281062   1.410   5.400  15.767  0.3502  1.2887 -0.3215
19883TIP3   OH281063   5.452   5.885  14.913  0.1717 -0.3354 -0.0067
19883TIP3    H181064   5.402   5.804  14.914 -0.5863  0.1211 -0.4259
19883TIP3    H281065   5.410   5.938  14.845  0.9583  0.2208 -0.0710
19884TIP3   OH281066   3.226   1.504  15.555  0.1166 -0.4776 -0.1232
19884TIP3    H181067   3.224   1.463  15.641 -0.3014 -0.1090  0.0464
19884TIP3    H281068   3.299   1.566  15.559 -1.9357  1.9652  1.1053
19885TIP3   OH281069   3.678   4.705   0.859  0.6176  0.1340 -0.4029
19885TIP3    H181070   3.623   4.709   0.781 -0.2108 -1.1778  0.0960
19885TIP3    H281071   3.681   4.795   0.891  0.2690  0.5315 -1.4763
19886TIP3   OH281072   2.767   2.526  16.029  0.6352  0.4332 -0.5709
19886TIP3    H181073   2.855   2.510  15.992  0.4549 -0.3983 -0.6564
19886TIP3    H281074   2.758   2.459  16.097 -1.0977 -1.4620 -2.5741
19887TIP3   OH281075   5.216   4.863   1.754 -0.5629 -0.2156 -0.2057
19887TIP3    H181076   5.232   4.884   1.846 -0.6753  0.5535 -0.3611
19887TIP3    H281077   5.287   4.904   1.707 -1.8248  1.4618 -0.6962
19888TIP3   OH281078   3.138   4.605   3.889 -0.1358 -0.0501 -0.6669
19888TIP3    H181079   3.149   4.551   3.811  0.4377 -0.9435  0.0045
19888TIP3    H281080   3.051   4.584   3.921  0.8703 -2.2592  0.7866
19889TIP3   OH281081   4.391   6.150   4.549 -0.1016  0.2775  0.2482
19889TIP3    H181082   4.388   6.086   4.478  0.8786 -1.0037  1.3129
19889TIP3    H281083   4.393   6.235   4.506  1.1115 -0.4980 -1.2710
19890TIP3   OH281084   4.270   3.966   2.157  0.4176 -0.0227 -0.5279
19890TIP3    H181085   4.270   3.876   2.125  0.6625  0.1701 -1.0834
19890TIP3    H281086   4.363   3.988   2.166  0.3773  0.5254 -1.4044
19891TIP3   OH281087   5.944   4.674   4.253  0.2776 -0.2338  0.3104
19891TIP3    H181088   5.858   4.636   4.241  0.5927 -1.6736  2.3452
19891TIP3    H281089   5.996   4.604   4.293  1.6202  1.4832  1.6432
19892TIP3   OH281090   2.827   2.292   2.415 -0.3016  0.4319 -0.2028
19892TIP3    H181091   2.802   2.346   2.491 -1.4445  1.1680 -1.0871
19892TIP3    H281092   2.902   2.338   2.377 -0.3102  0.5643 -0.0591
19893TIP3   OH281093   0.280   1.550   3.300 -0.1256 -0.2018  0.3910
19893TIP3    H181094   0.211   1.560   3.234  0.1110 -0.2639  0.1302
19893TIP3    H281095   0.319   1.465   3.281  0.8477  0.3651 -0.2653
19894TIP3   OH281096   3.953   1.445   5.683  0.0108 -0.4661 -0.6200
19894TIP3    H181097   3.880   1.407   5.732  0.0881  0.6634  0.3945
19894TIP3    H281098   3.994   1.506   5.744  0.9528 -0.0453 -1.6474
19895TIP3   OH281099   0.837   3.652   4.238 -0.0591  0.2465  0.7274
19895TIP3    H181100   0.895   3.646   4.314 -0.6725  2.2969  1.3848
19895TIP3    H281101   0.770   3.715   4.264 -2.2657 -1.5996 -0.2447
19896TIP3   OH281102   0.930   6.524  13.823  0.3972  0.6329 -0.0714
19896TIP3    H181103   0.858   6.587  13.827  0.6937  1.0500 -0.9184
19896TIP3    H281104   1.003   6.575  13.786  0.8903  0.0140  0.0459
19897TIP3   OH281105   5.130   6.206   6.107 -0.3882 -0.4129  0.2960
19897TIP3    H181106   5.118   6.118   6.145  0.4662 -0.2792  0.8895
19897TIP3    H281107   5.195   6.248   6.164 -0.0303  0.2412 -0.5875
19898TIP3   OH281108   3.731   0.913  11.181  0.2238  0.0227 -0.3607
19898TIP3    H181109   3.740   0.936  11.273 -0.9632 -0.2510 -0.1751
19898TIP3    H281110   3.652   0.959  11.152 -0.2391 -1.0761 -0.8669
19899TIP3   OH281111   6.558   3.278  16.373  0.2557 -0.2932 -0.2024
19899TIP3    H181112   6.571   3.358  16.322  2.1409  0.4558  1.3809
19899TIP3    H281113   6.595   3.298  16.459 -0.7146 -2.3347  0.7279
19900TIP3   OH281114   5.533   0.891   4.599  0.1719 -0.0475 -0.1522
19900TIP3    H181115   5.459   0.850   4.554 -0.8618  0.1593  1.3117
19900TIP3    H281116   5.611   0.852   4.559 -0.7558 -1.8550 -0.2445
19901TIP3   OH281117   1.410   4.013  15.230 -0.2852 -0.0705 -0.4902
19901TIP3    H181118   1.335   4.058  15.191  0.2293  1.3894  0.1904
19901TIP3    H281119   1.477   4.080  15.238  1.5851 -1.6476 -2.2904
19902TIP3   OH281120   2.273   0.588   5.675 -0.6832  0.3698 -0.3923
19902TIP3    H181121   2.327   0.661   5.644 -2.4422  1.2550 -1.5007
19902TIP3    H281122   2.224   0.623   5.749  0.1837 -0.3882  0.5396
19903TIP3   OH281123   4.449   0.582  12.383 -0.2690 -0.3518  0.0506
19903TIP3    H181124   4.520   0.542  12.333  1.5013  2.2922  0.3800
19903TIP3    H281125   4.414   0.650  12.325 -1.7701 -0.8168  0.3754
19904TIP3   OH281126   6.005   4.332   6.235  0.7619 -0.5033  0.6057
19904TIP3    H181127   6.076   4.273   6.208  1.3968 -0.2508  1.6997
19904TIP3    H281128   5.928   4.298   6.190  0.8902 -2.8536  2.0986
19905TIP3   OH281129   5.529   6.673  11.563  0.7500  0.2456  0.0816
19905TIP3    H181130   5.602   6.661  11.623 -0.0085 -0.4520  0.8714
19905TIP3    H281131   5.524   6.768  11.551  0.2561  0.4660  1.9483
19906TIP3   OH281132   1.425   4.797   3.630  0.2180 -0.2139 -0.2607
19906TIP3    H181133   1.385   4.782   3.716  1.0256  1.7280  0.4974
19906TIP3    H281134   1.403   4.719   3.579 -0.3054 -1.3778  1.6899
19907TIP3   OH281135   4.765   3.084  16.003  0.0803  0.1362 -0.1398
19907TIP3    H181136   4.671   3.071  16.010 -0.1903  2.0712  0.0365
19907TIP3    H281137   4.790   3.123  16.087  0.9961 -0.0832 -0.3060
19908TIP3   OH281138   2.024   4.197  11.321  0.2475 -0.3665  0.2068
19908TIP3    H181139   2.023   4.290  11.341 -0.1990 -0.5349  0.9815
19908TIP3    H281140   2.056   4.192  11.231  2.1391  0.3941  0.8238
19909TIP3   OH281141   4.886   5.573   2.395  0.0812  0.3689  0.2599
19909TIP3    H181142   4.976   5.548   2.375 -0.3415 -1.7487  0.9466
19909TIP3    H281143   4.863   5.520   2.471 -2.6346 -1.0629 -1.4958
19910TIP3   OH281144   4.511   4.243   5.022  0.1132 -0.1420 -0.2547
19910TIP3    H181145   4.517   4.290   4.939 -0.4329 -0.3422 -0.4070
19910TIP3    H281146   4.534   4.308   5.088  0.0966  0.1362 -0.5241
19911TIP3   OH281147   5.070   6.290  13.317 -0.1875 -0.4273  0.5043
19911TIP3    H181148   4.975   6.292  13.303 -0.3060  0.3458  1.3521
19911TIP3    H281149   5.097   6.382  13.309  0.5315 -0.6738  0.0195
19912TIP3   OH281150   4.116   4.290   3.533 -0.0637  0.0056 -0.0332
19912TIP3    H181151   4.180   4.357   3.554  0.8662 -0.7685 -0.3386
19912TIP3    H281152   4.082   4.261   3.618 -0.1550  0.5482  0.1164
19913TIP3   OH281153   4.410   3.250  14.102 -0.2121  0.0005  0.5053
19913TIP3    H181154   4.392   3.253  14.196 -0.2878  1.5282  0.4561
19913TIP3    H281155   4.324   3.240  14.061 -0.3591  1.0591  0.5372
19914TIP3   OH281156   6.710   3.526  11.218 -0.5873  0.8125  0.3347
19914TIP3    H181157   6.729   3.433  11.214  1.6631  1.2534 -0.4647
19914TIP3    H281158   6.789   3.565  11.257  0.0295  2.7241 -2.6038
19915TIP3   OH281159   2.029   0.541   0.645 -0.4528 -0.4739 -1.3558
19915TIP3    H181160   2.100   0.536   0.582  1.7013 -0.6658  1.0275
19915TIP3    H281161   2.031   0.632   0.676  0.8812 -1.2940  1.0620
19916TIP3   OH281162   3.201   2.230  17.108 -0.1924  0.3697 -0.0818
19916TIP3    H181163   3.232   2.140  17.101  0.2724  0.4334  0.9480
19916TIP3    H281164   3.127   2.225  17.169 -1.1538  0.4722 -1.2101
19917TIP3   OH281165   3.120   3.855  15.392  0.6854  0.3690 -0.5574
19917TIP3    H181166   3.041   3.871  15.442  1.2099  0.0005  0.4113
19917TIP3    H281167   3.118   3.920  15.322 -0.1734  0.7424 -0.1933
19918TIP3   OH281168   3.638   5.553   5.141  0.1113 -0.4933 -0.0261
19918TIP3    H181169   3.718   5.518   5.103  0.7094  0.3641  0.4201
19918TIP3    H281170   3.568   5.520   5.085  0.6981 -1.9289  0.0678
19919TIP3   OH281171   1.329   2.853   1.017 -0.2431 -0.1244  0.2922
19919TIP3    H181172   1.313   2.928   1.075  0.4622 -0.8994  1.5019
19919TIP3    H281173   1.254   2.795   1.032 -0.6298  0.1866 -0.4133
19920TIP3   OH281174   2.834   3.847  11.506 -0.0269  0.0766  0.1562
19920TIP3    H181175   2.919   3.832  11.466 -0.7336  0.5244 -1.5730
19920TIP3    H281176   2.854   3.891  11.588  1.3860  0.9489 -0.6254
19921TIP3   OH281177   3.710   5.605   6.763 -0.1617  0.1829  0.4255
19921TIP3    H181178   3.651   5.674   6.735 -0.4953  0.5307  1.9068
19921TIP3    H281179   3.756   5.578   6.684 -0.2022  1.9335 -0.2108
19922TIP3   OH281180   1.946   0.430   3.382 -0.0755  0.4880 -0.5459
19922TIP3    H181181   1.995   0.418   3.464 -0.4985  0.6717 -0.2626
19922TIP3    H281182   1.854   0.436   3.410 -0.1874  0.9145 -1.0029
19923TIP3   OH281183   3.503   2.028   2.834 -0.5847 -0.9979  0.3001
19923TIP3    H181184   3.460   1.984   2.761  0.5439 -1.4370 -0.1204
19923TIP3    H281185   3.561   1.961   2.871  0.7006 -0.0627  0.0317
19924TIP3   OH281186   4.206   0.532  15.055  0.1392 -0.0269 -0.6750
19924TIP3    H181187   4.153   0.482  14.993  2.8956 -2.7439 -0.9412
19924TIP3    H281188   4.238   0.467  15.118  1.9434  1.7893  0.3521
19925TIP3   OH281189   4.507   6.693  13.999 -0.6044 -0.5487  0.2752
19925TIP3    H181190   4.558   6.643  14.062 -3.5082 -1.9044  1.6882
19925TIP3    H281191   4.487   6.631  13.929 -0.0919  0.0419 -0.4011
19926TIP3   OH281192   4.028   1.909   0.037 -0.2501 -0.8858 -0.1496
19926TIP3    H181193   4.051   1.919  -0.055 -3.9109 -0.2949 -1.0702
19926TIP3    H281194   4.022   1.815   0.051 -1.0144 -0.9517 -0.8828
19927TIP3   OH281195   3.879   6.271   2.479  0.2694  0.3769 -0.1830
19927TIP3    H181196   3.832   6.269   2.396  1.0498 -3.5576 -0.6278
19927TIP3    H281197   3.816   6.239   2.543 -0.6611  4.3423  1.0510
19928TIP3   OH281198   4.703   3.612   0.796  0.8576 -0.8984 -0.2706
19928TIP3    H181199   4.620   3.582   0.833 -0.5235 -0.3786 -2.8110
19928TIP3    H281200   4.714   3.560   0.717  2.9691 -0.9419  0.0280
19929TIP3   OH281201   0.034   2.000   0.401 -0.4424 -0.4287  0.3354
19929TIP3    H181202   0.084   1.920   0.414  1.0532  0.2678 -1.0022
19929TIP3    H281203  -0.045   1.973   0.353  0.1000 -1.0785 -0.1874
19930TIP3   OH281204   1.073   4.622  12.407  0.0529  0.0420  0.0967
19930TIP3    H181205   1.083   4.695  12.346  1.1831 -0.2924 -0.1370
19930TIP3    H281206   1.064   4.663  12.493 -1.8966  0.5273 -0.3176
19931TIP3   OH281207   1.693   5.976  13.873  0.9088  0.3267  0.2401
19931TIP3    H181208   1.651   5.940  13.796 -0.7083 -0.0451  1.2740
19931TIP3    H281209   1.787   5.974  13.852  0.9408 -4.3951  0.1524
19932TIP3   OH281210   6.288   4.890   3.671 -0.5157 -0.3427  0.2796
19932TIP3    H181211   6.334   4.823   3.721 -2.0450 -0.8026  1.1295
19932TIP3    H281212   6.357   4.945   3.633  0.7561 -2.4775 -0.5486
19933TIP3   OH281213   1.248   0.454  13.548  0.0835 -0.2297  0.1619
19933TIP3    H181214   1.274   0.425  13.461  0.5519  2.3496 -0.5923
19933TIP3    H281215   1.275   0.545  13.553 -1.5195  0.1911  2.3725
19934TIP3   OH281216   0.635   3.574  16.089 -0.1954  0.2179  0.0486
19934TIP3    H181217   0.655   3.616  16.173 -0.0245 -1.2943  0.7775
19934TIP3    H281218   0.717   3.531  16.064 -0.1905  0.8124 -1.0025
19935TIP3   OH281219   4.917   6.502  12.147  0.0381  0.3082 -0.0296
19935TIP3    H181220   4.841   6.561  12.148  0.3823  0.7566 -0.0594
19935TIP3    H281221   4.984   6.548  12.197 -0.9233 -1.7611  3.3100
19936TIP3   OH281222   6.680   5.200   1.787 -0.1286  0.3293  0.4800
19936TIP3    H181223   6.605   5.245   1.748  0.5633  1.3891  0.3270
19936TIP3    H281224   6.729   5.270   1.831  0.2939 -0.4934  1.3291
19937TIP3   OH281225   3.336   4.633  12.408  0.2632  0.0654 -0.1614
19937TIP3    H181226   3.279   4.684  12.466 -0.1350 -0.9555  0.3532
19937TIP3    H281227   3.421   4.633  12.452 -0.0012 -0.5869  0.3508
19938TIP3   OH281228   1.978   5.767   3.152 -0.0999  0.1106  0.0128
19938TIP3    H181229   2.070   5.792   3.162  0.0692 -0.7434  0.6397
19938TIP3    H281230   1.969   5.689   3.205 -1.2577  0.3316  0.1458
19939TIP3   OH281231   4.631   0.557   5.512 -0.3315 -0.6957  0.5418
19939TIP3    H181232   4.633   0.511   5.596 -2.2329 -0.2954  0.8271
19939TIP3    H281233   4.561   0.515   5.463 -0.6855  0.5119 -0.0063
19940TIP3   OH281234   6.212   5.654   0.822  0.5558  0.3770  0.7723
19940TIP3    H181235   6.302   5.673   0.851  0.2432 -1.4415  3.1032
19940TIP3    H281236   6.158   5.673   0.899 -0.8822 -0.0195 -0.1353
19941TIP3   OH281237   5.958   1.909   3.180  0.2033  0.1278 -0.0853
19941TIP3    H181238   6.012   1.864   3.114  2.0130 -0.2651  1.6266
19941TIP3    H281239   5.873   1.865   3.175  0.4198 -0.1509 -1.8725
19942TIP3   OH281240   3.944   4.266   5.858 -0.6742 -0.4210  0.2075
19942TIP3    H181241   3.900   4.251   5.774  1.2717 -0.0138 -0.9167
19942TIP3    H281242   3.982   4.353   5.850  0.2137 -0.7037  1.1888
19943TIP3   OH281243   5.200   6.330  13.715 -0.0896 -0.3728  0.0562
19943TIP3    H181244   5.230   6.344  13.626 -0.1709 -2.2825 -0.3087
19943TIP3    H281245   5.251   6.391  13.768  0.5554  0.1872 -1.1919
19944TIP3   OH281246   3.833   6.008   1.935 -0.1204 -0.6998 -0.6568
19944TIP3    H181247   3.893   5.988   2.007 -3.2074 -0.3108  2.1249
19944TIP3    H281248   3.809   5.923   1.899 -1.7184 -1.1972  1.4912
19945TIP3   OH281249   4.929   4.969  14.023  0.1182  0.0222 -0.1038
19945TIP3    H181250   4.850   5.007  13.984  0.9997  1.2788 -0.7076
19945TIP3    H281251   4.897   4.925  14.103 -0.9233  2.3103  0.7990
19946CLA    CLA81252   6.633   4.689  13.451  0.0093  0.0955  0.0548
19947LIG     O181253   3.534   3.385  16.491 -0.4693  0.2771 -0.6540
19947LIG     O281254   3.454   3.329  16.738 -0.0499  0.1887 -0.4612
19947LIG     O381255   3.585   3.178  16.434 -0.4721  0.2241  0.0943
19947LIG     O481256   3.262   3.306  16.533  0.0598 -0.4923  0.9827
19947LIG     O581257   3.819   3.484  17.139  0.3128  0.4005 -0.4884
19947LIG      N81258   3.742   3.605  16.307  0.1728 -0.2399  0.2631
19947LIG     C181259   3.608   3.572  16.359 -0.0291 -0.2357 -0.2262
19947LIG     C281260   3.834   3.522  16.401 -0.3349 -0.0516  0.0114
19947LIG     C381261   3.618   3.425  16.382  0.5106  0.3114 -0.0599
19947LIG     C481262   3.765   3.386  16.412  0.4702  0.1755  0.1227
19947LIG     C581263   3.750   3.555  16.168 -0.1026  0.1566  0.4584
19947LIG     C681264   3.778   3.745  16.317  0.1918 -0.5460  0.0752
19947LIG     C781265   3.532   3.257  16.514  0.9829  0.3467  0.3496
19947LIG     C881266   3.465   3.222  16.639  0.4256 -0.0207 -0.2710
19947LIG     C981267   3.505   3.094  16.719  0.1188 -0.3939  0.1425
19947LIG    C1081268   3.331   3.198  16.574 -0.2965  0.2827  0.1763
19947LIG    C1181269   3.574   3.367  16.798 -0.9558 -0.2476  0.5416
19947LIG    C1281270   3.425   3.031  16.816 -0.0666  0.6901  0.1458
19947LIG    C1381271   3.628   3.046  16.688  0.0612  0.3284 -0.1607
19947LIG    C1481272   3.262   3.084  16.540 -0.7453 -1.0819  0.7271
19947LIG    C1581273   3.556   3.498  16.866 -0.2949 -0.7612  0.1876
19947LIG    C1681274   3.685   3.537  16.946 -0.1962 -0.5068  0.1092
19947LIG    C1781275   3.153   3.123  16.469 -0.0723  0.7299  0.8745
19947LIG    C1881276   3.474   2.914  16.874  0.4935 -0.7183  0.8011
19947LIG    C1981277   3.680   2.930  16.747 -0.6788 -0.7354  0.8449
19947LIG    C2081278   3.150   3.259  16.474 -0.4603 -0.9957  0.1155
19947LIG    C2181279   3.601   2.865  16.846  0.5037  0.9220  0.0378
19947LIG    C2281280   3.695   3.461  17.074 -0.9005 -0.4961  0.3534
19947LIG     H181281   3.523   3.595  16.292 -0.1626 -1.3974 -0.4563
19947LIG     H281282   3.589   3.624  16.455 -1.8267  2.1251 -1.7985
19947LIG     H381283   3.833   3.569  16.502  0.2201  2.7869 -1.2505
19947LIG     H481284   3.942   3.516  16.376 -0.3030  0.4391  0.0348
19947LIG     H581285   3.575   3.372  16.297  2.8155  0.6033 -1.4700
19947LIG     H681286   3.773   3.335  16.509 -0.7152 -0.9477 -0.3553
19947LIG     H781287   3.811   3.331  16.329  2.7787  0.5109  1.1312
19947LIG     H881288   3.846   3.579  16.126 -1.4201  0.6210 -2.4330
19947LIG     H981289   3.672   3.594  16.104 -0.4587  1.7534  1.8267
19947LIG    H1081290   3.741   3.448  16.156 -0.7710  0.2601 -0.0314
19947LIG    H1181291   3.715   3.804  16.254  0.5449 -1.6566 -1.3424
19947LIG    H1281292   3.876   3.757  16.274 -0.2931 -0.3301 -0.9830
19947LIG    H1381293   3.777   3.781  16.419 -2.1675  0.0887 -0.1452
19947LIG    H1481294   3.658   3.377  16.726 -1.4053  0.4800  0.1225
19947LIG    H1581295   3.600   3.278  16.860  1.8318  0.7086  0.8207
19947LIG    H1681296   3.328   3.067  16.845 -1.6652 -2.4676 -1.0785
19947LIG    H1781297   3.692   3.082  16.609 -0.1128 -0.3726 -0.6247
19947LIG    H1881298   3.291   2.981  16.556 -0.9568 -0.9812  1.8070
19947LIG    H1981299   3.464   3.488  16.928  0.0296  2.5007  1.3226
19947LIG    H2081300   3.530   3.582  16.799 -1.9289 -2.0093 -0.7814
19947LIG    H2181301   3.679   3.644  16.974 -0.8021 -0.7901  1.0671
19947LIG    H2281302   3.775   3.517  16.883 -0.0341  1.2289 -0.2330
19947LIG    H2381303   3.075   3.059  16.431  0.7914  1.1419 -1.7402
19947LIG    H2481304   3.416   2.872  16.955 -2.0305  0.7523 -0.1869
19947LIG    H2581305   3.780   2.890  16.732 -0.2253  0.9609 -0.8021
19947LIG    H2681306   3.076   3.327  16.433  0.1943  0.2639  0.9853
19947LIG    H2781307   3.622   2.770  16.891  0.2685  0.0330 -1.6771
19947LIG    H2881308   3.616   3.485  17.149 -0.6194  0.6187  0.3005
19947LIG    H2981309   3.695   3.353  17.051 -3.4544 -0.5758  0.5588
19947LIG    H3081310   3.825   3.423  17.212 -0.5418  0.2424 -0.5453
   6.78697   6.78697  17.23950
